<event>
 7    0  0.4793433E-002  0.4534025E+03  0.7546771E-02  0.1026712E+00
         21   -1    0    0  502  501  0.00000000000E+00  0.00000000000E+00  0.76931470761E+02  0.76931470761E+02  0.00000000000E+00 0.  1.
         21   -1    0    0  501  502 -0.00000000000E+00 -0.00000000000E+00 -0.66804203681E+03  0.66804203681E+03  0.00000000000E+00 0.  1.
      99926    2    1    2    0    0  0.88817841970E-15  0.14210854715E-13 -0.59111056605E+03  0.74497350757E+03  0.45340249855E+03 0.  0.
      99925    2    3    3    0    0  0.27257071328E+01 -0.79938990523E+02 -0.24452564225E+03  0.36792405565E+03  0.26301644307E+03 0.  0.
         25    1    4    4    0    0 -0.16162261499E+02 -0.55455030069E+02 -0.81349623286E+02  0.16000546355E+03  0.12509000000E+03 0.  0.
         25    1    4    4    0    0  0.18887968632E+02 -0.24483960454E+02 -0.16317601896E+03  0.20791859211E+03  0.12509000000E+03 0.  0.
         25    1    3    3    0    0 -0.27257071328E+01  0.79938990523E+02 -0.34658492380E+03  0.37704945192E+03  0.12509000000E+03 0.  0.
<mgrwt>
<rscale>  2 0.45340250E+03</rscale>
<asrwt>0</asrwt>
<pdfrwt beam="1">  1       21 0.11313452E-01 0.45340250E+03</pdfrwt>
<pdfrwt beam="2">  1       21 0.98241475E-01 0.45340250E+03</pdfrwt>
<totfact> 0.51167763E+04</totfact>
</mgrwt>
</event>
<event>
 7    0  0.4793433E-002  0.4700593E+03  0.7546771E-02  0.1021903E+00
         21   -1    0    0  502  501  0.00000000000E+00  0.00000000000E+00  0.19862832224E+03  0.19862832224E+03  0.00000000000E+00 0.  1.
         21   -1    0    0  501  502 -0.00000000000E+00 -0.00000000000E+00 -0.27810196818E+03  0.27810196818E+03  0.00000000000E+00 0.  1.
      99926    2    1    2    0    0  0.00000000000E+00  0.00000000000E+00 -0.79473645940E+02  0.47673029043E+03  0.47005926160E+03 0.  0.
      99925    2    3    3    0    0 -0.73366332654E+02  0.88579080909E+02 -0.10341112226E+03  0.30512206448E+03  0.26301471761E+03 0.  0.
         25    1    3    3    0    0  0.73366332654E+02 -0.88579080909E+02  0.23937476322E+02  0.17160822595E+03  0.12509000000E+03 0.  0.
         25    1    4    4    0    0 -0.11160090970E+02  0.31742663838E+02 -0.80650798522E+02  0.15259162408E+03  0.12509000000E+03 0.  0.
         25    1    4    4    0    0 -0.62206241684E+02  0.56836417071E+02 -0.22760323740E+02  0.15253044039E+03  0.12509000000E+03 0.  0.
<mgrwt>
<rscale>  2 0.47005926E+03</rscale>
<asrwt>0</asrwt>
<pdfrwt beam="1">  1       21 0.29210048E-01 0.47005926E+03</pdfrwt>
<pdfrwt beam="2">  1       21 0.40897348E-01 0.47005926E+03</pdfrwt>
<totfact> 0.59499911E+04</totfact>
</mgrwt>
</event>
<event>
 6    0  0.4793433E-002  0.4329818E+03  0.7546771E-02  0.1032922E+00
         21   -1    0    0  502  501  0.00000000000E+00  0.00000000000E+00  0.36038685924E+03  0.36038685924E+03  0.00000000000E+00 0.  1.
         21   -1    0    0  501  502 -0.00000000000E+00 -0.00000000000E+00 -0.13004997602E+03  0.13004997602E+03  0.00000000000E+00 0.  1.
      99926    2    1    2    0    0  0.00000000000E+00  0.00000000000E+00  0.23033688322E+03  0.49043683526E+03  0.43298176590E+03 0.  0.
         25    1    3    3    0    0  0.30483009285E+01  0.49209517691E+02  0.61216047169E+01  0.13459513704E+03  0.12509000000E+03 0.  0.
         25    1    3    3    0    0 -0.39713547884E+02 -0.42940659689E+02  0.15685743102E+03  0.20898044862E+03  0.12509000000E+03 0.  0.
         25    1    3    3    0    0  0.36665246956E+02 -0.62688580013E+01  0.67357847485E+02  0.14686124960E+03  0.12509000000E+03 0.  0.
<mgrwt>
<rscale>  2 0.43298177E+03</rscale>
<asrwt>0</asrwt>
<pdfrwt beam="1">  1       21 0.52998067E-01 0.43298177E+03</pdfrwt>
<pdfrwt beam="2">  1       21 0.19124997E-01 0.43298177E+03</pdfrwt>
<totfact> 0.78853812E+04</totfact>
</mgrwt>
</event>
<event>
 7    0  0.4793433E-002  0.4644492E+03  0.7546771E-02  0.1023499E+00
         21   -1    0    0  502  501  0.00000000000E+00  0.00000000000E+00  0.75297491619E+03  0.75297491619E+03  0.00000000000E+00 0. -1.
         21   -1    0    0  501  502 -0.00000000000E+00 -0.00000000000E+00 -0.71620275587E+02  0.71620275587E+02  0.00000000000E+00 0. -1.
      99926    2    1    2    0    0  0.00000000000E+00  0.00000000000E+00  0.68135464060E+03  0.82459519177E+03  0.46444922654E+03 0.  0.
      99925    2    3    3    0    0 -0.10633592409E+03  0.58384564258E+02  0.40487927299E+03  0.49778909775E+03  0.26296515748E+03 0.  0.
         25    1    3    3    0    0  0.10633592409E+03 -0.58384564258E+02  0.27647536761E+03  0.32680609402E+03  0.12509000000E+03 0.  0.
         25    1    4    4    0    0 -0.45661760662E+02  0.13479411560E+02  0.13048817099E+03  0.18692608644E+03  0.12509000000E+03 0.  0.
         25    1    4    4    0    0 -0.60674163425E+02  0.44905152698E+02  0.27439110200E+03  0.31086301131E+03  0.12509000000E+03 0.  0.
<mgrwt>
<rscale>  2 0.46444923E+03</rscale>
<asrwt>0</asrwt>
<pdfrwt beam="1">  1       21 0.11073160E+00 0.46444923E+03</pdfrwt>
<pdfrwt beam="2">  1       21 0.10532394E-01 0.46444923E+03</pdfrwt>
<totfact> 0.43297493E+04</totfact>
</mgrwt>
</event>
<event>
 7    0  0.4793433E-002  0.4584838E+03  0.7546771E-02  0.1025222E+00
         21   -1    0    0  502  501  0.00000000000E+00  0.00000000000E+00  0.19017246210E+03  0.19017246210E+03  0.00000000000E+00 0. -1.
         21   -1    0    0  501  502 -0.00000000000E+00 -0.00000000000E+00 -0.27633790505E+03  0.27633790505E+03  0.00000000000E+00 0. -1.
      99926    2    1    2    0    0  0.35527136788E-14  0.00000000000E+00 -0.86165442945E+02  0.46651036715E+03  0.45848384824E+03 0.  0.
      99925    2    3    3    0    0  0.21796444350E+02  0.10936218209E+03 -0.19991363948E+02  0.28633909117E+03  0.26297385544E+03 0.  0.
         25    1    4    4    0    0  0.77410635148E+01  0.10850903659E+02 -0.87780446328E+01  0.12610403777E+03  0.12509000000E+03 0.  0.
         25    1    4    4    0    0  0.14055380835E+02  0.98511278427E+02 -0.11213319315E+02  0.16023505340E+03  0.12509000000E+03 0.  0.
         25    1    3    3    0    0 -0.21796444350E+02 -0.10936218209E+03 -0.66174078998E+02  0.18017127598E+03  0.12509000000E+03 0.  0.
<mgrwt>
<rscale>  2 0.45848385E+03</rscale>
<asrwt>0</asrwt>
<pdfrwt beam="1">  1       21 0.27966539E-01 0.45848385E+03</pdfrwt>
<pdfrwt beam="2">  1       21 0.40637927E-01 0.45848385E+03</pdfrwt>
<totfact> 0.65855409E+04</totfact>
</mgrwt>
</event>
<event>
 7    0  0.4793433E-002  0.4500956E+03  0.7546771E-02  0.1027694E+00
         21   -1    0    0  502  501  0.00000000000E+00  0.00000000000E+00  0.50914834278E+02  0.50914834278E+02  0.00000000000E+00 0. -1.
         21   -1    0    0  501  502 -0.00000000000E+00 -0.00000000000E+00 -0.99472996030E+03  0.99472996030E+03  0.00000000000E+00 0. -1.
      99926    2    1    2    0    0  0.00000000000E+00  0.14210854715E-13 -0.94381512602E+03  0.10456447946E+04  0.45009559465E+03 0.  0.
      99925    2    3    3    0    0  0.14236107678E+02 -0.96773858412E+02 -0.70574661086E+03  0.75947705977E+03  0.26298151863E+03 0.  0.
         25    1    4    4    0    0  0.15698643032E+02 -0.66706524406E+02 -0.27306998299E+03  0.30807617808E+03  0.12509000000E+03 0.  0.
         25    1    4    4    0    0 -0.14625353540E+01 -0.30067334006E+02 -0.43267662787E+03  0.45140088169E+03  0.12509000000E+03 0.  0.
         25    1    3    3    0    0 -0.14236107678E+02  0.96773858412E+02 -0.23806851516E+03  0.28616773481E+03  0.12509000000E+03 0.  0.
<mgrwt>
<rscale>  2 0.45009559E+03</rscale>
<asrwt>0</asrwt>
<pdfrwt beam="1">  1       21 0.74874753E-02 0.45009559E+03</pdfrwt>
<pdfrwt beam="2">  1       21 0.14628382E+00 0.45009559E+03</pdfrwt>
<totfact> 0.38905772E+04</totfact>
</mgrwt>
</event>
<event>
 7    0  0.4793433E-002  0.4463485E+03  0.7546771E-02  0.1028817E+00
         21   -1    0    0  502  501  0.00000000000E+00  0.00000000000E+00  0.49380505814E+02  0.49380505814E+02  0.00000000000E+00 0. -1.
         21   -1    0    0  501  502 -0.00000000000E+00 -0.00000000000E+00 -0.10086318765E+04  0.10086318765E+04  0.00000000000E+00 0. -1.
      99926    2    1    2    0    0  0.00000000000E+00  0.00000000000E+00 -0.95925137073E+03  0.10580123824E+04  0.44634852859E+03 0.  0.
      99925    2    3    3    0    0  0.63624715967E+02  0.83003705505E+02 -0.60518362134E+03  0.66820576509E+03  0.26327553884E+03 0.  0.
         25    1    4    4    0    0  0.56106977500E+02  0.30446133950E+02 -0.38092179890E+03  0.40598507974E+03  0.12509000000E+03 0.  0.
         25    1    3    3    0    0 -0.63624715967E+02 -0.83003705505E+02 -0.35406774939E+03  0.38980661727E+03  0.12509000000E+03 0.  0.
         25    1    4    4    0    0  0.75177384663E+01  0.52557571555E+02 -0.22426182244E+03  0.26222068535E+03  0.12509000000E+03 0.  0.
<mgrwt>
<rscale>  2 0.44634853E+03</rscale>
<asrwt>0</asrwt>
<pdfrwt beam="1">  1       21 0.72618393E-02 0.44634853E+03</pdfrwt>
<pdfrwt beam="2">  1       21 0.14832821E+00 0.44634853E+03</pdfrwt>
<totfact> 0.39591182E+04</totfact>
</mgrwt>
</event>
<event>
 7    0  0.4793433E-002  0.4825935E+03  0.7546771E-02  0.1018425E+00
         21   -1    0    0  502  501  0.00000000000E+00  0.00000000000E+00  0.38113531026E+03  0.38113531026E+03  0.00000000000E+00 0.  1.
         21   -1    0    0  501  502 -0.00000000000E+00 -0.00000000000E+00 -0.15276493866E+03  0.15276493866E+03  0.00000000000E+00 0.  1.
      99926    2    1    2    0    0 -0.14210854715E-13  0.00000000000E+00  0.22837037160E+03  0.53390024892E+03  0.48259346159E+03 0.  0.
      99925    2    3    3    0    0 -0.87720092292E+02  0.10390755362E+03  0.11721201723E+03  0.31827260195E+03  0.26280638858E+03 0.  0.
         25    1    3    3    0    0  0.87720092292E+02 -0.10390755362E+03  0.11115835437E+03  0.21562764697E+03  0.12509000000E+03 0.  0.
         25    1    4    4    0    0 -0.81199524988E+02  0.42145224226E+02  0.76334387558E+02  0.17275424628E+03  0.12509000000E+03 0.  0.
         25    1    4    4    0    0 -0.65205673043E+01  0.61762329390E+02  0.40877629668E+02  0.14551835567E+03  0.12509000000E+03 0.  0.
<mgrwt>
<rscale>  2 0.48259346E+03</rscale>
<asrwt>0</asrwt>
<pdfrwt beam="1">  1       21 0.56049310E-01 0.48259346E+03</pdfrwt>
<pdfrwt beam="2">  1       21 0.22465432E-01 0.48259346E+03</pdfrwt>
<totfact> 0.50867048E+04</totfact>
</mgrwt>
</event>
<event>
 7    0  0.4793433E-002  0.4351105E+03  0.7546771E-02  0.1032258E+00
         21   -1    0    0  502  501  0.00000000000E+00  0.00000000000E+00  0.48903608309E+03  0.48903608309E+03  0.00000000000E+00 0.  1.
         21   -1    0    0  501  502 -0.00000000000E+00 -0.00000000000E+00 -0.96782819153E+02  0.96782819153E+02  0.00000000000E+00 0.  1.
      99926    2    1    2    0    0  0.00000000000E+00  0.00000000000E+00  0.39225326393E+03  0.58581890224E+03  0.43511051832E+03 0.  0.
      99925    2    3    3    0    0  0.62752194351E+02 -0.53514469656E+02  0.31028094005E+03  0.41503071078E+03  0.26301063244E+03 0.  0.
         25    1    4    4    0    0  0.26977209240E+02  0.92014974566E+00  0.19317051535E+03  0.23171312564E+03  0.12509000000E+03 0.  0.
         25    1    4    4    0    0  0.35774985112E+02 -0.54434619402E+02  0.11711042470E+03  0.18331758514E+03  0.12509000000E+03 0.  0.
         25    1    3    3    0    0 -0.62752194351E+02  0.53514469656E+02  0.81972323888E+02  0.17078819146E+03  0.12509000000E+03 0.  0.
<mgrwt>
<rscale>  2 0.43511052E+03</rscale>
<asrwt>0</asrwt>
<pdfrwt beam="1">  1       21 0.71917070E-01 0.43511052E+03</pdfrwt>
<pdfrwt beam="2">  1       21 0.14232768E-01 0.43511052E+03</pdfrwt>
<totfact> 0.69920087E+04</totfact>
</mgrwt>
</event>
<event>
 7    0  0.4793433E-002  0.4596121E+03  0.7546771E-02  0.1024894E+00
         21   -1    0    0  502  501  0.00000000000E+00  0.00000000000E+00  0.14587704955E+03  0.14587704955E+03  0.00000000000E+00 0. -1.
         21   -1    0    0  501  502 -0.00000000000E+00 -0.00000000000E+00 -0.36202274005E+03  0.36202274005E+03  0.00000000000E+00 0. -1.
      99926    2    1    2    0    0  0.00000000000E+00  0.17763568394E-14 -0.21614569049E+03  0.50789978960E+03  0.45961205028E+03 0.  0.
      99925    2    3    3    0    0  0.47448201111E+02 -0.11499325881E+02 -0.17414876185E+02  0.26805606769E+03  0.26299659927E+03 0.  0.
         25    1    4    4    0    0  0.45273261081E+01  0.10014845591E+02 -0.40819912671E+02  0.13204002115E+03  0.12509000000E+03 0.  0.
         25    1    4    4    0    0  0.42920875003E+02 -0.21514171472E+02  0.23405036486E+02  0.13601604655E+03  0.12509000000E+03 0.  0.
         25    1    3    3    0    0 -0.47448201111E+02  0.11499325881E+02 -0.19873081431E+03  0.23984372191E+03  0.12509000000E+03 0.  0.
<mgrwt>
<rscale>  2 0.45961205E+03</rscale>
<asrwt>0</asrwt>
<pdfrwt beam="1">  1       21 0.21452507E-01 0.45961205E+03</pdfrwt>
<pdfrwt beam="2">  1       21 0.53238638E-01 0.45961205E+03</pdfrwt>
<totfact> 0.62403293E+04</totfact>
</mgrwt>
</event>
<event>
 7    0  0.4793433E-002  0.4576773E+03  0.7546771E-02  0.1025457E+00
         21   -1    0    0  502  501  0.00000000000E+00  0.00000000000E+00  0.34620521058E+03  0.34620521058E+03  0.00000000000E+00 0. -1.
         21   -1    0    0  501  502 -0.00000000000E+00 -0.00000000000E+00 -0.15126040064E+03  0.15126040064E+03  0.00000000000E+00 0. -1.
      99926    2    1    2    0    0  0.00000000000E+00  0.00000000000E+00  0.19494480994E+03  0.49746561123E+03  0.45767734861E+03 0.  0.
      99925    2    3    3    0    0  0.59970028389E+02 -0.90931563083E+02  0.80590753712E+02  0.29599771863E+03  0.26316311744E+03 0.  0.
         25    1    3    3    0    0 -0.59970028389E+02  0.90931563083E+02  0.11435405623E+03  0.20146789259E+03  0.12509000000E+03 0.  0.
         25    1    4    4    0    0  0.94284899624E+01 -0.58856879249E+02  0.74184992891E+02  0.15717490235E+03  0.12509000000E+03 0.  0.
         25    1    4    4    0    0  0.50541538427E+02 -0.32074683835E+02  0.64057608210E+01  0.13882281629E+03  0.12509000000E+03 0.  0.
<mgrwt>
<rscale>  2 0.45767735E+03</rscale>
<asrwt>0</asrwt>
<pdfrwt beam="1">  1       21 0.50912531E-01 0.45767735E+03</pdfrwt>
<pdfrwt beam="2">  1       21 0.22244177E-01 0.45767735E+03</pdfrwt>
<totfact> 0.64076328E+04</totfact>
</mgrwt>
</event>
<event>
 7    0  0.4793433E-002  0.4622861E+03  0.7546771E-02  0.1024120E+00
         21   -1    0    0  502  501  0.00000000000E+00  0.00000000000E+00  0.12515124077E+03  0.12515124077E+03  0.00000000000E+00 0. -1.
         21   -1    0    0  501  502 -0.00000000000E+00 -0.00000000000E+00 -0.42690031119E+03  0.42690031119E+03  0.00000000000E+00 0. -1.
      99926    2    1    2    0    0  0.00000000000E+00  0.00000000000E+00 -0.30174907042E+03  0.55205155196E+03  0.46228607433E+03 0.  0.
      99925    2    3    3    0    0 -0.88681759339E+02 -0.49558076496E+02 -0.26451386541E+03  0.38665981705E+03  0.26309270560E+03 0.  0.
         25    1    3    3    0    0  0.88681759339E+02  0.49558076496E+02 -0.37235205011E+02  0.16539173491E+03  0.12509000000E+03 0.  0.
         25    1    4    4    0    0 -0.26564445532E+02  0.81980059761E+01 -0.94746126947E+02  0.15936503299E+03  0.12509000000E+03 0.  0.
         25    1    4    4    0    0 -0.62117313807E+02 -0.57756082472E+02 -0.16976773846E+03  0.22729478406E+03  0.12509000000E+03 0.  0.
<mgrwt>
<rscale>  2 0.46228607E+03</rscale>
<asrwt>0</asrwt>
<pdfrwt beam="1">  1       21 0.18404595E-01 0.46228607E+03</pdfrwt>
<pdfrwt beam="2">  1       21 0.62779456E-01 0.46228607E+03</pdfrwt>
<totfact> 0.58297229E+04</totfact>
</mgrwt>
</event>
<event>
 7    0  0.4793433E-002  0.4559915E+03  0.7546771E-02  0.1025950E+00
         21   -1    0    0  502  501  0.00000000000E+00  0.00000000000E+00  0.25677860722E+02  0.25677860722E+02  0.00000000000E+00 0. -1.
         21   -1    0    0  501  502 -0.00000000000E+00 -0.00000000000E+00 -0.20243920265E+04  0.20243920265E+04  0.00000000000E+00 0. -1.
      99926    2    1    2    0    0 -0.14210854715E-13  0.00000000000E+00 -0.19987141658E+04  0.20500698872E+04  0.45599147581E+03 0.  0.
      99925    2    3    3    0    0  0.10201083052E+03 -0.42823215098E+02 -0.13839292573E+04  0.14130078580E+04  0.26285163161E+03 0.  0.
         25    1    4    4    0    0  0.42750602809E+02 -0.40510442799E+02 -0.52046615033E+03  0.53851762436E+03  0.12509000000E+03 0.  0.
         25    1    3    3    0    0 -0.10201083052E+03  0.42823215098E+02 -0.61478490850E+03  0.63706202925E+03  0.12509000000E+03 0.  0.
         25    1    4    4    0    0  0.59260227715E+02 -0.23127722992E+01 -0.86346310693E+03  0.87449023359E+03  0.12509000000E+03 0.  0.
<mgrwt>
<rscale>  2 0.45599148E+03</rscale>
<asrwt>0</asrwt>
<pdfrwt beam="1">  1       21 0.37761556E-02 0.45599148E+03</pdfrwt>
<pdfrwt beam="2">  1       21 0.29770474E+00 0.45599148E+03</pdfrwt>
<totfact> 0.12810546E+04</totfact>
</mgrwt>
</event>
<event>
 7    0  0.4793433E-002  0.4612397E+03  0.7546771E-02  0.1024422E+00
         21   -1    0    0  502  501  0.00000000000E+00  0.00000000000E+00  0.42477902170E+03  0.42477902170E+03  0.00000000000E+00 0. -1.
         21   -1    0    0  501  502 -0.00000000000E+00 -0.00000000000E+00 -0.12520748476E+03  0.12520748476E+03  0.00000000000E+00 0. -1.
      99926    2    1    2    0    0  0.00000000000E+00  0.71054273576E-14  0.29957153694E+03  0.54998650647E+03  0.46123968991E+03 0.  0.
      99925    2    3    3    0    0  0.50362243023E+02  0.58511941170E+02  0.79977163096E+02  0.28573435433E+03  0.26322570514E+03 0.  0.
         25    1    3    3    0    0 -0.50362243023E+02 -0.58511941170E+02  0.21959437385E+03  0.26425215213E+03  0.12509000000E+03 0.  0.
         25    1    4    4    0    0  0.61301926055E+01  0.20375233015E+02  0.14171946925E+01  0.12689462527E+03  0.12509000000E+03 0.  0.
         25    1    4    4    0    0  0.44232050418E+02  0.38136708155E+02  0.78559968403E+02  0.15883972906E+03  0.12509000000E+03 0.  0.
<mgrwt>
<rscale>  2 0.46123969E+03</rscale>
<asrwt>0</asrwt>
<pdfrwt beam="1">  1       21 0.62467503E-01 0.46123969E+03</pdfrwt>
<pdfrwt beam="2">  1       21 0.18412865E-01 0.46123969E+03</pdfrwt>
<totfact> 0.58905030E+04</totfact>
</mgrwt>
</event>
<event>
 7    0  0.4793433E-002  0.4525239E+03  0.7546771E-02  0.1026972E+00
         21   -1    0    0  502  501  0.00000000000E+00  0.00000000000E+00  0.44332729748E+02  0.44332729748E+02  0.00000000000E+00 0.  1.
         21   -1    0    0  501  502 -0.00000000000E+00 -0.00000000000E+00 -0.11547784561E+04  0.11547784561E+04  0.00000000000E+00 0.  1.
      99926    2    1    2    0    0  0.35527136788E-14  0.00000000000E+00 -0.11104457263E+04  0.11991111858E+04  0.45252394947E+03 0.  0.
      99925    2    3    3    0    0  0.21026132230E+02  0.99274108253E+02 -0.81839087647E+03  0.86558309071E+03  0.26300762996E+03 0.  0.
         25    1    3    3    0    0 -0.21026132230E+02 -0.99274108253E+02 -0.29205484983E+03  0.33352809510E+03  0.12509000000E+03 0.  0.
         25    1    4    4    0    0 -0.26960386967E+02  0.42938099801E+02 -0.44010271543E+03  0.46033515085E+03  0.12509000000E+03 0.  0.
         25    1    4    4    0    0  0.47986519197E+02  0.56336008452E+02 -0.37828816104E+03  0.40524793986E+03  0.12509000000E+03 0.  0.
<mgrwt>
<rscale>  2 0.45252395E+03</rscale>
<asrwt>0</asrwt>
<pdfrwt beam="1">  1       21 0.65195183E-02 0.45252395E+03</pdfrwt>
<pdfrwt beam="2">  1       21 0.16982038E+00 0.45252395E+03</pdfrwt>
<totfact> 0.32812468E+04</totfact>
</mgrwt>
</event>
<event>
 7    0  0.4793433E-002  0.4471330E+03  0.7546771E-02  0.1028580E+00
         21   -1    0    0  502  501  0.00000000000E+00  0.00000000000E+00  0.66608131066E+02  0.66608131066E+02  0.00000000000E+00 0. -1.
         21   -1    0    0  501  502 -0.00000000000E+00 -0.00000000000E+00 -0.75038861519E+03  0.75038861519E+03  0.00000000000E+00 0. -1.
      99926    2    1    2    0    0 -0.71054273576E-14  0.00000000000E+00 -0.68378048412E+03  0.81699674625E+03  0.44713301480E+03 0.  0.
      99925    2    3    3    0    0 -0.60307068914E+02 -0.85838509359E+02 -0.41102432077E+03  0.49911528250E+03  0.26300167436E+03 0.  0.
         25    1    4    4    0    0 -0.60371143189E+02 -0.33005874432E+02 -0.25527158716E+03  0.29248103184E+03  0.12509000000E+03 0.  0.
         25    1    4    4    0    0  0.64074274540E-01 -0.52832634927E+02 -0.15575273361E+03  0.20663425066E+03  0.12509000000E+03 0.  0.
         25    1    3    3    0    0  0.60307068914E+02  0.85838509359E+02 -0.27275616335E+03  0.31788146375E+03  0.12509000000E+03 0.  0.
<mgrwt>
<rscale>  2 0.44713301E+03</rscale>
<asrwt>0</asrwt>
<pdfrwt beam="1">  1       21 0.97953133E-02 0.44713301E+03</pdfrwt>
<pdfrwt beam="2">  1       21 0.11035127E+00 0.44713301E+03</pdfrwt>
<totfact> 0.49967536E+04</totfact>
</mgrwt>
</event>
<event>
 7    0  0.4793433E-002  0.4581780E+03  0.7546771E-02  0.1025311E+00
         21   -1    0    0  502  501  0.00000000000E+00  0.00000000000E+00  0.28016356578E+02  0.28016356578E+02  0.00000000000E+00 0.  1.
         21   -1    0    0  501  502 -0.00000000000E+00 -0.00000000000E+00 -0.18732549927E+04  0.18732549927E+04  0.00000000000E+00 0.  1.
      99926    2    1    2    0    0  0.00000000000E+00  0.88817841970E-15 -0.18452386361E+04  0.19012713493E+04  0.45817804328E+03 0.  0.
      99925    2    3    3    0    0 -0.38340908680E+02 -0.40984319776E+01 -0.16124911799E+04  0.16342400611E+04  0.26291814199E+03 0.  0.
         25    1    4    4    0    0 -0.55858622800E+02  0.15581091892E+02 -0.84613840454E+03  0.85729846839E+03  0.12509000000E+03 0.  0.
         25    1    4    4    0    0  0.17517714120E+02 -0.19679523870E+02 -0.76635277540E+03  0.77694159268E+03  0.12509000000E+03 0.  0.
         25    1    3    3    0    0  0.38340908680E+02  0.40984319776E+01 -0.23274745616E+03  0.26703128819E+03  0.12509000000E+03 0.  0.
<mgrwt>
<rscale>  2 0.45817804E+03</rscale>
<asrwt>0</asrwt>
<pdfrwt beam="1">  1       21 0.41200518E-02 0.45817804E+03</pdfrwt>
<pdfrwt beam="2">  1       21 0.27547872E+00 0.45817804E+03</pdfrwt>
<totfact> 0.15015579E+04</totfact>
</mgrwt>
</event>
<event>
 7    0  0.4793433E-002  0.4683865E+03  0.7546771E-02  0.1022377E+00
         21   -1    0    0  502  501  0.00000000000E+00  0.00000000000E+00  0.31453279710E+02  0.31453279710E+02  0.00000000000E+00 0. -1.
         21   -1    0    0  501  502 -0.00000000000E+00 -0.00000000000E+00 -0.17437441901E+04  0.17437441901E+04  0.00000000000E+00 0. -1.
      99926    2    1    2    0    0 -0.44408920985E-15  0.00000000000E+00 -0.17122909103E+04  0.17751974698E+04  0.46838648039E+03 0.  0.
      99925    2    3    3    0    0  0.22470707054E+01 -0.11115777650E+03 -0.84666486859E+03  0.89354161124E+03  0.26308574783E+03 0.  0.
         25    1    4    4    0    0 -0.31727680163E+02 -0.80769362141E+02 -0.43355569836E+03  0.45950885436E+03  0.12509000000E+03 0.  0.
         25    1    4    4    0    0  0.33974750868E+02 -0.30388414363E+02 -0.41310917023E+03  0.43403275689E+03  0.12509000000E+03 0.  0.
         25    1    3    3    0    0 -0.22470707054E+01  0.11115777650E+03 -0.86562604175E+03  0.88165585852E+03  0.12509000000E+03 0.  0.
<mgrwt>
<rscale>  2 0.46838648E+03</rscale>
<asrwt>0</asrwt>
<pdfrwt beam="1">  1       21 0.46254825E-02 0.46838648E+03</pdfrwt>
<pdfrwt beam="2">  1       21 0.25643296E+00 0.46838648E+03</pdfrwt>
<totfact> 0.16011209E+04</totfact>
</mgrwt>
</event>
<event>
 7    0  0.4793433E-002  0.4534764E+03  0.7546771E-02  0.1026690E+00
         21   -1    0    0  502  501  0.00000000000E+00  0.00000000000E+00  0.12225100187E+03  0.12225100187E+03  0.00000000000E+00 0. -1.
         21   -1    0    0  501  502 -0.00000000000E+00 -0.00000000000E+00 -0.42053007133E+03  0.42053007133E+03  0.00000000000E+00 0. -1.
      99926    2    1    2    0    0  0.00000000000E+00  0.00000000000E+00 -0.29827906945E+03  0.54278107320E+03  0.45347644939E+03 0.  0.
      99925    2    3    3    0    0  0.90616441316E+02  0.43789776815E+02 -0.24468357914E+03  0.37352130636E+03  0.26366499277E+03 0.  0.
         25    1    4    4    0    0  0.44878590361E+02  0.45541708401E+02 -0.79835041260E+02  0.16158365323E+03  0.12509000000E+03 0.  0.
         25    1    3    3    0    0 -0.90616441316E+02 -0.43789776815E+02 -0.53595490315E+02  0.16925976684E+03  0.12509000000E+03 0.  0.
         25    1    4    4    0    0  0.45737850955E+02 -0.17519315857E+01 -0.16484853788E+03  0.21193765313E+03  0.12509000000E+03 0.  0.
<mgrwt>
<rscale>  2 0.45347645E+03</rscale>
<asrwt>0</asrwt>
<pdfrwt beam="1">  1       21 0.17978089E-01 0.45347645E+03</pdfrwt>
<pdfrwt beam="2">  1       21 0.61842657E-01 0.45347645E+03</pdfrwt>
<totfact> 0.63103444E+04</totfact>
</mgrwt>
</event>
<event>
 7    0  0.4793433E-002  0.4561818E+03  0.7546771E-02  0.1025894E+00
         21   -1    0    0  502  501  0.00000000000E+00  0.00000000000E+00  0.39617327255E+03  0.39617327255E+03  0.00000000000E+00 0. -1.
         21   -1    0    0  501  502 -0.00000000000E+00 -0.00000000000E+00 -0.13131993304E+03  0.13131993304E+03  0.00000000000E+00 0. -1.
      99926    2    1    2    0    0  0.71054273576E-14  0.14210854715E-13  0.26485333951E+03  0.52749320558E+03  0.45618175159E+03 0.  0.
      99925    2    3    3    0    0  0.54819782571E+02 -0.99086343617E+02  0.14895384365E+03  0.32278972908E+03  0.26302594854E+03 0.  0.
         25    1    4    4    0    0 -0.83813586226E+01 -0.32189070941E+02  0.50648233613E+02  0.13899329167E+03  0.12509000000E+03 0.  0.
         25    1    3    3    0    0 -0.54819782571E+02  0.99086343617E+02  0.11589949586E+03  0.20470347650E+03  0.12509000000E+03 0.  0.
         25    1    4    4    0    0  0.63201141194E+02 -0.66897272676E+02  0.98305610040E+02  0.18379643741E+03  0.12509000000E+03 0.  0.
<mgrwt>
<rscale>  2 0.45618175E+03</rscale>
<asrwt>0</asrwt>
<pdfrwt beam="1">  1       21 0.58260775E-01 0.45618175E+03</pdfrwt>
<pdfrwt beam="2">  1       21 0.19311755E-01 0.45618175E+03</pdfrwt>
<totfact> 0.62786335E+04</totfact>
</mgrwt>
</event>
<event>
 7    0  0.4793433E-002  0.4521221E+03  0.7546771E-02  0.1027091E+00
         21   -1    0    0  502  501  0.00000000000E+00  0.00000000000E+00  0.11438253835E+03  0.11438253835E+03  0.00000000000E+00 0. -1.
         21   -1    0    0  501  502 -0.00000000000E+00 -0.00000000000E+00 -0.44677791332E+03  0.44677791332E+03  0.00000000000E+00 0. -1.
      99926    2    1    2    0    0  0.00000000000E+00  0.14210854715E-13 -0.33239537497E+03  0.56116045167E+03  0.45212207114E+03 0.  0.
      99925    2    3    3    0    0 -0.22843607939E+02  0.10076553376E+03 -0.25804600377E+03  0.38269235840E+03  0.26304025908E+03 0.  0.
         25    1    4    4    0    0 -0.58046194547E+01  0.50950446626E+02 -0.18326720422E+03  0.22773672927E+03  0.12509000000E+03 0.  0.
         25    1    4    4    0    0 -0.17038988484E+02  0.49815087137E+02 -0.74778799550E+02  0.15495562912E+03  0.12509000000E+03 0.  0.
         25    1    3    3    0    0  0.22843607939E+02 -0.10076553376E+03 -0.74349371204E+02  0.17846809327E+03  0.12509000000E+03 0.  0.
<mgrwt>
<rscale>  2 0.45212207E+03</rscale>
<asrwt>0</asrwt>
<pdfrwt beam="1">  1       21 0.16820962E-01 0.45212207E+03</pdfrwt>
<pdfrwt beam="2">  1       21 0.65702634E-01 0.45212207E+03</pdfrwt>
<totfact> 0.62546642E+04</totfact>
</mgrwt>
</event>
<event>
 7    0  0.4793433E-002  0.4519199E+03  0.7546771E-02  0.1027151E+00
         21   -1    0    0  502  501  0.00000000000E+00  0.00000000000E+00  0.49449578922E+03  0.49449578922E+03  0.00000000000E+00 0. -1.
         21   -1    0    0  501  502 -0.00000000000E+00 -0.00000000000E+00 -0.10325243877E+03  0.10325243877E+03  0.00000000000E+00 0. -1.
      99926    2    1    2    0    0  0.00000000000E+00  0.00000000000E+00  0.39124335044E+03  0.59774822799E+03  0.45191988758E+03 0.  0.
      99925    2    3    3    0    0 -0.40830070128E+02 -0.68429903859E+02  0.34710820664E+03  0.44300597329E+03  0.26347758707E+03 0.  0.
         25    1    4    4    0    0 -0.42638919625E+01  0.54194099268E+01  0.14991945374E+03  0.19537374821E+03  0.12509000000E+03 0.  0.
         25    1    3    3    0    0  0.40830070128E+02  0.68429903859E+02  0.44135143807E+02  0.15474225469E+03  0.12509000000E+03 0.  0.
         25    1    4    4    0    0 -0.36566178165E+02 -0.73849313786E+02  0.19718875290E+03  0.24763222509E+03  0.12509000000E+03 0.  0.
<mgrwt>
<rscale>  2 0.45191989E+03</rscale>
<asrwt>0</asrwt>
<pdfrwt beam="1">  1       21 0.72719968E-01 0.45191989E+03</pdfrwt>
<pdfrwt beam="2">  1       21 0.15184182E-01 0.45191989E+03</pdfrwt>
<totfact> 0.60270611E+04</totfact>
</mgrwt>
</event>
<event>
 7    0  0.4793433E-002  0.4562095E+03  0.7546771E-02  0.1025886E+00
         21   -1    0    0  502  501  0.00000000000E+00  0.00000000000E+00  0.11649005286E+03  0.11649005286E+03  0.00000000000E+00 0. -1.
         21   -1    0    0  501  502 -0.00000000000E+00 -0.00000000000E+00 -0.44666277182E+03  0.44666277182E+03  0.00000000000E+00 0. -1.
      99926    2    1    2    0    0  0.00000000000E+00  0.00000000000E+00 -0.33017271896E+03  0.56315282468E+03  0.45620946900E+03 0.  0.
      99925    2    3    3    0    0  0.51516884351E+02 -0.73288899527E+02 -0.29579010226E+03  0.40549837787E+03  0.26251075730E+03 0.  0.
         25    1    4    4    0    0 -0.10319847303E+02 -0.16243208898E+02 -0.13934069580E+03  0.18823835605E+03  0.12509000000E+03 0.  0.
         25    1    3    3    0    0 -0.51516884351E+02  0.73288899527E+02 -0.34382616701E+02  0.15765444681E+03  0.12509000000E+03 0.  0.
         25    1    4    4    0    0  0.61836731654E+02 -0.57045690629E+02 -0.15644940646E+03  0.21726002182E+03  0.12509000000E+03 0.  0.
<mgrwt>
<rscale>  2 0.45620947E+03</rscale>
<asrwt>0</asrwt>
<pdfrwt beam="1">  1       21 0.17130890E-01 0.45620947E+03</pdfrwt>
<pdfrwt beam="2">  1       21 0.65685703E-01 0.45620947E+03</pdfrwt>
<totfact> 0.60425531E+04</totfact>
</mgrwt>
</event>
<event>
 7    0  0.4793433E-002  0.4555646E+03  0.7546771E-02  0.1026076E+00
         21   -1    0    0  502  501  0.00000000000E+00  0.00000000000E+00  0.12027998428E+04  0.12027998428E+04  0.00000000000E+00 0. -1.
         21   -1    0    0  501  502 -0.00000000000E+00 -0.00000000000E+00 -0.43136660121E+02  0.43136660121E+02  0.00000000000E+00 0. -1.
      99926    2    1    2    0    0  0.00000000000E+00  0.00000000000E+00  0.11596631827E+04  0.12459365030E+04  0.45556456409E+03 0.  0.
      99925    2    3    3    0    0 -0.20377102374E+02  0.57216409801E+02  0.46626751937E+03  0.53873497730E+03  0.26294682408E+03 0.  0.
         25    1    4    4    0    0 -0.15359380119E+02 -0.10742615242E+02  0.19700637128E+03  0.23411606687E+03  0.12509000000E+03 0.  0.
         25    1    3    3    0    0  0.20377102374E+02 -0.57216409801E+02  0.69339566334E+03  0.70720152566E+03  0.12509000000E+03 0.  0.
         25    1    4    4    0    0 -0.50177222546E+01  0.67959025043E+02  0.26926114809E+03  0.30461891043E+03  0.12509000000E+03 0.  0.
<mgrwt>
<rscale>  2 0.45556456E+03</rscale>
<asrwt>0</asrwt>
<pdfrwt beam="1">  1       21 0.17688231E+00 0.45556456E+03</pdfrwt>
<pdfrwt beam="2">  1       21 0.63436273E-02 0.45556456E+03</pdfrwt>
<totfact> 0.30591444E+04</totfact>
</mgrwt>
</event>
<event>
 7    0  0.4793433E-002  0.4541179E+03  0.7546771E-02  0.1026501E+00
         21   -1    0    0  502  501  0.00000000000E+00  0.00000000000E+00  0.40302632901E+03  0.40302632901E+03  0.00000000000E+00 0. -1.
         21   -1    0    0  501  502 -0.00000000000E+00 -0.00000000000E+00 -0.12792157807E+03  0.12792157807E+03  0.00000000000E+00 0. -1.
      99926    2    1    2    0    0  0.00000000000E+00  0.14210854715E-13  0.27510475094E+03  0.53094790708E+03  0.45411788782E+03 0.  0.
      99925    2    3    3    0    0  0.49004680318E+01  0.10024450972E+03  0.11417636655E+03  0.30375101159E+03  0.26297425358E+03 0.  0.
         25    1    4    4    0    0  0.31403572308E+02  0.78115591686E+02  0.49073808684E+02  0.15856852404E+03  0.12509000000E+03 0.  0.
         25    1    3    3    0    0 -0.49004680318E+01 -0.10024450972E+03  0.16092838440E+03  0.22719689549E+03  0.12509000000E+03 0.  0.
         25    1    4    4    0    0 -0.26503104276E+02  0.22128918037E+02  0.65102557861E+02  0.14518248755E+03  0.12509000000E+03 0.  0.
<mgrwt>
<rscale>  2 0.45411789E+03</rscale>
<asrwt>0</asrwt>
<pdfrwt beam="1">  1       21 0.59268578E-01 0.45411789E+03</pdfrwt>
<pdfrwt beam="2">  1       21 0.18811997E-01 0.45411789E+03</pdfrwt>
<totfact> 0.63585772E+04</totfact>
</mgrwt>
</event>
<event>
 7    0  0.4793433E-002  0.4133820E+03  0.7546771E-02  0.1039242E+00
         21   -1    0    0  502  501  0.00000000000E+00  0.00000000000E+00  0.13935441537E+04  0.13935441537E+04  0.00000000000E+00 0.  1.
         21   -1    0    0  501  502 -0.00000000000E+00 -0.00000000000E+00 -0.30656486263E+02  0.30656486263E+02  0.00000000000E+00 0.  1.
      99926    2    1    2    0    0  0.00000000000E+00  0.71054273576E-14  0.13628876674E+04  0.14242006399E+04  0.41338198898E+03 0.  0.
      99925    2    3    3    0    0  0.33092039718E+02 -0.45156637992E+02  0.10227636156E+04  0.10575044663E+04  0.26293740277E+03 0.  0.
         25    1    4    4    0    0  0.22933563357E+01 -0.34126354194E+02  0.65392153196E+03  0.66665639245E+03  0.12509000000E+03 0.  0.
         25    1    3    3    0    0 -0.33092039718E+02  0.45156637992E+02  0.34012405174E+03  0.36669617359E+03  0.12509000000E+03 0.  0.
         25    1    4    4    0    0  0.30798683382E+02 -0.11030283798E+02  0.36884208368E+03  0.39084807388E+03  0.12509000000E+03 0.  0.
<mgrwt>
<rscale>  2 0.41338199E+03</rscale>
<asrwt>0</asrwt>
<pdfrwt beam="1">  1       21 0.20493292E+00 0.41338199E+03</pdfrwt>
<pdfrwt beam="2">  1       21 0.45083077E-02 0.41338199E+03</pdfrwt>
<totfact> 0.36005936E+04</totfact>
</mgrwt>
</event>
<event>
 7    0  0.4793433E-002  0.4570330E+03  0.7546771E-02  0.1025645E+00
         21   -1    0    0  502  501  0.00000000000E+00  0.00000000000E+00  0.62313602469E+02  0.62313602469E+02  0.00000000000E+00 0.  1.
         21   -1    0    0  501  502 -0.00000000000E+00 -0.00000000000E+00 -0.83801578956E+03  0.83801578956E+03  0.00000000000E+00 0.  1.
      99926    2    1    2    0    0  0.00000000000E+00  0.00000000000E+00 -0.77570218709E+03  0.90032939203E+03  0.45703296500E+03 0.  0.
      99925    2    3    3    0    0  0.47090092043E+02  0.10275936839E+03 -0.44664639688E+03  0.53059680524E+03  0.26317864908E+03 0.  0.
         25    1    3    3    0    0 -0.47090092043E+02 -0.10275936839E+03 -0.32905579022E+03  0.36973258679E+03  0.12509000000E+03 0.  0.
         25    1    4    4    0    0  0.37057644976E+02  0.93186159017E+02 -0.23931002057E+03  0.28805159838E+03  0.12509000000E+03 0.  0.
         25    1    4    4    0    0  0.10032447067E+02  0.95732093685E+01 -0.20733637630E+03  0.24254520686E+03  0.12509000000E+03 0.  0.
<mgrwt>
<rscale>  2 0.45703296E+03</rscale>
<asrwt>0</asrwt>
<pdfrwt beam="1">  1       21 0.91637649E-02 0.45703296E+03</pdfrwt>
<pdfrwt beam="2">  1       21 0.12323762E+00 0.45703296E+03</pdfrwt>
<totfact> 0.42538312E+04</totfact>
</mgrwt>
</event>
<event>
 7    0  0.4793433E-002  0.4576432E+03  0.7546771E-02  0.1025467E+00
         21   -1    0    0  502  501  0.00000000000E+00  0.00000000000E+00  0.15244905632E+04  0.15244905632E+04  0.00000000000E+00 0.  1.
         21   -1    0    0  501  502 -0.00000000000E+00 -0.00000000000E+00 -0.34345456069E+02  0.34345456069E+02  0.00000000000E+00 0.  1.
      99926    2    1    2    0    0  0.00000000000E+00  0.00000000000E+00  0.14901451071E+04  0.15588360192E+04  0.45764319579E+03 0.  0.
      99925    2    3    3    0    0  0.11670205360E+02  0.11004053395E+03  0.10490148021E+04  0.10871490819E+04  0.26308925928E+03 0.  0.
         25    1    4    4    0    0  0.25691823243E+02  0.93677230487E+02  0.59693577126E+03  0.61758830656E+03  0.12509000000E+03 0.  0.
         25    1    3    3    0    0 -0.11670205360E+02 -0.11004053395E+03  0.44113030496E+03  0.47168693734E+03  0.12509000000E+03 0.  0.
         25    1    4    4    0    0 -0.14021617884E+02  0.16363303466E+02  0.45207903087E+03  0.46956077532E+03  0.12509000000E+03 0.  0.
<mgrwt>
<rscale>  2 0.45764320E+03</rscale>
<asrwt>0</asrwt>
<pdfrwt beam="1">  1       21 0.22418974E+00 0.45764320E+03</pdfrwt>
<pdfrwt beam="2">  1       21 0.50508034E-02 0.45764320E+03</pdfrwt>
<totfact> 0.21919894E+04</totfact>
</mgrwt>
</event>
<event>
 7    0  0.4793433E-002  0.4576495E+03  0.7546771E-02  0.1025465E+00
         21   -1    0    0  502  501  0.00000000000E+00  0.00000000000E+00  0.17440292228E+03  0.17440292228E+03  0.00000000000E+00 0. -1.
         21   -1    0    0  501  502 -0.00000000000E+00 -0.00000000000E+00 -0.30022869070E+03  0.30022869070E+03  0.00000000000E+00 0. -1.
      99926    2    1    2    0    0  0.35527136788E-14  0.14210854715E-13 -0.12582576842E+03  0.47463161298E+03  0.45764947727E+03 0.  0.
      99925    2    3    3    0    0 -0.18269527204E+02 -0.67664337457E+02  0.16285176461E+02  0.27275227540E+03  0.26309001991E+03 0.  0.
         25    1    3    3    0    0  0.18269527204E+02  0.67664337457E+02 -0.14211094488E+03  0.20187933758E+03  0.12509000000E+03 0.  0.
         25    1    4    4    0    0  0.28782498665E+01 -0.62149801641E+02 -0.18905345150E+02  0.14098156738E+03  0.12509000000E+03 0.  0.
         25    1    4    4    0    0 -0.21147777070E+02 -0.55145358160E+01  0.35190521611E+02  0.13177070802E+03  0.12509000000E+03 0.  0.
<mgrwt>
<rscale>  2 0.45764948E+03</rscale>
<asrwt>0</asrwt>
<pdfrwt beam="1">  1       21 0.25647489E-01 0.45764948E+03</pdfrwt>
<pdfrwt beam="2">  1       21 0.44151277E-01 0.45764948E+03</pdfrwt>
<totfact> 0.65700876E+04</totfact>
</mgrwt>
</event>
<event>
 7    0  0.4793433E-002  0.4610470E+03  0.7546771E-02  0.1024478E+00
         21   -1    0    0  502  501  0.00000000000E+00  0.00000000000E+00  0.16733471701E+03  0.16733471701E+03  0.00000000000E+00 0.  1.
         21   -1    0    0  501  502 -0.00000000000E+00 -0.00000000000E+00 -0.31757358917E+03  0.31757358917E+03  0.00000000000E+00 0.  1.
      99926    2    1    2    0    0  0.71054273576E-14 -0.71054273576E-14 -0.15023887216E+03  0.48490830618E+03  0.46104701137E+03 0.  0.
      99925    2    3    3    0    0  0.35881330859E+02  0.63694969376E+02  0.44522141022E+01  0.27296171079E+03  0.26295200003E+03 0.  0.
         25    1    3    3    0    0 -0.35881330859E+02 -0.63694969376E+02 -0.15469108626E+03  0.21194659539E+03  0.12509000000E+03 0.  0.
         25    1    4    4    0    0  0.23035180909E+02  0.68129219320E+02 -0.17110751005E+02  0.14530139705E+03  0.12509000000E+03 0.  0.
         25    1    4    4    0    0  0.12846149950E+02 -0.44342499436E+01  0.21562965107E+02  0.12766031374E+03  0.12509000000E+03 0.  0.
<mgrwt>
<rscale>  2 0.46104701E+03</rscale>
<asrwt>0</asrwt>
<pdfrwt beam="1">  1       21 0.24608047E-01 0.46104701E+03</pdfrwt>
<pdfrwt beam="2">  1       21 0.46701998E-01 0.46104701E+03</pdfrwt>
<totfact> 0.63253411E+04</totfact>
</mgrwt>
</event>
<event>
 7    0  0.4793433E-002  0.4566005E+03  0.7546771E-02  0.1025772E+00
         21   -1    0    0  502  501  0.00000000000E+00  0.00000000000E+00  0.27331073993E+03  0.27331073993E+03  0.00000000000E+00 0.  1.
         21   -1    0    0  501  502 -0.00000000000E+00 -0.00000000000E+00 -0.19070232508E+03  0.19070232508E+03  0.00000000000E+00 0.  1.
      99926    2    1    2    0    0 -0.14210854715E-13  0.71054273576E-14  0.82608414855E+02  0.46401306501E+03  0.45660045367E+03 0.  0.
      99925    2    3    3    0    0  0.69908715163E+02 -0.34084297120E+02 -0.33843732307E+02  0.27624305025E+03  0.26289894794E+03 0.  0.
         25    1    3    3    0    0 -0.69908715163E+02  0.34084297120E+02  0.11645214716E+03  0.18777001476E+03  0.12509000000E+03 0.  0.
         25    1    4    4    0    0  0.19339445125E+02 -0.50857402600E+02 -0.12035165906E+01  0.13641644362E+03  0.12509000000E+03 0.  0.
         25    1    4    4    0    0  0.50569270038E+02  0.16773105480E+02 -0.32640215716E+02  0.13982660663E+03  0.12509000000E+03 0.  0.
<mgrwt>
<rscale>  2 0.45660045E+03</rscale>
<asrwt>0</asrwt>
<pdfrwt beam="1">  1       21 0.40192756E-01 0.45660045E+03</pdfrwt>
<pdfrwt beam="2">  1       21 0.28044459E-01 0.45660045E+03</pdfrwt>
<totfact> 0.67026638E+04</totfact>
</mgrwt>
</event>
<event>
 7    0  0.4793433E-002  0.4541853E+03  0.7546771E-02  0.1026481E+00
         21   -1    0    0  502  501  0.00000000000E+00  0.00000000000E+00  0.10456920668E+03  0.10456920668E+03  0.00000000000E+00 0. -1.
         21   -1    0    0  501  502 -0.00000000000E+00 -0.00000000000E+00 -0.49317636776E+03  0.49317636776E+03  0.00000000000E+00 0. -1.
      99926    2    1    2    0    0  0.00000000000E+00  0.00000000000E+00 -0.38860716108E+03  0.59774557443E+03  0.45418525528E+03 0.  0.
      99925    2    3    3    0    0  0.26199196204E+02  0.71493900753E+02 -0.13616067591E+03  0.30589884805E+03  0.26312848543E+03 0.  0.
         25    1    3    3    0    0 -0.26199196204E+02 -0.71493900753E+02 -0.25244648517E+03  0.29184672638E+03  0.12509000000E+03 0.  0.
         25    1    4    4    0    0  0.12922953316E+02  0.17942317413E+02 -0.24482970366E+02  0.12936712648E+03  0.12509000000E+03 0.  0.
         25    1    4    4    0    0  0.13276242888E+02  0.53551583340E+02 -0.11167770554E+03  0.17653172157E+03  0.12509000000E+03 0.  0.
<mgrwt>
<rscale>  2 0.45418526E+03</rscale>
<asrwt>0</asrwt>
<pdfrwt beam="1">  1       21 0.15377825E-01 0.45418526E+03</pdfrwt>
<pdfrwt beam="2">  1       21 0.72525934E-01 0.45418526E+03</pdfrwt>
<totfact> 0.59197436E+04</totfact>
</mgrwt>
</event>
<event>
 7    0  0.4793433E-002  0.4533363E+03  0.7546771E-02  0.1026732E+00
         21   -1    0    0  502  501  0.00000000000E+00  0.00000000000E+00  0.47374328756E+02  0.47374328756E+02  0.00000000000E+00 0. -1.
         21   -1    0    0  501  502 -0.00000000000E+00 -0.00000000000E+00 -0.10845210749E+04  0.10845210749E+04  0.00000000000E+00 0. -1.
      99926    2    1    2    0    0  0.00000000000E+00 -0.35527136788E-14 -0.10371467461E+04  0.11318954036E+04  0.45333633406E+03 0.  0.
      99925    2    3    3    0    0 -0.87723403314E+02 -0.19808380966E+02 -0.48879369048E+03  0.56231103835E+03  0.26303358065E+03 0.  0.
         25    1    4    4    0    0 -0.30980601358E+02 -0.38257894685E+02 -0.29368567323E+03  0.32298954616E+03  0.12509000000E+03 0.  0.
         25    1    3    3    0    0  0.87723403314E+02  0.19808380966E+02 -0.54835305565E+03  0.56958436529E+03  0.12509000000E+03 0.  0.
         25    1    4    4    0    0 -0.56742801956E+02  0.18449513719E+02 -0.19510801725E+03  0.23932149220E+03  0.12509000000E+03 0.  0.
<mgrwt>
<rscale>  2 0.45333633E+03</rscale>
<asrwt>0</asrwt>
<pdfrwt beam="1">  1       21 0.69668130E-02 0.45333633E+03</pdfrwt>
<pdfrwt beam="2">  1       21 0.15948839E+00 0.45333633E+03</pdfrwt>
<totfact> 0.34842289E+04</totfact>
</mgrwt>
</event>
<event>
 7    0  0.4793433E-002  0.4548311E+03  0.7546771E-02  0.1026291E+00
         21   -1    0    0  502  501  0.00000000000E+00  0.00000000000E+00  0.11408283262E+03  0.11408283262E+03  0.00000000000E+00 0. -1.
         21   -1    0    0  501  502 -0.00000000000E+00 -0.00000000000E+00 -0.45333574419E+03  0.45333574419E+03  0.00000000000E+00 0. -1.
      99926    2    1    2    0    0  0.17763568394E-14  0.00000000000E+00 -0.33925291157E+03  0.56741857681E+03  0.45483107116E+03 0.  0.
      99925    2    3    3    0    0  0.14788194380E+02  0.10151817770E+03 -0.15436097139E+03  0.32174161667E+03  0.26299377809E+03 0.  0.
         25    1    4    4    0    0  0.28573269385E+02  0.45102923177E+02 -0.11556363453E+03  0.17847455597E+03  0.12509000000E+03 0.  0.
         25    1    3    3    0    0 -0.14788194380E+02 -0.10151817770E+03 -0.18489194018E+03  0.24567696013E+03  0.12509000000E+03 0.  0.
         25    1    4    4    0    0 -0.13785075006E+02  0.56415254520E+02 -0.38797336867E+02  0.14326706071E+03  0.12509000000E+03 0.  0.
<mgrwt>
<rscale>  2 0.45483107E+03</rscale>
<asrwt>0</asrwt>
<pdfrwt beam="1">  1       21 0.16776887E-01 0.45483107E+03</pdfrwt>
<pdfrwt beam="2">  1       21 0.66667022E-01 0.45483107E+03</pdfrwt>
<totfact> 0.60811141E+04</totfact>
</mgrwt>
</event>
<event>
 7    0  0.4793433E-002  0.4723703E+03  0.7546771E-02  0.1021253E+00
         21   -1    0    0  502  501  0.00000000000E+00  0.00000000000E+00  0.81723702770E+03  0.81723702770E+03  0.00000000000E+00 0.  1.
         21   -1    0    0  501  502 -0.00000000000E+00 -0.00000000000E+00 -0.68258554023E+02  0.68258554023E+02  0.00000000000E+00 0.  1.
      99926    2    1    2    0    0 -0.14210854715E-13  0.00000000000E+00  0.74897847368E+03  0.88549558172E+03  0.47237026920E+03 0.  0.
      99925    2    3    3    0    0  0.91973982275E+02 -0.83680323958E+02  0.40133980437E+03  0.49567284954E+03  0.26297590225E+03 0.  0.
         25    1    4    4    0    0  0.71338195261E+02 -0.34851922420E+02  0.15544609632E+03  0.21474354835E+03  0.12509000000E+03 0.  0.
         25    1    3    3    0    0 -0.91973982275E+02  0.83680323958E+02  0.34763866931E+03  0.38982273219E+03  0.12509000000E+03 0.  0.
         25    1    4    4    0    0  0.20635787014E+02 -0.48828401538E+02  0.24589370805E+03  0.28092930118E+03  0.12509000000E+03 0.  0.
<mgrwt>
<rscale>  2 0.47237027E+03</rscale>
<asrwt>0</asrwt>
<pdfrwt beam="1">  1       21 0.12018191E+00 0.47237027E+03</pdfrwt>
<pdfrwt beam="2">  1       21 0.10038023E-01 0.47237027E+03</pdfrwt>
<totfact> 0.38374166E+04</totfact>
</mgrwt>
</event>
<event>
 7    0  0.4793433E-002  0.4662421E+03  0.7546771E-02  0.1022986E+00
         21   -1    0    0  502  501  0.00000000000E+00  0.00000000000E+00  0.34762517149E+03  0.34762517149E+03  0.00000000000E+00 0. -1.
         21   -1    0    0  501  502 -0.00000000000E+00 -0.00000000000E+00 -0.15633339117E+03  0.15633339117E+03  0.00000000000E+00 0. -1.
      99926    2    1    2    0    0  0.00000000000E+00  0.00000000000E+00  0.19129178032E+03  0.50395856266E+03  0.46624209126E+03 0.  0.
      99925    2    3    3    0    0  0.57316970125E+02  0.10885739534E+03  0.10794425215E+03  0.30971776845E+03  0.26294099516E+03 0.  0.
         25    1    4    4    0    0  0.54224803974E+02  0.90932428690E+02  0.59480251665E+02  0.17434002521E+03  0.12509000000E+03 0.  0.
         25    1    4    4    0    0  0.30921661513E+01  0.17924966646E+02  0.48464000487E+02  0.13537774324E+03  0.12509000000E+03 0.  0.
         25    1    3    3    0    0 -0.57316970125E+02 -0.10885739534E+03  0.83347528171E+02  0.19424079421E+03  0.12509000000E+03 0.  0.
<mgrwt>
<rscale>  2 0.46624209E+03</rscale>
<asrwt>0</asrwt>
<pdfrwt beam="1">  1       21 0.51121349E-01 0.46624209E+03</pdfrwt>
<pdfrwt beam="2">  1       21 0.22990205E-01 0.46624209E+03</pdfrwt>
<totfact> 0.59503262E+04</totfact>
</mgrwt>
</event>
<event>
 7    0  0.4793433E-002  0.4584733E+03  0.7546771E-02  0.1025225E+00
         21   -1    0    0  502  501  0.00000000000E+00  0.00000000000E+00  0.22754261374E+03  0.22754261374E+03  0.00000000000E+00 0. -1.
         21   -1    0    0  501  502 -0.00000000000E+00 -0.00000000000E+00 -0.23094331043E+03  0.23094331043E+03  0.00000000000E+00 0. -1.
      99926    2    1    2    0    0 -0.71054273576E-14  0.17763568394E-14 -0.34006966893E+01  0.45848592418E+03  0.45847331212E+03 0.  0.
      99925    2    3    3    0    0 -0.51721163519E+02  0.82243850859E+01  0.10167962236E+03  0.28692805983E+03  0.26314681577E+03 0.  0.
         25    1    3    3    0    0  0.51721163519E+02 -0.82243850859E+01 -0.10508031905E+03  0.17155786434E+03  0.12509000000E+03 0.  0.
         25    1    4    4    0    0  0.86174151168E+01  0.13327718597E+02  0.26229591849E+02  0.12879203203E+03  0.12509000000E+03 0.  0.
         25    1    4    4    0    0 -0.60338578636E+02 -0.51033335109E+01  0.75450030512E+02  0.15813602780E+03  0.12509000000E+03 0.  0.
<mgrwt>
<rscale>  2 0.45847331E+03</rscale>
<asrwt>0</asrwt>
<pdfrwt beam="1">  1       21 0.33462149E-01 0.45847331E+03</pdfrwt>
<pdfrwt beam="2">  1       21 0.33962251E-01 0.45847331E+03</pdfrwt>
<totfact> 0.66430960E+04</totfact>
</mgrwt>
</event>
<event>
 7    0  0.4793433E-002  0.4782091E+03  0.7546771E-02  0.1019629E+00
         21   -1    0    0  502  501  0.00000000000E+00  0.00000000000E+00  0.18826160005E+03  0.18826160005E+03  0.00000000000E+00 0.  1.
         21   -1    0    0  501  502 -0.00000000000E+00 -0.00000000000E+00 -0.30367839562E+03  0.30367839562E+03  0.00000000000E+00 0.  1.
      99926    2    1    2    0    0  0.00000000000E+00  0.00000000000E+00 -0.11541679557E+03  0.49193999566E+03  0.47820907837E+03 0.  0.
      99925    2    3    3    0    0 -0.12428636186E+03  0.39628839279E+02 -0.40574921421E+02  0.29632210571E+03  0.26295041631E+03 0.  0.
         25    1    4    4    0    0 -0.19418063068E+02  0.19082837797E+02 -0.29849499127E+02  0.13145233573E+03  0.12509000000E+03 0.  0.
         25    1    3    3    0    0  0.12428636186E+03 -0.39628839279E+02 -0.74841874144E+02  0.19561788996E+03  0.12509000000E+03 0.  0.
         25    1    4    4    0    0 -0.10486829879E+03  0.20546001482E+02 -0.10725422294E+02  0.16486976997E+03  0.12509000000E+03 0.  0.
<mgrwt>
<rscale>  2 0.47820908E+03</rscale>
<asrwt>0</asrwt>
<pdfrwt beam="1">  1       21 0.27685530E-01 0.47820908E+03</pdfrwt>
<pdfrwt beam="2">  1       21 0.44658587E-01 0.47820908E+03</pdfrwt>
<totfact> 0.54989647E+04</totfact>
</mgrwt>
</event>
<event>
 7    0  0.4793433E-002  0.4706424E+03  0.7546771E-02  0.1021739E+00
         21   -1    0    0  502  501  0.00000000000E+00  0.00000000000E+00  0.89867904361E+03  0.89867904361E+03  0.00000000000E+00 0. -1.
         21   -1    0    0  501  502 -0.00000000000E+00 -0.00000000000E+00 -0.61619395283E+02  0.61619395283E+02  0.00000000000E+00 0. -1.
      99926    2    1    2    0    0  0.00000000000E+00  0.00000000000E+00  0.83705964833E+03  0.96029843889E+03  0.47064236622E+03 0.  0.
      99925    2    3    3    0    0 -0.10498062386E+03  0.69406643280E+02  0.48505402071E+03  0.56609838373E+03  0.26334722998E+03 0.  0.
         25    1    3    3    0    0  0.10498062386E+03 -0.69406643280E+02  0.35200562761E+03  0.39420005516E+03  0.12509000000E+03 0.  0.
         25    1    4    4    0    0 -0.26399447782E+02  0.44980252912E+02  0.17114142856E+03  0.21830494878E+03  0.12509000000E+03 0.  0.
         25    1    4    4    0    0 -0.78581176074E+02  0.24426390368E+02  0.31391259216E+03  0.34779343495E+03  0.12509000000E+03 0.  0.
<mgrwt>
<rscale>  2 0.47064237E+03</rscale>
<asrwt>0</asrwt>
<pdfrwt beam="1">  1       21 0.13215868E+00 0.47064237E+03</pdfrwt>
<pdfrwt beam="2">  1       21 0.90616763E-02 0.47064237E+03</pdfrwt>
<totfact> 0.36103492E+04</totfact>
</mgrwt>
</event>
<event>
 7    0  0.4793433E-002  0.4258573E+03  0.7546771E-02  0.1035177E+00
         21   -1    0    0  502  501  0.00000000000E+00  0.00000000000E+00  0.10878256005E+04  0.10878256005E+04  0.00000000000E+00 0. -1.
         21   -1    0    0  501  502 -0.00000000000E+00 -0.00000000000E+00 -0.41678200799E+02  0.41678200799E+02  0.00000000000E+00 0. -1.
      99926    2    1    2    0    0  0.00000000000E+00  0.00000000000E+00  0.10461473997E+04  0.11295038013E+04  0.42585731794E+03 0.  0.
      99925    2    3    3    0    0  0.62857707791E+02  0.36051525030E+02  0.57037686533E+03  0.63225545955E+03  0.26299504511E+03 0.  0.
         25    1    4    4    0    0  0.25673521817E+02  0.53954207642E+02  0.33456253595E+03  0.36214608213E+03  0.12509000000E+03 0.  0.
         25    1    3    3    0    0 -0.62857707791E+02 -0.36051525030E+02  0.47577053436E+03  0.49724834173E+03  0.12509000000E+03 0.  0.
         25    1    4    4    0    0  0.37184185973E+02 -0.17902682612E+02  0.23581432938E+03  0.27010937742E+03  0.12509000000E+03 0.  0.
<mgrwt>
<rscale>  2 0.42585732E+03</rscale>
<asrwt>0</asrwt>
<pdfrwt beam="1">  1       21 0.15997434E+00 0.42585732E+03</pdfrwt>
<pdfrwt beam="2">  1       21 0.61291478E-02 0.42585732E+03</pdfrwt>
<totfact> 0.43560131E+04</totfact>
</mgrwt>
</event>
<event>
 7    0  0.4793433E-002  0.4561694E+03  0.7546771E-02  0.1025898E+00
         21   -1    0    0  502  501  0.00000000000E+00  0.00000000000E+00  0.32200404822E+03  0.32200404822E+03  0.00000000000E+00 0. -1.
         21   -1    0    0  501  502 -0.00000000000E+00 -0.00000000000E+00 -0.16155896422E+03  0.16155896422E+03  0.00000000000E+00 0. -1.
      99926    2    1    2    0    0 -0.44408920985E-15  0.00000000000E+00  0.16044508399E+03  0.48356301244E+03  0.45616944442E+03 0.  0.
      99925    2    3    3    0    0 -0.36844481005E+01  0.73025755677E+02  0.19336085855E+03  0.33497871830E+03  0.26358297354E+03 0.  0.
         25    1    4    4    0    0  0.43720976914E+01  0.21202321967E+02  0.14061831432E+03  0.18944569701E+03  0.12509000000E+03 0.  0.
         25    1    3    3    0    0  0.36844481005E+01 -0.73025755677E+02 -0.32915774560E+02  0.14858429414E+03  0.12509000000E+03 0.  0.
         25    1    4    4    0    0 -0.80565457919E+01  0.51823433710E+02  0.52742544237E+02  0.14553302128E+03  0.12509000000E+03 0.  0.
<mgrwt>
<rscale>  2 0.45616944E+03</rscale>
<asrwt>0</asrwt>
<pdfrwt beam="1">  1       21 0.47353537E-01 0.45616944E+03</pdfrwt>
<pdfrwt beam="2">  1       21 0.23758671E-01 0.45616944E+03</pdfrwt>
<totfact> 0.65828424E+04</totfact>
</mgrwt>
</event>
<event>
 7    0  0.4793433E-002  0.4569618E+03  0.7546771E-02  0.1025666E+00
         21   -1    0    0  502  501  0.00000000000E+00  0.00000000000E+00  0.39653260634E+03  0.39653260634E+03  0.00000000000E+00 0.  1.
         21   -1    0    0  501  502 -0.00000000000E+00 -0.00000000000E+00 -0.13164998537E+03  0.13164998537E+03  0.00000000000E+00 0.  1.
      99926    2    1    2    0    0  0.88817841970E-15  0.00000000000E+00  0.26488262097E+03  0.52818259171E+03  0.45696175692E+03 0.  0.
      99925    2    3    3    0    0  0.30333349808E+01 -0.11502335113E+03  0.16885717835E+03  0.33296997389E+03  0.26290052188E+03 0.  0.
         25    1    4    4    0    0  0.28611152182E+02 -0.35368060437E+02  0.10482096840E+03  0.16942385087E+03  0.12509000000E+03 0.  0.
         25    1    3    3    0    0 -0.30333349808E+01  0.11502335113E+03  0.96025442620E+02  0.19521261782E+03  0.12509000000E+03 0.  0.
         25    1    4    4    0    0 -0.25577817201E+02 -0.79655290690E+02  0.64036209951E+02  0.16354612301E+03  0.12509000000E+03 0.  0.
<mgrwt>
<rscale>  2 0.45696176E+03</rscale>
<asrwt>0</asrwt>
<pdfrwt beam="1">  1       21 0.58313618E-01 0.45696176E+03</pdfrwt>
<pdfrwt beam="2">  1       21 0.19360292E-01 0.45696176E+03</pdfrwt>
<totfact> 0.62354444E+04</totfact>
</mgrwt>
</event>
<event>
 7    0  0.4793433E-002  0.4636955E+03  0.7546771E-02  0.1023715E+00
         21   -1    0    0  502  501  0.00000000000E+00  0.00000000000E+00  0.75282785724E+03  0.75282785724E+03  0.00000000000E+00 0. -1.
         21   -1    0    0  501  502 -0.00000000000E+00 -0.00000000000E+00 -0.71401960320E+02  0.71401960320E+02  0.00000000000E+00 0. -1.
      99926    2    1    2    0    0 -0.71054273576E-14 -0.71054273576E-14  0.68142589692E+03  0.82422981756E+03  0.46369552420E+03 0.  0.
      99925    2    3    3    0    0  0.49833477993E+02 -0.35633563109E+02  0.61127875371E+03  0.66827708065E+03  0.26301980047E+03 0.  0.
         25    1    3    3    0    0 -0.49833477993E+02  0.35633563109E+02  0.70147143214E+02  0.15595273691E+03  0.12509000000E+03 0.  0.
         25    1    4    4    0    0  0.44590533578E+02 -0.51608136714E+02  0.29039477914E+03  0.32346306019E+03  0.12509000000E+03 0.  0.
         25    1    4    4    0    0  0.52429444155E+01  0.15974573606E+02  0.32088397457E+03  0.34481402046E+03  0.12509000000E+03 0.  0.
<mgrwt>
<rscale>  2 0.46369552E+03</rscale>
<asrwt>0</asrwt>
<pdfrwt beam="1">  1       21 0.11070997E+00 0.46369552E+03</pdfrwt>
<pdfrwt beam="2">  1       21 0.10500289E-01 0.46369552E+03</pdfrwt>
<totfact> 0.43565691E+04</totfact>
</mgrwt>
</event>
<event>
 7    0  0.4793433E-002  0.4584572E+03  0.7546771E-02  0.1025230E+00
         21   -1    0    0  502  501  0.00000000000E+00  0.00000000000E+00  0.25957634537E+02  0.25957634537E+02  0.00000000000E+00 0. -1.
         21   -1    0    0  501  502 -0.00000000000E+00 -0.00000000000E+00 -0.20242887276E+04  0.20242887276E+04  0.00000000000E+00 0. -1.
      99926    2    1    2    0    0  0.00000000000E+00  0.00000000000E+00 -0.19983310931E+04  0.20502463621E+04  0.45845718225E+03 0.  0.
      99925    2    3    3    0    0 -0.73481488814E+02 -0.89424181835E+02 -0.11983480029E+04  0.12323119723E+04  0.26298031757E+03 0.  0.
         25    1    3    3    0    0  0.73481488814E+02  0.89424181835E+02 -0.79998309014E+03  0.81793438985E+03  0.12509000000E+03 0.  0.
         25    1    4    4    0    0 -0.14200845760E+02 -0.44309296816E+02 -0.42799069837E+03  0.44831743642E+03  0.12509000000E+03 0.  0.
         25    1    4    4    0    0 -0.59280643053E+02 -0.45114885019E+02 -0.77035730456E+03  0.78399453587E+03  0.12509000000E+03 0.  0.
<mgrwt>
<rscale>  2 0.45845718E+03</rscale>
<asrwt>0</asrwt>
<pdfrwt beam="1">  1       21 0.38172986E-02 0.45845718E+03</pdfrwt>
<pdfrwt beam="2">  1       21 0.29768956E+00 0.45845718E+03</pdfrwt>
<totfact> 0.12566025E+04</totfact>
</mgrwt>
</event>
<event>
 7    0  0.4793433E-002  0.4561857E+03  0.7546771E-02  0.1025893E+00
         21   -1    0    0  502  501  0.00000000000E+00  0.00000000000E+00  0.48749754953E+02  0.48749754953E+02  0.00000000000E+00 0.  1.
         21   -1    0    0  501  502 -0.00000000000E+00 -0.00000000000E+00 -0.10672126496E+04  0.10672126496E+04  0.00000000000E+00 0.  1.
      99926    2    1    2    0    0  0.00000000000E+00  0.00000000000E+00 -0.10184628947E+04  0.11159624046E+04  0.45618573038E+03 0.  0.
      99925    2    3    3    0    0  0.34366798090E+02 -0.51986715897E+02 -0.87451169172E+03  0.91533052183E+03  0.26301248983E+03 0.  0.
         25    1    3    3    0    0 -0.34366798090E+02  0.51986715897E+02 -0.14395120294E+03  0.20063188273E+03  0.12509000000E+03 0.  0.
         25    1    4    4    0    0  0.91047349033E+01  0.88247266001E+01 -0.48236396554E+03  0.49848096789E+03  0.12509000000E+03 0.  0.
         25    1    4    4    0    0  0.25262063187E+02 -0.60811442497E+02 -0.39214772618E+03  0.41684955394E+03  0.12509000000E+03 0.  0.
<mgrwt>
<rscale>  2 0.45618573E+03</rscale>
<asrwt>0</asrwt>
<pdfrwt beam="1">  1       21 0.71690821E-02 0.45618573E+03</pdfrwt>
<pdfrwt beam="2">  1       21 0.15694303E+00 0.45618573E+03</pdfrwt>
<totfact> 0.34618166E+04</totfact>
</mgrwt>
</event>
<event>
 7    0  0.4793433E-002  0.4532288E+03  0.7546771E-02  0.1026764E+00
         21   -1    0    0  502  501  0.00000000000E+00  0.00000000000E+00  0.71927570086E+02  0.71927570086E+02  0.00000000000E+00 0. -1.
         21   -1    0    0  501  502 -0.00000000000E+00 -0.00000000000E+00 -0.71396949572E+03  0.71396949572E+03  0.00000000000E+00 0. -1.
      99926    2    1    2    0    0  0.00000000000E+00  0.00000000000E+00 -0.64204192563E+03  0.78589706581E+03  0.45322882054E+03 0.  0.
      99925    2    3    3    0    0  0.83414362727E+02  0.86115718198E+01 -0.53210498725E+03  0.59944129733E+03  0.26298676089E+03 0.  0.
         25    1    4    4    0    0  0.73708638468E+02 -0.21402735347E+02 -0.27000492713E+03  0.30731288493E+03  0.12509000000E+03 0.  0.
         25    1    4    4    0    0  0.97057242588E+01  0.30014307167E+02 -0.26210006012E+03  0.29212841240E+03  0.12509000000E+03 0.  0.
         25    1    3    3    0    0 -0.83414362727E+02 -0.86115718198E+01 -0.10993693838E+03  0.18645576848E+03  0.12509000000E+03 0.  0.
<mgrwt>
<rscale>  2 0.45322882E+03</rscale>
<asrwt>0</asrwt>
<pdfrwt beam="1">  1       21 0.10577583E-01 0.45322882E+03</pdfrwt>
<pdfrwt beam="2">  1       21 0.10499552E+00 0.45322882E+03</pdfrwt>
<totfact> 0.49134033E+04</totfact>
</mgrwt>
</event>
<event>
 7    0  0.4793433E-002  0.4557211E+03  0.7546771E-02  0.1026030E+00
         21   -1    0    0  502  501  0.00000000000E+00  0.00000000000E+00  0.35293394576E+03  0.35293394576E+03  0.00000000000E+00 0. -1.
         21   -1    0    0  501  502 -0.00000000000E+00 -0.00000000000E+00 -0.14711090486E+03  0.14711090486E+03  0.00000000000E+00 0. -1.
      99926    2    1    2    0    0  0.00000000000E+00  0.00000000000E+00  0.20582304089E+03  0.50004485062E+03  0.45572110821E+03 0.  0.
      99925    2    3    3    0    0  0.65159952468E+02 -0.47861686768E+02  0.21734596975E+03  0.35065660993E+03  0.26302894718E+03 0.  0.
         25    1    3    3    0    0 -0.65159952468E+02  0.47861686768E+02 -0.11522928858E+02  0.14938824069E+03  0.12509000000E+03 0.  0.
         25    1    4    4    0    0  0.14137896503E+02 -0.25373495381E+02  0.15177764457E+03  0.19881563287E+03  0.12509000000E+03 0.  0.
         25    1    4    4    0    0  0.51022055965E+02 -0.22488191387E+02  0.65568325188E+02  0.15184097706E+03  0.12509000000E+03 0.  0.
<mgrwt>
<rscale>  2 0.45572111E+03</rscale>
<asrwt>0</asrwt>
<pdfrwt beam="1">  1       21 0.51902051E-01 0.45572111E+03</pdfrwt>
<pdfrwt beam="2">  1       21 0.21633957E-01 0.45572111E+03</pdfrwt>
<totfact> 0.64895239E+04</totfact>
</mgrwt>
</event>
<event>
 7    0  0.4793433E-002  0.4555095E+03  0.7546771E-02  0.1026092E+00
         21   -1    0    0  502  501  0.00000000000E+00  0.00000000000E+00  0.14385132805E+03  0.14385132805E+03  0.00000000000E+00 0. -1.
         21   -1    0    0  501  502 -0.00000000000E+00 -0.00000000000E+00 -0.36059613455E+03  0.36059613455E+03  0.00000000000E+00 0. -1.
      99926    2    1    2    0    0  0.00000000000E+00  0.71054273576E-14 -0.21674480650E+03  0.50444746260E+03  0.45550952940E+03 0.  0.
      99925    2    3    3    0    0 -0.33142457267E+02 -0.49598636276E+02 -0.24363446317E+03  0.36327732081E+03  0.26278168311E+03 0.  0.
         25    1    4    4    0    0 -0.31575781415E+02  0.10827538440E+02 -0.13372542168E+03  0.18612969152E+03  0.12509000000E+03 0.  0.
         25    1    4    4    0    0 -0.15666758528E+01 -0.60426174716E+02 -0.10990904149E+03  0.17714762930E+03  0.12509000000E+03 0.  0.
         25    1    3    3    0    0  0.33142457267E+02  0.49598636276E+02  0.26889656677E+02  0.14117014178E+03  0.12509000000E+03 0.  0.
<mgrwt>
<rscale>  2 0.45550953E+03</rscale>
<asrwt>0</asrwt>
<pdfrwt beam="1">  1       21 0.21154608E-01 0.45550953E+03</pdfrwt>
<pdfrwt beam="2">  1       21 0.53028842E-01 0.45550953E+03</pdfrwt>
<totfact> 0.64697276E+04</totfact>
</mgrwt>
</event>
<event>
 7    0  0.4793433E-002  0.4556494E+03  0.7546771E-02  0.1026051E+00
         21   -1    0    0  502  501  0.00000000000E+00  0.00000000000E+00  0.63485937328E+03  0.63485937328E+03  0.00000000000E+00 0. -1.
         21   -1    0    0  501  502 -0.00000000000E+00 -0.00000000000E+00 -0.81756833952E+02  0.81756833952E+02  0.00000000000E+00 0. -1.
      99926    2    1    2    0    0  0.00000000000E+00 -0.35527136788E-14  0.55310253932E+03  0.71661620723E+03  0.45564939313E+03 0.  0.
      99925    2    3    3    0    0 -0.10079633446E+03 -0.23075866803E+02  0.42256587189E+03  0.50833820476E+03  0.26297037411E+03 0.  0.
         25    1    4    4    0    0 -0.37439362901E+02 -0.44175656119E+02  0.24485031366E+03  0.28098465917E+03  0.12509000000E+03 0.  0.
         25    1    3    3    0    0  0.10079633446E+03  0.23075866803E+02  0.13053666743E+03  0.20827800247E+03  0.12509000000E+03 0.  0.
         25    1    4    4    0    0 -0.63356971559E+02  0.21099789317E+02  0.17771555823E+03  0.22735354559E+03  0.12509000000E+03 0.  0.
<mgrwt>
<rscale>  2 0.45564939E+03</rscale>
<asrwt>0</asrwt>
<pdfrwt beam="1">  1       21 0.93361670E-01 0.45564939E+03</pdfrwt>
<pdfrwt beam="2">  1       21 0.12023064E-01 0.45564939E+03</pdfrwt>
<totfact> 0.51745268E+04</totfact>
</mgrwt>
</event>
<event>
 7    0  0.4793433E-002  0.4237737E+03  0.7546771E-02  0.1035845E+00
         21   -1    0    0  502  501  0.00000000000E+00  0.00000000000E+00  0.12804228142E+03  0.12804228142E+03  0.00000000000E+00 0.  1.
         21   -1    0    0  501  502 -0.00000000000E+00 -0.00000000000E+00 -0.35063442814E+03  0.35063442814E+03  0.00000000000E+00 0.  1.
      99926    2    1    2    0    0 -0.71054273576E-14  0.00000000000E+00 -0.22259214671E+03  0.47867670956E+03  0.42377367603E+03 0.  0.
      99925    2    3    3    0    0  0.38198703437E+02 -0.46443133038E+02 -0.20496166448E+03  0.33876799805E+03  0.26294175600E+03 0.  0.
         25    1    3    3    0    0 -0.38198703437E+02  0.46443133038E+02 -0.17630482231E+02  0.13990871150E+03  0.12509000000E+03 0.  0.
         25    1    4    4    0    0  0.87555918259E+01  0.15869007235E+02 -0.85806456840E+02  0.15277022588E+03  0.12509000000E+03 0.  0.
         25    1    4    4    0    0  0.29443111611E+02 -0.62312140273E+02 -0.11915520764E+03  0.18599777218E+03  0.12509000000E+03 0.  0.
<mgrwt>
<rscale>  2 0.42377368E+03</rscale>
<asrwt>0</asrwt>
<pdfrwt beam="1">  1       21 0.18829748E-01 0.42377368E+03</pdfrwt>
<pdfrwt beam="2">  1       21 0.51563885E-01 0.42377368E+03</pdfrwt>
<totfact> 0.86280364E+04</totfact>
</mgrwt>
</event>
<event>
 7    0  0.4793433E-002  0.4612211E+03  0.7546771E-02  0.1024428E+00
         21   -1    0    0  502  501  0.00000000000E+00  0.00000000000E+00  0.11940517113E+04  0.11940517113E+04  0.00000000000E+00 0.  1.
         21   -1    0    0  501  502 -0.00000000000E+00 -0.00000000000E+00 -0.44538468195E+02  0.44538468195E+02  0.00000000000E+00 0.  1.
      99926    2    1    2    0    0  0.00000000000E+00 -0.35527136788E-14  0.11495132431E+04  0.12385901795E+04  0.46122113641E+03 0.  0.
      99925    2    3    3    0    0  0.11501499050E+03  0.18443846270E+02  0.78328907172E+03  0.83444135132E+03  0.26302466694E+03 0.  0.
         25    1    4    4    0    0  0.20659897617E+02  0.16265775583E+02  0.29159678748E+03  0.31838279067E+03  0.12509000000E+03 0.  0.
         25    1    4    4    0    0  0.94355092886E+02  0.21780706870E+01  0.49169228423E+03  0.51605856065E+03  0.12509000000E+03 0.  0.
         25    1    3    3    0    0 -0.11501499050E+03 -0.18443846270E+02  0.36622417140E+03  0.40414882818E+03  0.12509000000E+03 0.  0.
<mgrwt>
<rscale>  2 0.46122114E+03</rscale>
<asrwt>0</asrwt>
<pdfrwt beam="1">  1       21 0.17559582E+00 0.46122114E+03</pdfrwt>
<pdfrwt beam="2">  1       21 0.65497755E-02 0.46122114E+03</pdfrwt>
<totfact> 0.29496891E+04</totfact>
</mgrwt>
</event>
<event>
 7    0  0.4793433E-002  0.4647368E+03  0.7546771E-02  0.1023416E+00
         21   -1    0    0  502  501  0.00000000000E+00  0.00000000000E+00  0.49635397662E+03  0.49635397662E+03  0.00000000000E+00 0.  1.
         21   -1    0    0  501  502 -0.00000000000E+00 -0.00000000000E+00 -0.10878340091E+03  0.10878340091E+03  0.00000000000E+00 0.  1.
      99926    2    1    2    0    0  0.00000000000E+00  0.00000000000E+00  0.38757057572E+03  0.60513737753E+03  0.46473680134E+03 0.  0.
      99925    2    3    3    0    0 -0.93839017254E+02 -0.75279181075E+02  0.26891246513E+03  0.39489948473E+03  0.26298093633E+03 0.  0.
         25    1    4    4    0    0 -0.10944833912E+02 -0.39314325539E+02  0.94354661891E+02  0.16191267987E+03  0.12509000000E+03 0.  0.
         25    1    4    4    0    0 -0.82894183342E+02 -0.35964855536E+02  0.17455780324E+03  0.23298680486E+03  0.12509000000E+03 0.  0.
         25    1    3    3    0    0  0.93839017254E+02  0.75279181075E+02  0.11865811059E+03  0.21023789280E+03  0.12509000000E+03 0.  0.
<mgrwt>
<rscale>  2 0.46473680E+03</rscale>
<asrwt>0</asrwt>
<pdfrwt beam="1">  1       21 0.72993231E-01 0.46473680E+03</pdfrwt>
<pdfrwt beam="2">  1       21 0.15997559E-01 0.46473680E+03</pdfrwt>
<totfact> 0.54081311E+04</totfact>
</mgrwt>
</event>
<event>
 7    0  0.4793433E-002  0.4457160E+03  0.7546771E-02  0.1029007E+00
         21   -1    0    0  502  501  0.00000000000E+00  0.00000000000E+00  0.14202504208E+03  0.14202504208E+03  0.00000000000E+00 0. -1.
         21   -1    0    0  501  502 -0.00000000000E+00 -0.00000000000E+00 -0.34969664750E+03  0.34969664750E+03  0.00000000000E+00 0. -1.
      99926    2    1    2    0    0  0.00000000000E+00  0.00000000000E+00 -0.20767160542E+03  0.49172168959E+03  0.44571596821E+03 0.  0.
      99925    2    3    3    0    0 -0.39971521601E+02  0.62136447515E+02 -0.50499731931E+02  0.27769092880E+03  0.26287519541E+03 0.  0.
         25    1    3    3    0    0  0.39971521601E+02 -0.62136447515E+02 -0.15717187349E+03  0.21403076079E+03  0.12509000000E+03 0.  0.
         25    1    4    4    0    0  0.38086303878E+01  0.19207621174E+02  0.73978736758E+01  0.12682931448E+03  0.12509000000E+03 0.  0.
         25    1    4    4    0    0 -0.43780151989E+02  0.42928826342E+02 -0.57897605607E+02  0.15086161432E+03  0.12509000000E+03 0.  0.
<mgrwt>
<rscale>  2 0.44571597E+03</rscale>
<asrwt>0</asrwt>
<pdfrwt beam="1">  1       21 0.20886036E-01 0.44571597E+03</pdfrwt>
<pdfrwt beam="2">  1       21 0.51425976E-01 0.44571597E+03</pdfrwt>
<totfact> 0.70942270E+04</totfact>
</mgrwt>
</event>
<event>
 7    0  0.4793433E-002  0.4730288E+03  0.7546771E-02  0.1021069E+00
         21   -1    0    0  502  501  0.00000000000E+00  0.00000000000E+00  0.29306420421E+03  0.29306420421E+03  0.00000000000E+00 0. -1.
         21   -1    0    0  501  502 -0.00000000000E+00 -0.00000000000E+00 -0.19087644438E+03  0.19087644438E+03  0.00000000000E+00 0. -1.
      99926    2    1    2    0    0  0.00000000000E+00 -0.17763568394E-14  0.10218775982E+03  0.48394064859E+03  0.47302876561E+03 0.  0.
      99925    2    3    3    0    0  0.64152294514E+01 -0.97659632443E+01  0.19495995332E+03  0.32776537144E+03  0.26321896989E+03 0.  0.
         25    1    3    3    0    0 -0.64152294514E+01  0.97659632443E+01 -0.92772193492E+02  0.15617527715E+03  0.12509000000E+03 0.  0.
         25    1    4    4    0    0  0.36125588638E+02 -0.28896218762E+02  0.93727561066E+02  0.16301047027E+03  0.12509000000E+03 0.  0.
         25    1    4    4    0    0 -0.29710359187E+02  0.19130255518E+02  0.10123239225E+03  0.16475490117E+03  0.12509000000E+03 0.  0.
<mgrwt>
<rscale>  2 0.47302877E+03</rscale>
<asrwt>0</asrwt>
<pdfrwt beam="1">  1       21 0.43097678E-01 0.47302877E+03</pdfrwt>
<pdfrwt beam="2">  1       21 0.28070065E-01 0.47302877E+03</pdfrwt>
<totfact> 0.57703421E+04</totfact>
</mgrwt>
</event>
<event>
 7    0  0.4793433E-002  0.4555705E+03  0.7546771E-02  0.1026074E+00
         21   -1    0    0  502  501  0.00000000000E+00  0.00000000000E+00  0.34834167879E+02  0.34834167879E+02  0.00000000000E+00 0. -1.
         21   -1    0    0  501  502 -0.00000000000E+00 -0.00000000000E+00 -0.14895177242E+04  0.14895177242E+04  0.00000000000E+00 0. -1.
      99926    2    1    2    0    0  0.14210854715E-13  0.00000000000E+00 -0.14546835563E+04  0.15243518920E+04  0.45557045761E+03 0.  0.
      99925    2    3    3    0    0 -0.94859465946E+02 -0.63005294338E+02 -0.90575089470E+03  0.94994562427E+03  0.26276228884E+03 0.  0.
         25    1    3    3    0    0  0.94859465946E+02  0.63005294338E+02 -0.54893266159E+03  0.57440626777E+03  0.12509000000E+03 0.  0.
         25    1    4    4    0    0 -0.84242769183E+02 -0.44538431588E+02 -0.55940710779E+03  0.58108892297E+03  0.12509000000E+03 0.  0.
         25    1    4    4    0    0 -0.10616696763E+02 -0.18466862749E+02 -0.34634378690E+03  0.36885670130E+03  0.12509000000E+03 0.  0.
<mgrwt>
<rscale>  2 0.45557046E+03</rscale>
<asrwt>0</asrwt>
<pdfrwt beam="1">  1       21 0.51226720E-02 0.45557046E+03</pdfrwt>
<pdfrwt beam="2">  1       21 0.21904671E+00 0.45557046E+03</pdfrwt>
<totfact> 0.23086101E+04</totfact>
</mgrwt>
</event>
<event>
 7    0  0.4793433E-002  0.4579164E+03  0.7546771E-02  0.1025387E+00
         21   -1    0    0  502  501  0.00000000000E+00  0.00000000000E+00  0.68580331103E+02  0.68580331103E+02  0.00000000000E+00 0. -1.
         21   -1    0    0  501  502 -0.00000000000E+00 -0.00000000000E+00 -0.76438621132E+03  0.76438621132E+03  0.00000000000E+00 0. -1.
      99926    2    1    2    0    0  0.00000000000E+00  0.71054273576E-14 -0.69580588022E+03  0.83296654243E+03  0.45791640924E+03 0.  0.
      99925    2    3    3    0    0 -0.10073585645E+03 -0.50295306743E+02 -0.48548751005E+03  0.56359940340E+03  0.26318973089E+03 0.  0.
         25    1    4    4    0    0 -0.51965881626E+02 -0.35654750238E+02 -0.32465393576E+03  0.35358082551E+03  0.12509000000E+03 0.  0.
         25    1    4    4    0    0 -0.48769974822E+02 -0.14640556505E+02 -0.16083357429E+03  0.21001857789E+03  0.12509000000E+03 0.  0.
         25    1    3    3    0    0  0.10073585645E+03  0.50295306743E+02 -0.21031837017E+03  0.26936713902E+03  0.12509000000E+03 0.  0.
<mgrwt>
<rscale>  2 0.45791641E+03</rscale>
<asrwt>0</asrwt>
<pdfrwt beam="1">  1       21 0.10085343E-01 0.45791641E+03</pdfrwt>
<pdfrwt beam="2">  1       21 0.11240974E+00 0.45791641E+03</pdfrwt>
<totfact> 0.45168774E+04</totfact>
</mgrwt>
</event>
<event>
 7    0  0.4793433E-002  0.4537628E+03  0.7546771E-02  0.1026606E+00
         21   -1    0    0  502  501  0.00000000000E+00  0.00000000000E+00  0.92947864778E+03  0.92947864778E+03  0.00000000000E+00 0.  1.
         21   -1    0    0  501  502 -0.00000000000E+00 -0.00000000000E+00 -0.55380681252E+02  0.55380681252E+02  0.00000000000E+00 0.  1.
      99926    2    1    2    0    0  0.00000000000E+00  0.00000000000E+00  0.87409796653E+03  0.98485932903E+03  0.45376276059E+03 0.  0.
      99925    2    3    3    0    0 -0.51896898410E+02 -0.47590964218E+02  0.36183674722E+03  0.45286567038E+03  0.26306519312E+03 0.  0.
         25    1    4    4    0    0 -0.33081428741E+02  0.15465882773E+02  0.15772252171E+03  0.20459099787E+03  0.12509000000E+03 0.  0.
         25    1    3    3    0    0  0.51896898410E+02  0.47590964218E+02  0.51226121930E+03  0.53199365865E+03  0.12509000000E+03 0.  0.
         25    1    4    4    0    0 -0.18815469669E+02 -0.63056846991E+02  0.20411422552E+03  0.24827467251E+03  0.12509000000E+03 0.  0.
<mgrwt>
<rscale>  2 0.45376276E+03</rscale>
<asrwt>0</asrwt>
<pdfrwt beam="1">  1       21 0.13668803E+00 0.45376276E+03</pdfrwt>
<pdfrwt beam="2">  1       21 0.81442184E-02 0.45376276E+03</pdfrwt>
<totfact> 0.40147122E+04</totfact>
</mgrwt>
</event>
<event>
 7    0  0.4793433E-002  0.4349859E+03  0.7546771E-02  0.1032296E+00
         21   -1    0    0  502  501  0.00000000000E+00  0.00000000000E+00  0.21625383517E+03  0.21625383517E+03  0.00000000000E+00 0. -1.
         21   -1    0    0  501  502 -0.00000000000E+00 -0.00000000000E+00 -0.21873921208E+03  0.21873921208E+03  0.00000000000E+00 0. -1.
      99926    2    1    2    0    0  0.31086244690E-14  0.35527136788E-14 -0.24853769086E+01  0.43499304725E+03  0.43498594696E+03 0.  0.
      99925    2    3    3    0    0 -0.22958953838E+01 -0.29688640972E+02  0.86502655957E+02  0.27861829023E+03  0.26317058275E+03 0.  0.
         25    1    4    4    0    0 -0.34930945604E+02 -0.61751979332E+01  0.65375238180E+02  0.14553258706E+03  0.12509000000E+03 0.  0.
         25    1    4    4    0    0  0.32635050220E+02 -0.23513443039E+02  0.21127417777E+02  0.13308570317E+03  0.12509000000E+03 0.  0.
         25    1    3    3    0    0  0.22958953838E+01  0.29688640972E+02 -0.88988032865E+02  0.15637475702E+03  0.12509000000E+03 0.  0.
<mgrwt>
<rscale>  2 0.43498595E+03</rscale>
<asrwt>0</asrwt>
<pdfrwt beam="1">  1       21 0.31802035E-01 0.43498595E+03</pdfrwt>
<pdfrwt beam="2">  1       21 0.32167531E-01 0.43498595E+03</pdfrwt>
<totfact> 0.82435543E+04</totfact>
</mgrwt>
</event>
<event>
 6    0  0.4793433E-002  0.4522711E+03  0.7546771E-02  0.1027047E+00
         21   -1    0    0  502  501  0.00000000000E+00  0.00000000000E+00  0.53986323317E+03  0.53986323317E+03  0.00000000000E+00 0. -1.
         21   -1    0    0  501  502 -0.00000000000E+00 -0.00000000000E+00 -0.94722677152E+02  0.94722677152E+02  0.00000000000E+00 0. -1.
      99926    2    1    2    0    0  0.35527136788E-14  0.00000000000E+00  0.44514055602E+03  0.63458591033E+03  0.45227111667E+03 0.  0.
         25    1    3    3    0    0  0.32661943930E+01 -0.80480617035E+02  0.16834034547E+03  0.22466369924E+03  0.12509000000E+03 0.  0.
         25    1    3    3    0    0  0.46480238440E+02  0.26511185598E+02  0.59104227383E+02  0.14833770027E+03  0.12509000000E+03 0.  0.
         25    1    3    3    0    0 -0.49746432833E+02  0.53969431437E+02  0.21769598317E+03  0.26158451082E+03  0.12509000000E+03 0.  0.
<mgrwt>
<rscale>  2 0.45227112E+03</rscale>
<asrwt>0</asrwt>
<pdfrwt beam="1">  1       21 0.79391651E-01 0.45227112E+03</pdfrwt>
<pdfrwt beam="2">  1       21 0.13929806E-01 0.45227112E+03</pdfrwt>
<totfact> 0.57833970E+04</totfact>
</mgrwt>
</event>
<event>
 7    0  0.4793433E-002  0.4517764E+03  0.7546771E-02  0.1027194E+00
         21   -1    0    0  502  501  0.00000000000E+00  0.00000000000E+00  0.30271432569E+03  0.30271432569E+03  0.00000000000E+00 0. -1.
         21   -1    0    0  501  502 -0.00000000000E+00 -0.00000000000E+00 -0.16855983336E+03  0.16855983336E+03  0.00000000000E+00 0. -1.
      99926    2    1    2    0    0  0.00000000000E+00 -0.14210854715E-13  0.13415449233E+03  0.47127415904E+03  0.45177638846E+03 0.  0.
      99925    2    3    3    0    0 -0.69543168953E+02 -0.72273102887E+02  0.13182820733E+03  0.31092275290E+03  0.26312473901E+03 0.  0.
         25    1    4    4    0    0  0.24988469106E+01 -0.50131103294E+02  0.74746304100E+02  0.15412296983E+03  0.12509000000E+03 0.  0.
         25    1    4    4    0    0 -0.72042015864E+02 -0.22141999593E+02  0.57081903226E+02  0.15679978307E+03  0.12509000000E+03 0.  0.
         25    1    3    3    0    0  0.69543168953E+02  0.72273102887E+02  0.23262850064E+01  0.16035140614E+03  0.12509000000E+03 0.  0.
<mgrwt>
<rscale>  2 0.45177639E+03</rscale>
<asrwt>0</asrwt>
<pdfrwt beam="1">  1       21 0.44516813E-01 0.45177639E+03</pdfrwt>
<pdfrwt beam="2">  1       21 0.24788211E-01 0.45177639E+03</pdfrwt>
<totfact> 0.69091492E+04</totfact>
</mgrwt>
</event>
<event>
 7    0  0.4793433E-002  0.4523604E+03  0.7546771E-02  0.1027020E+00
         21   -1    0    0  502  501  0.00000000000E+00  0.00000000000E+00  0.15616662787E+03  0.15616662787E+03  0.00000000000E+00 0. -1.
         21   -1    0    0  501  502 -0.00000000000E+00 -0.00000000000E+00 -0.32758267627E+03  0.32758267627E+03  0.00000000000E+00 0. -1.
      99926    2    1    2    0    0  0.00000000000E+00  0.00000000000E+00 -0.17141604840E+03  0.48374930415E+03  0.45236039572E+03 0.  0.
      99925    2    3    3    0    0  0.16611032490E+02  0.13345391699E+02  0.79574540744E+01  0.26403042155E+03  0.26304888623E+03 0.  0.
         25    1    4    4    0    0  0.23993356157E+02  0.36072779241E+02  0.27448117765E+02  0.13519553917E+03  0.12509000000E+03 0.  0.
         25    1    4    4    0    0 -0.73823236670E+01 -0.22727387542E+02 -0.19490663691E+02  0.12883488238E+03  0.12509000000E+03 0.  0.
         25    1    3    3    0    0 -0.16611032490E+02 -0.13345391699E+02 -0.17937350247E+03  0.21971888260E+03  0.12509000000E+03 0.  0.
<mgrwt>
<rscale>  2 0.45236040E+03</rscale>
<asrwt>0</asrwt>
<pdfrwt beam="1">  1       21 0.22965681E-01 0.45236040E+03</pdfrwt>
<pdfrwt beam="2">  1       21 0.48173922E-01 0.45236040E+03</pdfrwt>
<totfact> 0.67838577E+04</totfact>
</mgrwt>
</event>
<event>
 7    0  0.4793433E-002  0.4550313E+03  0.7546771E-02  0.1026232E+00
         21   -1    0    0  502  501  0.00000000000E+00  0.00000000000E+00  0.14338739101E+03  0.14338739101E+03  0.00000000000E+00 0.  1.
         21   -1    0    0  501  502 -0.00000000000E+00 -0.00000000000E+00 -0.36100370146E+03  0.36100370146E+03  0.00000000000E+00 0.  1.
      99926    2    1    2    0    0  0.00000000000E+00  0.71054273576E-14 -0.21761631045E+03  0.50439109247E+03  0.45503133473E+03 0.  0.
      99925    2    3    3    0    0  0.64244709474E+02 -0.60959764845E+02 -0.59011972843E+02  0.28383198558E+03  0.26312488950E+03 0.  0.
         25    1    4    4    0    0  0.51298806486E+02 -0.68348696138E+02 -0.27420246857E+02  0.15395612962E+03  0.12509000000E+03 0.  0.
         25    1    3    3    0    0 -0.64244709474E+02  0.60959764845E+02 -0.15860433760E+03  0.22055910689E+03  0.12509000000E+03 0.  0.
         25    1    4    4    0    0  0.12945902988E+02  0.73889312935E+01 -0.31591725986E+02  0.12987585596E+03  0.12509000000E+03 0.  0.
<mgrwt>
<rscale>  2 0.45503133E+03</rscale>
<asrwt>0</asrwt>
<pdfrwt beam="1">  1       21 0.21086381E-01 0.45503133E+03</pdfrwt>
<pdfrwt beam="2">  1       21 0.53088779E-01 0.45503133E+03</pdfrwt>
<totfact> 0.64947108E+04</totfact>
</mgrwt>
</event>
<event>
 7    0  0.4793433E-002  0.4543066E+03  0.7546771E-02  0.1026446E+00
         21   -1    0    0  502  501  0.00000000000E+00  0.00000000000E+00  0.27855992064E+03  0.27855992064E+03  0.00000000000E+00 0.  1.
         21   -1    0    0  501  502 -0.00000000000E+00 -0.00000000000E+00 -0.18523344358E+03  0.18523344358E+03  0.00000000000E+00 0.  1.
      99926    2    1    2    0    0  0.00000000000E+00  0.00000000000E+00  0.93326477065E+02  0.46379336422E+03  0.45430656320E+03 0.  0.
      99925    2    3    3    0    0  0.25135463307E+02 -0.28083504247E+02 -0.49167908812E+02  0.27047333723E+03  0.26328286722E+03 0.  0.
         25    1    4    4    0    0 -0.17994392117E+02 -0.23584872253E+02  0.18970177248E+01  0.12857352419E+03  0.12509000000E+03 0.  0.
         25    1    3    3    0    0 -0.25135463307E+02  0.28083504247E+02  0.14249438588E+03  0.19332002698E+03  0.12509000000E+03 0.  0.
         25    1    4    4    0    0  0.43129855424E+02 -0.44986319937E+01 -0.51064926537E+02  0.14189981304E+03  0.12509000000E+03 0.  0.
<mgrwt>
<rscale>  2 0.45430656E+03</rscale>
<asrwt>0</asrwt>
<pdfrwt beam="1">  1       21 0.40964695E-01 0.45430656E+03</pdfrwt>
<pdfrwt beam="2">  1       21 0.27240212E-01 0.45430656E+03</pdfrwt>
<totfact> 0.68275514E+04</totfact>
</mgrwt>
</event>
<event>
 7    0  0.4793433E-002  0.4594417E+03  0.7546771E-02  0.1024943E+00
         21   -1    0    0  502  501  0.00000000000E+00  0.00000000000E+00  0.21373529570E+03  0.21373529570E+03  0.00000000000E+00 0.  1.
         21   -1    0    0  501  502 -0.00000000000E+00 -0.00000000000E+00 -0.24690198746E+03  0.24690198746E+03  0.00000000000E+00 0.  1.
      99926    2    1    2    0    0  0.35527136788E-14 -0.17763568394E-14 -0.33166691762E+02  0.46063728316E+03  0.45944170163E+03 0.  0.
      99925    2    3    3    0    0 -0.17111941676E+02 -0.61548848383E+01  0.95281941493E+02  0.28042279806E+03  0.26311137593E+03 0.  0.
         25    1    3    3    0    0  0.17111941676E+02  0.61548848383E+01 -0.12844863325E+03  0.18021448510E+03  0.12509000000E+03 0.  0.
         25    1    4    4    0    0  0.24230545063E+01 -0.32824657789E+02  0.20444187757E+02  0.13095343548E+03  0.12509000000E+03 0.  0.
         25    1    4    4    0    0 -0.19534996182E+02  0.26669772951E+02  0.74837753736E+02  0.14946936258E+03  0.12509000000E+03 0.  0.
<mgrwt>
<rscale>  2 0.45944170E+03</rscale>
<asrwt>0</asrwt>
<pdfrwt beam="1">  1       21 0.31431661E-01 0.45944170E+03</pdfrwt>
<pdfrwt beam="2">  1       21 0.36309115E-01 0.45944170E+03</pdfrwt>
<totfact> 0.65772778E+04</totfact>
</mgrwt>
</event>
<event>
 7    0  0.4793433E-002  0.4515174E+03  0.7546771E-02  0.1027270E+00
         21   -1    0    0  502  501  0.00000000000E+00  0.00000000000E+00  0.11343388931E+03  0.11343388931E+03  0.00000000000E+00 0.  1.
         21   -1    0    0  501  502 -0.00000000000E+00 -0.00000000000E+00 -0.44931018349E+03  0.44931018349E+03  0.00000000000E+00 0.  1.
      99926    2    1    2    0    0  0.00000000000E+00 -0.14210854715E-13 -0.33587629418E+03  0.56274407281E+03  0.45151744871E+03 0.  0.
      99925    2    3    3    0    0  0.62644846940E+02  0.75762809901E+02 -0.27337878616E+03  0.39181184407E+03  0.26289956299E+03 0.  0.
         25    1    4    4    0    0 -0.10009066464E+02  0.39199032858E+02 -0.12862700540E+03  0.18392705132E+03  0.12509000000E+03 0.  0.
         25    1    3    3    0    0 -0.62644846940E+02 -0.75762809901E+02 -0.62497508024E+02  0.17093222874E+03  0.12509000000E+03 0.  0.
         25    1    4    4    0    0  0.72653913403E+02  0.36563777043E+02 -0.14475178076E+03  0.20788479275E+03  0.12509000000E+03 0.  0.
<mgrwt>
<rscale>  2 0.45151745E+03</rscale>
<asrwt>0</asrwt>
<pdfrwt beam="1">  1       21 0.16681454E-01 0.45151745E+03</pdfrwt>
<pdfrwt beam="2">  1       21 0.66075027E-01 0.45151745E+03</pdfrwt>
<totfact> 0.62742577E+04</totfact>
</mgrwt>
</event>
<event>
 7    0  0.4793433E-002  0.4445252E+03  0.7546771E-02  0.1029367E+00
         21   -1    0    0  502  501  0.00000000000E+00  0.00000000000E+00  0.92010057896E+02  0.92010057896E+02  0.00000000000E+00 0.  1.
         21   -1    0    0  501  502 -0.00000000000E+00 -0.00000000000E+00 -0.53690501765E+03  0.53690501765E+03  0.00000000000E+00 0.  1.
      99926    2    1    2    0    0  0.00000000000E+00 -0.17763568394E-14 -0.44489495976E+03  0.62891507555E+03  0.44452519280E+03 0.  0.
      99925    2    3    3    0    0  0.98660151355E+02  0.44093272518E+01 -0.24109952372E+03  0.37020026059E+03  0.26299426794E+03 0.  0.
         25    1    3    3    0    0 -0.98660151355E+02 -0.44093272518E+01 -0.20379543603E+03  0.25871481496E+03  0.12509000000E+03 0.  0.
         25    1    4    4    0    0  0.54281885280E+02 -0.33874263805E+02 -0.14509838916E+03  0.20197781922E+03  0.12509000000E+03 0.  0.
         25    1    4    4    0    0  0.44378266075E+02  0.38283591057E+02 -0.96001134561E+02  0.16822244137E+03  0.12509000000E+03 0.  0.
<mgrwt>
<rscale>  2 0.44452519E+03</rscale>
<asrwt>0</asrwt>
<pdfrwt beam="1">  1       21 0.13530891E-01 0.44452519E+03</pdfrwt>
<pdfrwt beam="2">  1       21 0.78956617E-01 0.44452519E+03</pdfrwt>
<totfact> 0.61894006E+04</totfact>
</mgrwt>
</event>
<event>
 7    0  0.4793433E-002  0.4586647E+03  0.7546771E-02  0.1025169E+00
         21   -1    0    0  502  501  0.00000000000E+00  0.00000000000E+00  0.86970415725E+03  0.86970415725E+03  0.00000000000E+00 0. -1.
         21   -1    0    0  501  502 -0.00000000000E+00 -0.00000000000E+00 -0.60472655335E+02  0.60472655335E+02  0.00000000000E+00 0. -1.
      99926    2    1    2    0    0  0.71054273576E-14  0.14210854715E-13  0.80923150191E+03  0.93017681258E+03  0.45866466943E+03 0.  0.
      99925    2    3    3    0    0  0.61795147600E+02  0.98742843232E+02  0.51154204991E+03  0.58690533504E+03  0.26308518416E+03 0.  0.
         25    1    3    3    0    0 -0.61795147600E+02 -0.98742843232E+02  0.29768945201E+03  0.34327147754E+03  0.12509000000E+03 0.  0.
         25    1    4    4    0    0  0.50717720822E+02  0.19016650790E+02  0.28456358071E+03  0.31552790650E+03  0.12509000000E+03 0.  0.
         25    1    4    4    0    0  0.11077426778E+02  0.79726192442E+02  0.22697846920E+03  0.27137742855E+03  0.12509000000E+03 0.  0.
<mgrwt>
<rscale>  2 0.45866467E+03</rscale>
<asrwt>0</asrwt>
<pdfrwt beam="1">  1       21 0.12789766E+00 0.45866467E+03</pdfrwt>
<pdfrwt beam="2">  1       21 0.88930381E-02 0.45866467E+03</pdfrwt>
<totfact> 0.40772834E+04</totfact>
</mgrwt>
</event>
<event>
 7    0  0.4793433E-002  0.4629105E+03  0.7546771E-02  0.1023940E+00
         21   -1    0    0  502  501  0.00000000000E+00  0.00000000000E+00  0.96640576644E+02  0.96640576644E+02  0.00000000000E+00 0. -1.
         21   -1    0    0  501  502 -0.00000000000E+00 -0.00000000000E+00 -0.55433790851E+03  0.55433790851E+03  0.00000000000E+00 0. -1.
      99926    2    1    2    0    0  0.00000000000E+00  0.00000000000E+00 -0.45769733187E+03  0.65097848515E+03  0.46291051029E+03 0.  0.
      99925    2    3    3    0    0  0.39342807455E+02  0.10210972882E+03 -0.21532921810E+03  0.35710085095E+03  0.26302108729E+03 0.  0.
         25    1    3    3    0    0 -0.39342807455E+02 -0.10210972882E+03 -0.24236811376E+03  0.29387763421E+03  0.12509000000E+03 0.  0.
         25    1    4    4    0    0 -0.14747434800E+01  0.69524139390E+02 -0.73425041176E+02  0.16085560481E+03  0.12509000000E+03 0.  0.
         25    1    4    4    0    0  0.40817550935E+02  0.32585589430E+02 -0.14190417693E+03  0.19624524614E+03  0.12509000000E+03 0.  0.
<mgrwt>
<rscale>  2 0.46291051E+03</rscale>
<asrwt>0</asrwt>
<pdfrwt beam="1">  1       21 0.14211850E-01 0.46291051E+03</pdfrwt>
<pdfrwt beam="2">  1       21 0.81520280E-01 0.46291051E+03</pdfrwt>
<totfact> 0.52303754E+04</totfact>
</mgrwt>
</event>
<event>
 7    0  0.4793433E-002  0.4549002E+03  0.7546771E-02  0.1026271E+00
         21   -1    0    0  502  501  0.00000000000E+00  0.00000000000E+00  0.52316119299E+02  0.52316119299E+02  0.00000000000E+00 0. -1.
         21   -1    0    0  501  502 -0.00000000000E+00 -0.00000000000E+00 -0.98886450945E+03  0.98886450945E+03  0.00000000000E+00 0. -1.
      99926    2    1    2    0    0  0.14210854715E-13  0.71054273576E-14 -0.93654839015E+03  0.10411806288E+04  0.45490022487E+03 0.  0.
      99925    2    3    3    0    0 -0.97466363441E+02 -0.36619831795E+02 -0.48853982507E+03  0.56452573622E+03  0.26301604912E+03 0.  0.
         25    1    4    4    0    0 -0.76226341350E+02  0.54796690234E+01 -0.21713671117E+03  0.26198538380E+03  0.12509000000E+03 0.  0.
         25    1    4    4    0    0 -0.21240022092E+02 -0.42099500819E+02 -0.27140311390E+03  0.30254035242E+03  0.12509000000E+03 0.  0.
         25    1    3    3    0    0  0.97466363441E+02  0.36619831795E+02 -0.44800856508E+03  0.47665489253E+03  0.12509000000E+03 0.  0.
<mgrwt>
<rscale>  2 0.45490022E+03</rscale>
<asrwt>0</asrwt>
<pdfrwt beam="1">  1       21 0.76935467E-02 0.45490022E+03</pdfrwt>
<pdfrwt beam="2">  1       21 0.14542126E+00 0.45490022E+03</pdfrwt>
<totfact> 0.37631973E+04</totfact>
</mgrwt>
</event>
<event>
 7    0  0.4793433E-002  0.4589653E+03  0.7546771E-02  0.1025082E+00
         21   -1    0    0  502  501  0.00000000000E+00  0.00000000000E+00  0.64165955380E+02  0.64165955380E+02  0.00000000000E+00 0.  1.
         21   -1    0    0  501  502 -0.00000000000E+00 -0.00000000000E+00 -0.82072022929E+03  0.82072022929E+03  0.00000000000E+00 0.  1.
      99926    2    1    2    0    0 -0.71054273576E-14 -0.71054273576E-14 -0.75655427391E+03  0.88488618467E+03  0.45896534776E+03 0.  0.
      99925    2    3    3    0    0 -0.34492134806E+02 -0.62443058746E+02 -0.29583360305E+03  0.40218556564E+03  0.26295791597E+03 0.  0.
         25    1    4    4    0    0 -0.42674664847E+02 -0.67476091810E+00 -0.15649081805E+03  0.20483765903E+03  0.12509000000E+03 0.  0.
         25    1    4    4    0    0  0.81825300409E+01 -0.61768297828E+02 -0.13934278500E+03  0.19734790662E+03  0.12509000000E+03 0.  0.
         25    1    3    3    0    0  0.34492134806E+02  0.62443058746E+02 -0.46072067086E+03  0.48270061902E+03  0.12509000000E+03 0.  0.
<mgrwt>
<rscale>  2 0.45896535E+03</rscale>
<asrwt>0</asrwt>
<pdfrwt beam="1">  1       21 0.94361710E-02 0.45896535E+03</pdfrwt>
<pdfrwt beam="2">  1       21 0.12069414E+00 0.45896535E+03</pdfrwt>
<totfact> 0.42556611E+04</totfact>
</mgrwt>
</event>
<event>
 7    0  0.4793433E-002  0.4546455E+03  0.7546771E-02  0.1026346E+00
         21   -1    0    0  502  501  0.00000000000E+00  0.00000000000E+00  0.77308714768E+03  0.77308714768E+03  0.00000000000E+00 0.  1.
         21   -1    0    0  501  502 -0.00000000000E+00 -0.00000000000E+00 -0.66843212430E+02  0.66843212430E+02  0.00000000000E+00 0.  1.
      99926    2    1    2    0    0  0.00000000000E+00  0.00000000000E+00  0.70624393525E+03  0.83993036011E+03  0.45464548140E+03 0.  0.
      99925    2    3    3    0    0 -0.94061948946E+02  0.56596879195E+02  0.39607188941E+03  0.48792885004E+03  0.26296532878E+03 0.  0.
         25    1    4    4    0    0 -0.32093450293E+02  0.22332400416E+02  0.12503795578E+03  0.18113730744E+03  0.12509000000E+03 0.  0.
         25    1    3    3    0    0  0.94061948946E+02 -0.56596879195E+02  0.31017204584E+03  0.35200151007E+03  0.12509000000E+03 0.  0.
         25    1    4    4    0    0 -0.61968498653E+02  0.34264478779E+02  0.27103393363E+03  0.30679154260E+03  0.12509000000E+03 0.  0.
<mgrwt>
<rscale>  2 0.45464548E+03</rscale>
<asrwt>0</asrwt>
<pdfrwt beam="1">  1       21 0.11368928E+00 0.45464548E+03</pdfrwt>
<pdfrwt beam="2">  1       21 0.98298846E-02 0.45464548E+03</pdfrwt>
<totfact> 0.46021109E+04</totfact>
</mgrwt>
</event>
<event>
 7    0  0.4793433E-002  0.4539975E+03  0.7546771E-02  0.1026537E+00
         21   -1    0    0  502  501  0.00000000000E+00  0.00000000000E+00  0.58671069075E+02  0.58671069075E+02  0.00000000000E+00 0.  1.
         21   -1    0    0  501  502 -0.00000000000E+00 -0.00000000000E+00 -0.87825966738E+03  0.87825966738E+03  0.00000000000E+00 0.  1.
      99926    2    1    2    0    0  0.00000000000E+00  0.00000000000E+00 -0.81958859831E+03  0.93693073646E+03  0.45399750489E+03 0.  0.
      99925    2    3    3    0    0 -0.95061967784E+02  0.55125278785E+02 -0.46943182779E+03  0.54920293746E+03  0.26302481154E+03 0.  0.
         25    1    3    3    0    0  0.95061967784E+02 -0.55125278785E+02 -0.35015677051E+03  0.38772779900E+03  0.12509000000E+03 0.  0.
         25    1    4    4    0    0 -0.67732463904E+02  0.25994266789E+02 -0.17641245269E+03  0.22810578716E+03  0.12509000000E+03 0.  0.
         25    1    4    4    0    0 -0.27329503880E+02  0.29131011996E+02 -0.29301937511E+03  0.32109715030E+03  0.12509000000E+03 0.  0.
<mgrwt>
<rscale>  2 0.45399750E+03</rscale>
<asrwt>0</asrwt>
<pdfrwt beam="1">  1       21 0.86280990E-02 0.45399750E+03</pdfrwt>
<pdfrwt beam="2">  1       21 0.12915582E+00 0.45399750E+03</pdfrwt>
<totfact> 0.42002956E+04</totfact>
</mgrwt>
</event>
<event>
 7    0  0.4793433E-002  0.4532736E+03  0.7546771E-02  0.1026750E+00
         21   -1    0    0  502  501  0.00000000000E+00  0.00000000000E+00  0.32570225023E+03  0.32570225023E+03  0.00000000000E+00 0. -1.
         21   -1    0    0  501  502 -0.00000000000E+00 -0.00000000000E+00 -0.15770308676E+03  0.15770308676E+03  0.00000000000E+00 0. -1.
      99926    2    1    2    0    0  0.71054273576E-14  0.71054273576E-14  0.16799916347E+03  0.48340533699E+03  0.45327364902E+03 0.  0.
      99925    2    3    3    0    0 -0.59876520897E+02  0.48815412223E+02  0.19181486120E+03  0.33446629649E+03  0.26288138064E+03 0.  0.
         25    1    3    3    0    0  0.59876520897E+02 -0.48815412223E+02 -0.23815697722E+02  0.14893904049E+03  0.12509000000E+03 0.  0.
         25    1    4    4    0    0  0.47507690697E+01  0.25258993046E+01  0.77037303410E+02  0.14700749706E+03  0.12509000000E+03 0.  0.
         25    1    4    4    0    0 -0.64627289966E+02  0.46289512918E+02  0.11477755779E+03  0.18745879944E+03  0.12509000000E+03 0.  0.
<mgrwt>
<rscale>  2 0.45327365E+03</rscale>
<asrwt>0</asrwt>
<pdfrwt beam="1">  1       21 0.47897390E-01 0.45327365E+03</pdfrwt>
<pdfrwt beam="2">  1       21 0.23191630E-01 0.45327365E+03</pdfrwt>
<totfact> 0.67371599E+04</totfact>
</mgrwt>
</event>
<event>
 7    0  0.4793433E-002  0.4560714E+03  0.7546771E-02  0.1025927E+00
         21   -1    0    0  502  501  0.00000000000E+00  0.00000000000E+00  0.19675390054E+02  0.19675390054E+02  0.00000000000E+00 0. -1.
         21   -1    0    0  501  502 -0.00000000000E+00 -0.00000000000E+00 -0.26429093384E+04  0.26429093384E+04  0.00000000000E+00 0. -1.
      99926    2    1    2    0    0  0.00000000000E+00  0.71054273576E-14 -0.26232339483E+04  0.26625847284E+04  0.45607136331E+03 0.  0.
      99925    2    3    3    0    0 -0.74583070744E+02 -0.42207091690E+02 -0.12082197465E+04  0.12394695635E+04  0.26295583302E+03 0.  0.
         25    1    3    3    0    0  0.74583070744E+02  0.42207091690E+02 -0.14150142018E+04  0.14231151649E+04  0.12509000000E+03 0.  0.
         25    1    4    4    0    0 -0.33372636312E+02 -0.11388355462E+01 -0.74411258519E+03  0.75529204771E+03  0.12509000000E+03 0.  0.
         25    1    4    4    0    0 -0.41210434432E+02 -0.41068256144E+02 -0.46410716128E+03  0.48417751582E+03  0.12509000000E+03 0.  0.
<mgrwt>
<rscale>  2 0.45607136E+03</rscale>
<asrwt>0</asrwt>
<pdfrwt beam="1">  1       21 0.28934405E-02 0.45607136E+03</pdfrwt>
<pdfrwt beam="2">  1       21 0.38866304E+00 0.45607136E+03</pdfrwt>
<totfact> 0.55608695E+03</totfact>
</mgrwt>
</event>
<event>
 7    0  0.4793433E-002  0.4415940E+03  0.7546771E-02  0.1030259E+00
         21   -1    0    0  502  501  0.00000000000E+00  0.00000000000E+00  0.16171691092E+03  0.16171691092E+03  0.00000000000E+00 0. -1.
         21   -1    0    0  501  502 -0.00000000000E+00 -0.00000000000E+00 -0.30146083334E+03  0.30146083334E+03  0.00000000000E+00 0. -1.
      99926    2    1    2    0    0 -0.14210854715E-13  0.17763568394E-14 -0.13974392242E+03  0.46317774426E+03  0.44159399783E+03 0.  0.
      99925    2    3    3    0    0 -0.98207224520E+02  0.13825509522E+02 -0.75360473872E+02  0.29104831560E+03  0.26304774725E+03 0.  0.
         25    1    4    4    0    0 -0.92027163788E+02  0.12941773246E+02 -0.44329636274E+02  0.16201578047E+03  0.12509000000E+03 0.  0.
         25    1    3    3    0    0  0.98207224520E+02 -0.13825509522E+02 -0.64383448547E+02  0.17212942865E+03  0.12509000000E+03 0.  0.
         25    1    4    4    0    0 -0.61800607314E+01  0.88373627552E+00 -0.31030837598E+02  0.12903253513E+03  0.12509000000E+03 0.  0.
<mgrwt>
<rscale>  2 0.44159400E+03</rscale>
<asrwt>0</asrwt>
<pdfrwt beam="1">  1       21 0.23781899E-01 0.44159400E+03</pdfrwt>
<pdfrwt beam="2">  1       21 0.44332475E-01 0.44159400E+03</pdfrwt>
<totfact> 0.75681669E+04</totfact>
</mgrwt>
</event>
<event>
 7    0  0.4793433E-002  0.4205627E+03  0.7546771E-02  0.1036883E+00
         21   -1    0    0  502  501  0.00000000000E+00  0.00000000000E+00  0.76891262910E+03  0.76891262910E+03  0.00000000000E+00 0.  1.
         21   -1    0    0  501  502 -0.00000000000E+00 -0.00000000000E+00 -0.57507515405E+02  0.57507515405E+02  0.00000000000E+00 0.  1.
      99926    2    1    2    0    0  0.00000000000E+00  0.00000000000E+00  0.71140511370E+03  0.82642014451E+03  0.42056274140E+03 0.  0.
      99925    2    3    3    0    0  0.34523146051E+01 -0.58394890157E+02  0.56019046805E+03  0.62163914238E+03  0.26305889298E+03 0.  0.
         25    1    4    4    0    0 -0.10958075633E+01 -0.22833999415E+02  0.36959835545E+03  0.39086192546E+03  0.12509000000E+03 0.  0.
         25    1    4    4    0    0  0.45481221684E+01 -0.35560890742E+02  0.19059211260E+03  0.23077721692E+03  0.12509000000E+03 0.  0.
         25    1    3    3    0    0 -0.34523146051E+01  0.58394890157E+02  0.15121464565E+03  0.20478100212E+03  0.12509000000E+03 0.  0.
<mgrwt>
<rscale>  2 0.42056274E+03</rscale>
<asrwt>0</asrwt>
<pdfrwt beam="1">  1       21 0.11307538E+00 0.42056274E+03</pdfrwt>
<pdfrwt beam="2">  1       21 0.84569880E-02 0.42056274E+03</pdfrwt>
<totfact> 0.61525586E+04</totfact>
</mgrwt>
</event>
<event>
 7    0  0.4793433E-002  0.4597541E+03  0.7546771E-02  0.1024853E+00
         21   -1    0    0  502  501  0.00000000000E+00  0.00000000000E+00  0.21803433883E+03  0.21803433883E+03  0.00000000000E+00 0.  1.
         21   -1    0    0  501  502 -0.00000000000E+00 -0.00000000000E+00 -0.24236296697E+03  0.24236296697E+03  0.00000000000E+00 0.  1.
      99926    2    1    2    0    0  0.00000000000E+00  0.00000000000E+00 -0.24328628141E+02  0.46039730580E+03  0.45975406147E+03 0.  0.
      99925    2    3    3    0    0  0.77558230826E+02  0.49024492616E+02 -0.88858511957E+02  0.29237857455E+03  0.26300326170E+03 0.  0.
         25    1    4    4    0    0  0.14883202800E+01  0.34714462575E+02 -0.25972069578E+02  0.13239851022E+03  0.12509000000E+03 0.  0.
         25    1    4    4    0    0  0.76069910546E+02  0.14310030041E+02 -0.62886442378E+02  0.15998006434E+03  0.12509000000E+03 0.  0.
         25    1    3    3    0    0 -0.77558230826E+02 -0.49024492616E+02  0.64529883816E+02  0.16801873125E+03  0.12509000000E+03 0.  0.
<mgrwt>
<rscale>  2 0.45975406E+03</rscale>
<asrwt>0</asrwt>
<pdfrwt beam="1">  1       21 0.32063874E-01 0.45975406E+03</pdfrwt>
<pdfrwt beam="2">  1       21 0.35641613E-01 0.45975406E+03</pdfrwt>
<totfact> 0.65627293E+04</totfact>
</mgrwt>
</event>
<event>
 7    0  0.4793433E-002  0.4524172E+03  0.7546771E-02  0.1027004E+00
         21   -1    0    0  502  501  0.00000000000E+00  0.00000000000E+00  0.63630867199E+03  0.63630867199E+03  0.00000000000E+00 0.  1.
         21   -1    0    0  501  502 -0.00000000000E+00 -0.00000000000E+00 -0.80417466596E+02  0.80417466596E+02  0.00000000000E+00 0.  1.
      99926    2    1    2    0    0 -0.17763568394E-14  0.00000000000E+00  0.55589120540E+03  0.71672613859E+03  0.45241720292E+03 0.  0.
      99925    2    3    3    0    0  0.14764160668E+02  0.10980846962E+03  0.35776899165E+03  0.45754319138E+03  0.26281407906E+03 0.  0.
         25    1    4    4    0    0  0.32990426513E+02  0.88548107449E+02  0.18710572673E+03  0.24410079199E+03  0.12509000000E+03 0.  0.
         25    1    3    3    0    0 -0.14764160668E+02 -0.10980846962E+03  0.19812221375E+03  0.25918294720E+03  0.12509000000E+03 0.  0.
         25    1    4    4    0    0 -0.18226265845E+02  0.21260362174E+02  0.17066326492E+03  0.21344239940E+03  0.12509000000E+03 0.  0.
<mgrwt>
<rscale>  2 0.45241720E+03</rscale>
<asrwt>0</asrwt>
<pdfrwt beam="1">  1       21 0.93574802E-01 0.45241720E+03</pdfrwt>
<pdfrwt beam="2">  1       21 0.11826098E-01 0.45241720E+03</pdfrwt>
<totfact> 0.53074373E+04</totfact>
</mgrwt>
</event>
<event>
 7    0  0.4793433E-002  0.4500169E+03  0.7546771E-02  0.1027717E+00
         21   -1    0    0  502  501  0.00000000000E+00  0.00000000000E+00  0.83604913646E+02  0.83604913646E+02  0.00000000000E+00 0. -1.
         21   -1    0    0  501  502 -0.00000000000E+00 -0.00000000000E+00 -0.60557198755E+03  0.60557198755E+03  0.00000000000E+00 0. -1.
      99926    2    1    2    0    0 -0.14210854715E-13  0.00000000000E+00 -0.52196707390E+03  0.68917690119E+03  0.45001686069E+03 0.  0.
      99925    2    3    3    0    0 -0.72090437806E+02  0.10522785400E+02 -0.20703249167E+03  0.34256608281E+03  0.26302339867E+03 0.  0.
         25    1    4    4    0    0 -0.66827811846E+02 -0.81506965884E+01 -0.13947656045E+03  0.19908191607E+03  0.12509000000E+03 0.  0.
         25    1    4    4    0    0 -0.52626259599E+01  0.18673481989E+02 -0.67555931213E+02  0.14348416674E+03  0.12509000000E+03 0.  0.
         25    1    3    3    0    0  0.72090437806E+02 -0.10522785400E+02 -0.31493458223E+03  0.34661081839E+03  0.12509000000E+03 0.  0.
<mgrwt>
<rscale>  2 0.45001686E+03</rscale>
<asrwt>0</asrwt>
<pdfrwt beam="1">  1       21 0.12294841E-01 0.45001686E+03</pdfrwt>
<pdfrwt beam="2">  1       21 0.89054702E-01 0.45001686E+03</pdfrwt>
<totfact> 0.55645566E+04</totfact>
</mgrwt>
</event>
<event>
 7    0  0.4793433E-002  0.4548397E+03  0.7546771E-02  0.1026289E+00
         21   -1    0    0  502  501  0.00000000000E+00  0.00000000000E+00  0.17394696152E+03  0.17394696152E+03  0.00000000000E+00 0.  1.
         21   -1    0    0  501  502 -0.00000000000E+00 -0.00000000000E+00 -0.29733076928E+03  0.29733076928E+03  0.00000000000E+00 0.  1.
      99926    2    1    2    0    0  0.14210854715E-13 -0.88817841970E-15 -0.12338380777E+03  0.47127773080E+03  0.45483968113E+03 0.  0.
      99925    2    3    3    0    0  0.81264724761E+02 -0.61641305895E+01  0.35030765493E+01  0.27534472820E+03  0.26298383184E+03 0.  0.
         25    1    4    4    0    0  0.25700648203E+02 -0.17923196848E+02 -0.33174413164E+02  0.13315334803E+03  0.12509000000E+03 0.  0.
         25    1    3    3    0    0 -0.81264724761E+02  0.61641305895E+01 -0.12688688432E+03  0.19593300260E+03  0.12509000000E+03 0.  0.
         25    1    4    4    0    0  0.55564076559E+02  0.11759066259E+02  0.36677489713E+02  0.14219138017E+03  0.12509000000E+03 0.  0.
<mgrwt>
<rscale>  2 0.45483968E+03</rscale>
<asrwt>0</asrwt>
<pdfrwt beam="1">  1       21 0.25580435E-01 0.45483968E+03</pdfrwt>
<pdfrwt beam="2">  1       21 0.43725113E-01 0.45483968E+03</pdfrwt>
<totfact> 0.67426526E+04</totfact>
</mgrwt>
</event>
<event>
 7    0  0.4793433E-002  0.4741307E+03  0.7546771E-02  0.1020761E+00
         21   -1    0    0  502  501  0.00000000000E+00  0.00000000000E+00  0.14264315450E+03  0.14264315450E+03  0.00000000000E+00 0.  1.
         21   -1    0    0  501  502 -0.00000000000E+00 -0.00000000000E+00 -0.39399002185E+03  0.39399002185E+03  0.00000000000E+00 0.  1.
      99926    2    1    2    0    0  0.00000000000E+00  0.00000000000E+00 -0.25134686735E+03  0.53663317635E+03  0.47413069742E+03 0.  0.
      99925    2    3    3    0    0 -0.35709277725E+02  0.12181804781E+03 -0.18850860837E+03  0.34765978092E+03  0.26309131219E+03 0.  0.
         25    1    3    3    0    0  0.35709277725E+02 -0.12181804781E+03 -0.62838258984E+02  0.18897339543E+03  0.12509000000E+03 0.  0.
         25    1    4    4    0    0 -0.49361475632E+02  0.72805626473E+02 -0.70783901432E+02  0.16850840728E+03  0.12509000000E+03 0.  0.
         25    1    4    4    0    0  0.13652197907E+02  0.49012421341E+02 -0.11772470694E+03  0.17915137364E+03  0.12509000000E+03 0.  0.
<mgrwt>
<rscale>  2 0.47413070E+03</rscale>
<asrwt>0</asrwt>
<pdfrwt beam="1">  1       21 0.20976935E-01 0.47413070E+03</pdfrwt>
<pdfrwt beam="2">  1       21 0.57939707E-01 0.47413070E+03</pdfrwt>
<totfact> 0.54081016E+04</totfact>
</mgrwt>
</event>
<event>
 7    0  0.4793433E-002  0.4539306E+03  0.7546771E-02  0.1026556E+00
         21   -1    0    0  502  501  0.00000000000E+00  0.00000000000E+00  0.56505363800E+02  0.56505363800E+02  0.00000000000E+00 0. -1.
         21   -1    0    0  501  502 -0.00000000000E+00 -0.00000000000E+00 -0.91165221560E+03  0.91165221560E+03  0.00000000000E+00 0. -1.
      99926    2    1    2    0    0  0.00000000000E+00 -0.14210854715E-13 -0.85514685180E+03  0.96815757940E+03  0.45393056783E+03 0.  0.
      99925    2    3    3    0    0 -0.58630899054E+02 -0.53532011540E+02 -0.70747122056E+03  0.75897139739E+03  0.26309465131E+03 0.  0.
         25    1    4    4    0    0 -0.18453232490E+02 -0.20061711649E+01 -0.24902218383E+03  0.27929214570E+03  0.12509000000E+03 0.  0.
         25    1    4    4    0    0 -0.40177666565E+02 -0.51525840375E+02 -0.45844903673E+03  0.47967925169E+03  0.12509000000E+03 0.  0.
         25    1    3    3    0    0  0.58630899054E+02  0.53532011540E+02 -0.14767563124E+03  0.20918618202E+03  0.12509000000E+03 0.  0.
<mgrwt>
<rscale>  2 0.45393057E+03</rscale>
<asrwt>0</asrwt>
<pdfrwt beam="1">  1       21 0.83096126E-02 0.45393057E+03</pdfrwt>
<pdfrwt beam="2">  1       21 0.13406650E+00 0.45393057E+03</pdfrwt>
<totfact> 0.40753867E+04</totfact>
</mgrwt>
</event>
<event>
 7    0  0.4793433E-002  0.4664127E+03  0.7546771E-02  0.1022938E+00
         21   -1    0    0  502  501  0.00000000000E+00  0.00000000000E+00  0.32640429610E+03  0.32640429610E+03  0.00000000000E+00 0.  1.
         21   -1    0    0  501  502 -0.00000000000E+00 -0.00000000000E+00 -0.16661915305E+03  0.16661915305E+03  0.00000000000E+00 0.  1.
      99926    2    1    2    0    0  0.35527136788E-14  0.00000000000E+00  0.15978514305E+03  0.49302344915E+03  0.46641272438E+03 0.  0.
      99925    2    3    3    0    0  0.27298277450E+02 -0.93306258463E+02  0.18833942775E+02  0.28097156215E+03  0.26294304994E+03 0.  0.
         25    1    3    3    0    0 -0.27298277450E+02  0.93306258463E+02  0.14095120028E+03  0.21205188700E+03  0.12509000000E+03 0.  0.
         25    1    4    4    0    0 -0.16585539977E+02 -0.52260828674E+02 -0.17036489140E+02  0.13763729296E+03  0.12509000000E+03 0.  0.
         25    1    4    4    0    0  0.43883817427E+02 -0.41045429790E+02  0.35870431914E+02  0.14333426919E+03  0.12509000000E+03 0.  0.
<mgrwt>
<rscale>  2 0.46641272E+03</rscale>
<asrwt>0</asrwt>
<pdfrwt beam="1">  1       21 0.48000632E-01 0.46641272E+03</pdfrwt>
<pdfrwt beam="2">  1       21 0.24502817E-01 0.46641272E+03</pdfrwt>
<totfact> 0.60128588E+04</totfact>
</mgrwt>
</event>
<event>
 7    0  0.4793433E-002  0.4599010E+03  0.7546771E-02  0.1024810E+00
         21   -1    0    0  502  501  0.00000000000E+00  0.00000000000E+00  0.53504432885E+03  0.53504432885E+03  0.00000000000E+00 0. -1.
         21   -1    0    0  501  502 -0.00000000000E+00 -0.00000000000E+00 -0.98827760503E+02  0.98827760503E+02  0.00000000000E+00 0. -1.
      99926    2    1    2    0    0  0.71054273576E-14  0.00000000000E+00  0.43621656835E+03  0.63387208935E+03  0.45990100148E+03 0.  0.
      99925    2    3    3    0    0  0.55094225491E+02 -0.10324499031E+03  0.28965697633E+03  0.40843446202E+03  0.26310196525E+03 0.  0.
         25    1    4    4    0    0  0.61596740310E+02 -0.67648078763E+02  0.12906869987E+03  0.20168455162E+03  0.12509000000E+03 0.  0.
         25    1    4    4    0    0 -0.65025148184E+01 -0.35596911550E+02  0.16058827646E+03  0.20674991040E+03  0.12509000000E+03 0.  0.
         25    1    3    3    0    0 -0.55094225491E+02  0.10324499031E+03  0.14655959202E+03  0.22543762734E+03  0.12509000000E+03 0.  0.
<mgrwt>
<rscale>  2 0.45990100E+03</rscale>
<asrwt>0</asrwt>
<pdfrwt beam="1">  1       21 0.78682988E-01 0.45990100E+03</pdfrwt>
<pdfrwt beam="2">  1       21 0.14533494E-01 0.45990100E+03</pdfrwt>
<totfact> 0.54501117E+04</totfact>
</mgrwt>
</event>
<event>
 7    0  0.4793433E-002  0.4578321E+03  0.7546771E-02  0.1025412E+00
         21   -1    0    0  502  501  0.00000000000E+00  0.00000000000E+00  0.40584302812E+02  0.40584302812E+02  0.00000000000E+00 0.  1.
         21   -1    0    0  501  502 -0.00000000000E+00 -0.00000000000E+00 -0.12912024665E+04  0.12912024665E+04  0.00000000000E+00 0.  1.
      99926    2    1    2    0    0  0.35527136788E-14  0.00000000000E+00 -0.12506181637E+04  0.13317867693E+04  0.45783207355E+03 0.  0.
      99925    2    3    3    0    0  0.16998330469E+02 -0.53367554130E+02 -0.10801755858E+04  0.11130741278E+04  0.26271215981E+03 0.  0.
         25    1    4    4    0    0 -0.10523683436E+02 -0.40472036581E+02 -0.68100012888E+03  0.69365511408E+03  0.12509000000E+03 0.  0.
         25    1    4    4    0    0  0.27522013905E+02 -0.12895517549E+02 -0.39917545688E+03  0.41941901376E+03  0.12509000000E+03 0.  0.
         25    1    3    3    0    0 -0.16998330469E+02  0.53367554130E+02 -0.17044257795E+03  0.21871264150E+03  0.12509000000E+03 0.  0.
<mgrwt>
<rscale>  2 0.45783207E+03</rscale>
<asrwt>0</asrwt>
<pdfrwt beam="1">  1       21 0.59682809E-02 0.45783207E+03</pdfrwt>
<pdfrwt beam="2">  1       21 0.18988268E+00 0.45783207E+03</pdfrwt>
<totfact> 0.27592761E+04</totfact>
</mgrwt>
</event>
<event>
 7    0  0.4793433E-002  0.4525197E+03  0.7546771E-02  0.1026973E+00
         21   -1    0    0  502  501  0.00000000000E+00  0.00000000000E+00  0.20123944220E+03  0.20123944220E+03  0.00000000000E+00 0.  1.
         21   -1    0    0  501  502 -0.00000000000E+00 -0.00000000000E+00 -0.25439108725E+03  0.25439108725E+03  0.00000000000E+00 0.  1.
      99926    2    1    2    0    0  0.00000000000E+00  0.00000000000E+00 -0.53151645050E+02  0.45563052945E+03  0.45251970343E+03 0.  0.
      99925    2    3    3    0    0  0.59762578432E+02  0.82438387102E+02 -0.75042908437E+02  0.29285955857E+03  0.26413562707E+03 0.  0.
         25    1    3    3    0    0 -0.59762578432E+02 -0.82438387102E+02  0.21891263387E+02  0.16277097088E+03  0.12509000000E+03 0.  0.
         25    1    4    4    0    0  0.36497216179E+02  0.25235482439E+01 -0.54279212897E+02  0.14118128820E+03  0.12509000000E+03 0.  0.
         25    1    4    4    0    0  0.23265362253E+02  0.79914838858E+02 -0.20763695540E+02  0.15167827037E+03  0.12509000000E+03 0.  0.
<mgrwt>
<rscale>  2 0.45251970E+03</rscale>
<asrwt>0</asrwt>
<pdfrwt beam="1">  1       21 0.29594036E-01 0.45251970E+03</pdfrwt>
<pdfrwt beam="2">  1       21 0.37410454E-01 0.45251970E+03</pdfrwt>
<totfact> 0.69872006E+04</totfact>
</mgrwt>
</event>
<event>
 7    0  0.4793433E-002  0.4638007E+03  0.7546771E-02  0.1023685E+00
         21   -1    0    0  502  501  0.00000000000E+00  0.00000000000E+00  0.11687008780E+03  0.11687008780E+03  0.00000000000E+00 0. -1.
         21   -1    0    0  501  502 -0.00000000000E+00 -0.00000000000E+00 -0.46014995768E+03  0.46014995768E+03  0.00000000000E+00 0. -1.
      99926    2    1    2    0    0  0.00000000000E+00  0.71054273576E-14 -0.34327986988E+03  0.57702004548E+03  0.46380067251E+03 0.  0.
      99925    2    3    3    0    0 -0.53178868198E+02  0.20067758426E+02 -0.34759253654E+03  0.43955436196E+03  0.26297672655E+03 0.  0.
         25    1    4    4    0    0 -0.40607503270E+02  0.48464433077E+02 -0.18142836811E+03  0.22926301806E+03  0.12509000000E+03 0.  0.
         25    1    4    4    0    0 -0.12571364927E+02 -0.28396674651E+02 -0.16616416843E+03  0.21029134389E+03  0.12509000000E+03 0.  0.
         25    1    3    3    0    0  0.53178868198E+02 -0.20067758426E+02  0.43126666670E+01  0.13746568352E+03  0.12509000000E+03 0.  0.
<mgrwt>
<rscale>  2 0.46380067E+03</rscale>
<asrwt>0</asrwt>
<pdfrwt beam="1">  1       21 0.17186778E-01 0.46380067E+03</pdfrwt>
<pdfrwt beam="2">  1       21 0.67669111E-01 0.46380067E+03</pdfrwt>
<totfact> 0.56108212E+04</totfact>
</mgrwt>
</event>
<event>
 7    0  0.4793433E-002  0.4530373E+03  0.7546771E-02  0.1026820E+00
         21   -1    0    0  502  501  0.00000000000E+00  0.00000000000E+00  0.11971498902E+03  0.11971498902E+03  0.00000000000E+00 0.  1.
         21   -1    0    0  501  502 -0.00000000000E+00 -0.00000000000E+00 -0.42860710504E+03  0.42860710504E+03  0.00000000000E+00 0.  1.
      99926    2    1    2    0    0  0.00000000000E+00  0.14210854715E-13 -0.30889211602E+03  0.54832209406E+03  0.45303728268E+03 0.  0.
      99925    2    3    3    0    0 -0.44271985946E+02 -0.72035692874E+02 -0.10721693551E+03  0.29639048365E+03  0.26306405637E+03 0.  0.
         25    1    3    3    0    0  0.44271985946E+02  0.72035692874E+02 -0.20167518051E+03  0.25193161040E+03  0.12509000000E+03 0.  0.
         25    1    4    4    0    0 -0.10416253834E+02 -0.74845990210E+02 -0.66168718642E+02  0.16042514772E+03  0.12509000000E+03 0.  0.
         25    1    4    4    0    0 -0.33855732113E+02  0.28102973358E+01 -0.41048216863E+02  0.13596533593E+03  0.12509000000E+03 0.  0.
<mgrwt>
<rscale>  2 0.45303728E+03</rscale>
<asrwt>0</asrwt>
<pdfrwt beam="1">  1       21 0.17605146E-01 0.45303728E+03</pdfrwt>
<pdfrwt beam="2">  1       21 0.63030455E-01 0.45303728E+03</pdfrwt>
<totfact> 0.62949414E+04</totfact>
</mgrwt>
</event>
<event>
 7    0  0.4793433E-002  0.4497701E+03  0.7546771E-02  0.1027791E+00
         21   -1    0    0  502  501  0.00000000000E+00  0.00000000000E+00  0.43310999620E+02  0.43310999620E+02  0.00000000000E+00 0.  1.
         21   -1    0    0  501  502 -0.00000000000E+00 -0.00000000000E+00 -0.11676778710E+04  0.11676778710E+04  0.00000000000E+00 0.  1.
      99926    2    1    2    0    0  0.00000000000E+00  0.00000000000E+00 -0.11243668714E+04  0.12109888706E+04  0.44977014498E+03 0.  0.
      99925    2    3    3    0    0  0.77431043668E+02 -0.12346352694E+02 -0.91160604546E+03  0.95202424738E+03  0.26301442265E+03 0.  0.
         25    1    3    3    0    0 -0.77431043668E+02  0.12346352694E+02 -0.21276082594E+03  0.25896462326E+03  0.12509000000E+03 0.  0.
         25    1    4    4    0    0  0.20160348156E+02 -0.52840057935E+01 -0.31180734004E+03  0.33660909933E+03  0.12509000000E+03 0.  0.
         25    1    4    4    0    0  0.57270695512E+02 -0.70623469000E+01 -0.59979870543E+03  0.61541514804E+03  0.12509000000E+03 0.  0.
<mgrwt>
<rscale>  2 0.44977014E+03</rscale>
<asrwt>0</asrwt>
<pdfrwt beam="1">  1       21 0.63692653E-02 0.44977014E+03</pdfrwt>
<pdfrwt beam="2">  1       21 0.17171732E+00 0.44977014E+03</pdfrwt>
<totfact> 0.33139100E+04</totfact>
</mgrwt>
</event>
<event>
 7    0  0.4793433E-002  0.4551392E+03  0.7546771E-02  0.1026200E+00
         21   -1    0    0  502  501  0.00000000000E+00  0.00000000000E+00  0.19638355718E+03  0.19638355718E+03  0.00000000000E+00 0. -1.
         21   -1    0    0  501  502 -0.00000000000E+00 -0.00000000000E+00 -0.26370801843E+03  0.26370801843E+03  0.00000000000E+00 0. -1.
      99926    2    1    2    0    0  0.00000000000E+00 -0.14210854715E-13 -0.67324461252E+02  0.46009157560E+03  0.45513918185E+03 0.  0.
      99925    2    3    3    0    0  0.36111635849E+02  0.70068152971E+02 -0.12467948791E+03  0.30150184237E+03  0.26295396925E+03 0.  0.
         25    1    3    3    0    0 -0.36111635849E+02 -0.70068152971E+02  0.57355026657E+02  0.15858973323E+03  0.12509000000E+03 0.  0.
         25    1    4    4    0    0  0.70789621243E+00  0.72305033093E+02 -0.66668038444E+02  0.15912465044E+03  0.12509000000E+03 0.  0.
         25    1    4    4    0    0  0.35403739637E+02 -0.22368801217E+01 -0.58011449465E+02  0.14237719193E+03  0.12509000000E+03 0.  0.
<mgrwt>
<rscale>  2 0.45513918E+03</rscale>
<asrwt>0</asrwt>
<pdfrwt beam="1">  1       21 0.28879935E-01 0.45513918E+03</pdfrwt>
<pdfrwt beam="2">  1       21 0.38780591E-01 0.45513918E+03</pdfrwt>
<totfact> 0.68098283E+04</totfact>
</mgrwt>
</event>
<event>
 7    0  0.4793433E-002  0.4527701E+03  0.7546771E-02  0.1026899E+00
         21   -1    0    0  502  501  0.00000000000E+00  0.00000000000E+00  0.72399570824E+03  0.72399570824E+03  0.00000000000E+00 0. -1.
         21   -1    0    0  501  502 -0.00000000000E+00 -0.00000000000E+00 -0.70787989057E+02  0.70787989057E+02  0.00000000000E+00 0. -1.
      99926    2    1    2    0    0  0.00000000000E+00 -0.71054273576E-14  0.65320771918E+03  0.79478369730E+03  0.45277014156E+03 0.  0.
      99925    2    3    3    0    0 -0.67429216532E+02  0.54954036881E+02  0.53312208162E+03  0.60078701212E+03  0.26298143396E+03 0.  0.
         25    1    4    4    0    0 -0.36017752291E+02  0.68440431540E+02  0.27054781776E+03  0.30793668334E+03  0.12509000000E+03 0.  0.
         25    1    3    3    0    0  0.67429216532E+02 -0.54954036881E+02  0.12008563757E+03  0.19399668518E+03  0.12509000000E+03 0.  0.
         25    1    4    4    0    0 -0.31411464242E+02 -0.13486394659E+02  0.26257426386E+03  0.29285032878E+03  0.12509000000E+03 0.  0.
<mgrwt>
<rscale>  2 0.45277014E+03</rscale>
<asrwt>0</asrwt>
<pdfrwt beam="1">  1       21 0.10646995E+00 0.45277014E+03</pdfrwt>
<pdfrwt beam="2">  1       21 0.10409999E-01 0.45277014E+03</pdfrwt>
<totfact> 0.48867760E+04</totfact>
</mgrwt>
</event>
<event>
 7    0  0.4793433E-002  0.4588871E+03  0.7546771E-02  0.1025104E+00
         21   -1    0    0  502  501  0.00000000000E+00  0.00000000000E+00  0.17971612610E+04  0.17971612610E+04  0.00000000000E+00 0.  1.
         21   -1    0    0  501  502 -0.00000000000E+00 -0.00000000000E+00 -0.29293056226E+02  0.29293056226E+02  0.00000000000E+00 0.  1.
      99926    2    1    2    0    0  0.00000000000E+00  0.71054273576E-14  0.17678682048E+04  0.18264543173E+04  0.45888711408E+03 0.  0.
      99925    2    3    3    0    0  0.17882155850E+02 -0.40304668834E+02  0.67792252543E+03  0.72846828369E+03  0.26295028432E+03 0.  0.
         25    1    3    3    0    0 -0.17882155850E+02  0.40304668834E+02  0.10899456794E+04  0.10979860336E+04  0.12509000000E+03 0.  0.
         25    1    4    4    0    0  0.39321571601E+02 -0.14308156478E+02  0.41326941089E+03  0.43380874059E+03  0.12509000000E+03 0.  0.
         25    1    4    4    0    0 -0.21439415752E+02 -0.25996512356E+02  0.26465311455E+03  0.29465954310E+03  0.12509000000E+03 0.  0.
<mgrwt>
<rscale>  2 0.45888711E+03</rscale>
<asrwt>0</asrwt>
<pdfrwt beam="1">  1       21 0.26428835E+00 0.45888711E+03</pdfrwt>
<pdfrwt beam="2">  1       21 0.43078036E-02 0.45888711E+03</pdfrwt>
<totfact> 0.16260422E+04</totfact>
</mgrwt>
</event>
<event>
 7    0  0.4793433E-002  0.4535343E+03  0.7546771E-02  0.1026673E+00
         21   -1    0    0  502  501  0.00000000000E+00  0.00000000000E+00  0.20740114842E+04  0.20740114842E+04  0.00000000000E+00 0.  1.
         21   -1    0    0  501  502 -0.00000000000E+00 -0.00000000000E+00 -0.24794148852E+02  0.24794148852E+02  0.00000000000E+00 0.  1.
      99926    2    1    2    0    0  0.00000000000E+00  0.00000000000E+00  0.20492173353E+04  0.20988056330E+04  0.45353434031E+03 0.  0.
      99925    2    3    3    0    0 -0.29309174922E+02 -0.37131128278E+02  0.17598121869E+04  0.17799944092E+04  0.26306541982E+03 0.  0.
         25    1    4    4    0    0 -0.26722880330E+02 -0.96375577179E+01  0.11321097187E+04  0.11393537283E+04  0.12509000000E+03 0.  0.
         25    1    4    4    0    0 -0.25862945922E+01 -0.27493570561E+02  0.62770246821E+03  0.64064068091E+03  0.12509000000E+03 0.  0.
         25    1    3    3    0    0  0.29309174922E+02  0.37131128278E+02  0.28940514843E+03  0.31881122386E+03  0.12509000000E+03 0.  0.
<mgrwt>
<rscale>  2 0.45353434E+03</rscale>
<asrwt>0</asrwt>
<pdfrwt beam="1">  1       21 0.30500157E+00 0.45353434E+03</pdfrwt>
<pdfrwt beam="2">  1       21 0.36461998E-02 0.45353434E+03</pdfrwt>
<totfact> 0.12302267E+04</totfact>
</mgrwt>
</event>
<event>
 7    0  0.4793433E-002  0.4644773E+03  0.7546771E-02  0.1023491E+00
         21   -1    0    0  502  501  0.00000000000E+00  0.00000000000E+00  0.44457763338E+02  0.44457763338E+02  0.00000000000E+00 0. -1.
         21   -1    0    0  501  502 -0.00000000000E+00 -0.00000000000E+00 -0.12131693109E+04  0.12131693109E+04  0.00000000000E+00 0. -1.
      99926    2    1    2    0    0  0.00000000000E+00  0.00000000000E+00 -0.11687115476E+04  0.12576270743E+04  0.46447731534E+03 0.  0.
      99925    2    3    3    0    0 -0.10688474143E+02  0.68704979708E+02 -0.10001999955E+04  0.10365427713E+04  0.26303282707E+03 0.  0.
         25    1    4    4    0    0 -0.20843586351E+02  0.20495011846E+02 -0.62282749749E+03  0.63593718269E+03  0.12509000000E+03 0.  0.
         25    1    3    3    0    0  0.10688474143E+02 -0.68704979708E+02 -0.16851155216E+03  0.22108430299E+03  0.12509000000E+03 0.  0.
         25    1    4    4    0    0  0.10155112208E+02  0.48209967861E+02 -0.37737249796E+03  0.40060558861E+03  0.12509000000E+03 0.  0.
<mgrwt>
<rscale>  2 0.46447732E+03</rscale>
<asrwt>0</asrwt>
<pdfrwt beam="1">  1       21 0.65379067E-02 0.46447732E+03</pdfrwt>
<pdfrwt beam="2">  1       21 0.17840724E+00 0.46447732E+03</pdfrwt>
<totfact> 0.28229806E+04</totfact>
</mgrwt>
</event>
<event>
 7    0  0.4793433E-002  0.4625716E+03  0.7546771E-02  0.1024038E+00
         21   -1    0    0  502  501  0.00000000000E+00  0.00000000000E+00  0.32013513985E+03  0.32013513985E+03  0.00000000000E+00 0.  1.
         21   -1    0    0  501  502 -0.00000000000E+00 -0.00000000000E+00 -0.16709544510E+03  0.16709544510E+03  0.00000000000E+00 0.  1.
      99926    2    1    2    0    0 -0.71054273576E-14  0.00000000000E+00  0.15303969474E+03  0.48723058495E+03  0.46257161039E+03 0.  0.
      99925    2    3    3    0    0  0.62134453743E+02 -0.73262464311E+02  0.19589001799E+02  0.28062788756E+03  0.26294524766E+03 0.  0.
         25    1    4    4    0    0  0.16944570421E+02 -0.70224886197E+02 -0.83362304094E+01  0.14469158215E+03  0.12509000000E+03 0.  0.
         25    1    4    4    0    0  0.45189883322E+02 -0.30375781144E+01  0.27925232209E+02  0.13593630541E+03  0.12509000000E+03 0.  0.
         25    1    3    3    0    0 -0.62134453743E+02  0.73262464311E+02  0.13345069294E+03  0.20660269738E+03  0.12509000000E+03 0.  0.
<mgrwt>
<rscale>  2 0.46257161E+03</rscale>
<asrwt>0</asrwt>
<pdfrwt beam="1">  1       21 0.47078697E-01 0.46257161E+03</pdfrwt>
<pdfrwt beam="2">  1       21 0.24572860E-01 0.46257161E+03</pdfrwt>
<totfact> 0.62345150E+04</totfact>
</mgrwt>
</event>
<event>
 7    0  0.4793433E-002  0.4533724E+03  0.7546771E-02  0.1026721E+00
         21   -1    0    0  502  501  0.00000000000E+00  0.00000000000E+00  0.28843631347E+03  0.28843631347E+03  0.00000000000E+00 0. -1.
         21   -1    0    0  501  502 -0.00000000000E+00 -0.00000000000E+00 -0.17815589830E+03  0.17815589830E+03  0.00000000000E+00 0. -1.
      99926    2    1    2    0    0  0.14210854715E-13  0.00000000000E+00  0.11028041517E+03  0.46659221176E+03  0.45337238790E+03 0.  0.
      99925    2    3    3    0    0  0.92423820313E+02 -0.23238613362E+02  0.12837806089E+03  0.30829745950E+03  0.26359856090E+03 0.  0.
         25    1    4    4    0    0  0.89903301918E+02 -0.17644229511E+02  0.70240898641E+02  0.17022107529E+03  0.12509000000E+03 0.  0.
         25    1    3    3    0    0 -0.92423820313E+02  0.23238613362E+02 -0.18097645720E+02  0.15829475226E+03  0.12509000000E+03 0.  0.
         25    1    4    4    0    0  0.25205183952E+01 -0.55943838507E+01  0.58137162247E+02  0.13807638421E+03  0.12509000000E+03 0.  0.
<mgrwt>
<rscale>  2 0.45337239E+03</rscale>
<asrwt>0</asrwt>
<pdfrwt beam="1">  1       21 0.42417105E-01 0.45337239E+03</pdfrwt>
<pdfrwt beam="2">  1       21 0.26199397E-01 0.45337239E+03</pdfrwt>
<totfact> 0.68571177E+04</totfact>
</mgrwt>
</event>
<event>
 7    0  0.4793433E-002  0.4523257E+03  0.7546771E-02  0.1027031E+00
         21   -1    0    0  502  501  0.00000000000E+00  0.00000000000E+00  0.17460850309E+04  0.17460850309E+04  0.00000000000E+00 0.  1.
         21   -1    0    0  501  502 -0.00000000000E+00 -0.00000000000E+00 -0.29293902933E+02  0.29293902933E+02  0.00000000000E+00 0.  1.
      99926    2    1    2    0    0  0.00000000000E+00  0.00000000000E+00  0.17167911280E+04  0.17753789338E+04  0.45232574726E+03 0.  0.
      99925    2    3    3    0    0 -0.25680479037E+02  0.86201201374E+02  0.83037680661E+03  0.87567454275E+03  0.26304016756E+03 0.  0.
         25    1    3    3    0    0  0.25680479037E+02 -0.86201201374E+02  0.88641432136E+03  0.89970439108E+03  0.12509000000E+03 0.  0.
         25    1    4    4    0    0 -0.13684422940E+02  0.53095142990E+02  0.30028353397E+03  0.32988492920E+03  0.12509000000E+03 0.  0.
         25    1    4    4    0    0 -0.11996056096E+02  0.33106058384E+02  0.53009327264E+03  0.54578961356E+03  0.12509000000E+03 0.  0.
<mgrwt>
<rscale>  2 0.45232575E+03</rscale>
<asrwt>0</asrwt>
<pdfrwt beam="1">  1       21 0.25677714E+00 0.45232575E+03</pdfrwt>
<pdfrwt beam="2">  1       21 0.43079281E-02 0.45232575E+03</pdfrwt>
<totfact> 0.18110466E+04</totfact>
</mgrwt>
</event>
<event>
 7    0  0.4793433E-002  0.4562618E+03  0.7546771E-02  0.1025871E+00
         21   -1    0    0  502  501  0.00000000000E+00  0.00000000000E+00  0.22905437963E+03  0.22905437963E+03  0.00000000000E+00 0.  1.
         21   -1    0    0  501  502 -0.00000000000E+00 -0.00000000000E+00 -0.22721114872E+03  0.22721114872E+03  0.00000000000E+00 0.  1.
      99926    2    1    2    0    0 -0.71054273576E-14  0.00000000000E+00  0.18432309134E+01  0.45626552835E+03  0.45626180517E+03 0.  0.
      99925    2    3    3    0    0 -0.36021482467E+02  0.36849198459E+02  0.10360590186E+03  0.28697713559E+03  0.26261432334E+03 0.  0.
         25    1    4    4    0    0 -0.21217330436E+01 -0.18882368133E+02  0.50756391895E+02  0.13632595129E+03  0.12509000000E+03 0.  0.
         25    1    3    3    0    0  0.36021482467E+02 -0.36849198459E+02 -0.10176267094E+03  0.16928839276E+03  0.12509000000E+03 0.  0.
         25    1    4    4    0    0 -0.33899749423E+02  0.55731566593E+02  0.52849509962E+02  0.15065118429E+03  0.12509000000E+03 0.  0.
<mgrwt>
<rscale>  2 0.45626181E+03</rscale>
<asrwt>0</asrwt>
<pdfrwt beam="1">  1       21 0.33684468E-01 0.45626181E+03</pdfrwt>
<pdfrwt beam="2">  1       21 0.33413404E-01 0.45626181E+03</pdfrwt>
<totfact> 0.67768319E+04</totfact>
</mgrwt>
</event>
<event>
 7    0  0.4793433E-002  0.4536932E+03  0.7546771E-02  0.1026626E+00
         21   -1    0    0  502  501  0.00000000000E+00  0.00000000000E+00  0.22213178073E+03  0.22213178073E+03  0.00000000000E+00 0. -1.
         21   -1    0    0  501  502 -0.00000000000E+00 -0.00000000000E+00 -0.23166153663E+03  0.23166153663E+03  0.00000000000E+00 0. -1.
      99926    2    1    2    0    0 -0.14210854715E-13  0.00000000000E+00 -0.95297558967E+01  0.45379331736E+03  0.45369324288E+03 0.  0.
      99925    2    3    3    0    0 -0.72437014973E+02 -0.83361757992E+02 -0.21150049980E+02  0.28652454213E+03  0.26353877285E+03 0.  0.
         25    1    4    4    0    0  0.26333226286E+01 -0.56146295722E+02 -0.15524261155E+02  0.13801395471E+03  0.12509000000E+03 0.  0.
         25    1    3    3    0    0  0.72437014973E+02  0.83361757992E+02  0.11620294083E+02  0.16726877523E+03  0.12509000000E+03 0.  0.
         25    1    4    4    0    0 -0.75070337602E+02 -0.27215462271E+02 -0.56257888246E+01  0.14851058741E+03  0.12509000000E+03 0.  0.
<mgrwt>
<rscale>  2 0.45369324E+03</rscale>
<asrwt>0</asrwt>
<pdfrwt beam="1">  1       21 0.32666439E-01 0.45369324E+03</pdfrwt>
<pdfrwt beam="2">  1       21 0.34067873E-01 0.45369324E+03</pdfrwt>
<totfact> 0.69354600E+04</totfact>
</mgrwt>
</event>
<event>
 7    0  0.4793433E-002  0.4516413E+03  0.7546771E-02  0.1027234E+00
         21   -1    0    0  502  501  0.00000000000E+00  0.00000000000E+00  0.87015381971E+03  0.87015381971E+03  0.00000000000E+00 0. -1.
         21   -1    0    0  501  502 -0.00000000000E+00 -0.00000000000E+00 -0.58604554632E+02  0.58604554632E+02  0.00000000000E+00 0. -1.
      99926    2    1    2    0    0  0.00000000000E+00  0.00000000000E+00  0.81154926508E+03  0.92875837434E+03  0.45164134915E+03 0.  0.
      99925    2    3    3    0    0 -0.68054412338E+02  0.40403408568E+02  0.35498932895E+03  0.44880179106E+03  0.26294825636E+03 0.  0.
         25    1    3    3    0    0  0.68054412338E+02 -0.40403408568E+02  0.45655993612E+03  0.47995658328E+03  0.12509000000E+03 0.  0.
         25    1    4    4    0    0 -0.61572387341E+02 -0.31340654873E+01  0.21228902402E+03  0.25399826587E+03  0.12509000000E+03 0.  0.
         25    1    4    4    0    0 -0.64820249961E+01  0.43537474056E+02  0.14270030494E+03  0.19480352519E+03  0.12509000000E+03 0.  0.
<mgrwt>
<rscale>  2 0.45164135E+03</rscale>
<asrwt>0</asrwt>
<pdfrwt beam="1">  1       21 0.12796379E+00 0.45164135E+03</pdfrwt>
<pdfrwt beam="2">  1       21 0.86183174E-02 0.45164135E+03</pdfrwt>
<totfact> 0.43135218E+04</totfact>
</mgrwt>
</event>
<event>
 7    0  0.4793433E-002  0.4444930E+03  0.7546771E-02  0.1029377E+00
         21   -1    0    0  502  501  0.00000000000E+00  0.00000000000E+00  0.10941581246E+03  0.10941581246E+03  0.00000000000E+00 0. -1.
         21   -1    0    0  501  502 -0.00000000000E+00 -0.00000000000E+00 -0.45142927317E+03  0.45142927317E+03  0.00000000000E+00 0. -1.
      99926    2    1    2    0    0 -0.14210854715E-13  0.00000000000E+00 -0.34201346071E+03  0.56084508563E+03  0.44449297269E+03 0.  0.
      99925    2    3    3    0    0 -0.67672872471E+02  0.70266530862E+02 -0.17514932691E+03  0.33061009638E+03  0.26288542386E+03 0.  0.
         25    1    4    4    0    0 -0.26034331987E+02  0.75525322637E+02 -0.90040807263E+02  0.17359929687E+03  0.12509000000E+03 0.  0.
         25    1    3    3    0    0  0.67672872471E+02 -0.70266530862E+02 -0.16686413380E+03  0.23023498925E+03  0.12509000000E+03 0.  0.
         25    1    4    4    0    0 -0.41638540484E+02 -0.52587917751E+01 -0.85108519646E+02  0.15701079950E+03  0.12509000000E+03 0.  0.
<mgrwt>
<rscale>  2 0.44449297E+03</rscale>
<asrwt>0</asrwt>
<pdfrwt beam="1">  1       21 0.16090561E-01 0.44449297E+03</pdfrwt>
<pdfrwt beam="2">  1       21 0.66386657E-01 0.44449297E+03</pdfrwt>
<totfact> 0.66513178E+04</totfact>
</mgrwt>
</event>
<event>
 7    0  0.4793433E-002  0.4353094E+03  0.7546771E-02  0.1032196E+00
         21   -1    0    0  502  501  0.00000000000E+00  0.00000000000E+00  0.27522796413E+03  0.27522796413E+03  0.00000000000E+00 0.  1.
         21   -1    0    0  501  502 -0.00000000000E+00 -0.00000000000E+00 -0.17212483028E+03  0.17212483028E+03  0.00000000000E+00 0.  1.
      99926    2    1    2    0    0  0.00000000000E+00  0.00000000000E+00  0.10310313384E+03  0.44735279441E+03  0.43530939165E+03 0.  0.
      99925    2    3    3    0    0 -0.40518852177E+02  0.66049883614E+02  0.12014169166E+03  0.29922384701E+03  0.26286216927E+03 0.  0.
         25    1    3    3    0    0  0.40518852177E+02 -0.66049883614E+02 -0.17038557816E+02  0.14812894741E+03  0.12509000000E+03 0.  0.
         25    1    4    4    0    0  0.58518279461E+01  0.56347183175E+02  0.82788969549E+02  0.16034578423E+03  0.12509000000E+03 0.  0.
         25    1    4    4    0    0 -0.46370680123E+02  0.97027004393E+01  0.37352722110E+02  0.13887806277E+03  0.12509000000E+03 0.  0.
<mgrwt>
<rscale>  2 0.43530939E+03</rscale>
<asrwt>0</asrwt>
<pdfrwt beam="1">  1       21 0.40474701E-01 0.43530939E+03</pdfrwt>
<pdfrwt beam="2">  1       21 0.25312475E-01 0.43530939E+03</pdfrwt>
<totfact> 0.81103515E+04</totfact>
</mgrwt>
</event>
<event>
 7    0  0.4793433E-002  0.4508637E+03  0.7546771E-02  0.1027465E+00
         21   -1    0    0  502  501  0.00000000000E+00  0.00000000000E+00  0.72581634582E+03  0.72581634582E+03  0.00000000000E+00 0. -1.
         21   -1    0    0  501  502 -0.00000000000E+00 -0.00000000000E+00 -0.70017041038E+02  0.70017041038E+02  0.00000000000E+00 0. -1.
      99926    2    1    2    0    0  0.35527136788E-14 -0.71054273576E-14  0.65579930478E+03  0.79583338686E+03  0.45086367284E+03 0.  0.
      99925    2    3    3    0    0  0.17743259437E+02  0.34269515685E+02  0.23389791418E+03  0.35408966653E+03  0.26302477967E+03 0.  0.
         25    1    4    4    0    0  0.34354511549E+02  0.17919289041E+02  0.76387642720E+02  0.15160446380E+03  0.12509000000E+03 0.  0.
         25    1    3    3    0    0 -0.17743259437E+02 -0.34269515685E+02  0.42190139060E+03  0.44174372033E+03  0.12509000000E+03 0.  0.
         25    1    4    4    0    0 -0.16611252113E+02  0.16350226644E+02  0.15751027146E+03  0.20248520273E+03  0.12509000000E+03 0.  0.
<mgrwt>
<rscale>  2 0.45086367E+03</rscale>
<asrwt>0</asrwt>
<pdfrwt beam="1">  1       21 0.10673769E+00 0.45086367E+03</pdfrwt>
<pdfrwt beam="2">  1       21 0.10296624E-01 0.45086367E+03</pdfrwt>
<totfact> 0.49556240E+04</totfact>
</mgrwt>
</event>
<event>
 7    0  0.4793433E-002  0.4512546E+03  0.7546771E-02  0.1027349E+00
         21   -1    0    0  502  501  0.00000000000E+00  0.00000000000E+00  0.55035241056E+02  0.55035241056E+02  0.00000000000E+00 0.  1.
         21   -1    0    0  501  502 -0.00000000000E+00 -0.00000000000E+00 -0.92500142695E+03  0.92500142695E+03  0.00000000000E+00 0.  1.
      99926    2    1    2    0    0  0.00000000000E+00  0.35527136788E-14 -0.86996618589E+03  0.98003666800E+03  0.45125459115E+03 0.  0.
      99925    2    3    3    0    0  0.10081365107E+03  0.27560999773E+02 -0.62188274253E+03  0.68319343678E+03  0.26285381043E+03 0.  0.
         25    1    4    4    0    0  0.93561833388E+02  0.14059399058E+02 -0.34313974757E+03  0.37728487623E+03  0.12509000000E+03 0.  0.
         25    1    4    4    0    0  0.72518176833E+01  0.13501600714E+02 -0.27874299496E+03  0.30590856055E+03  0.12509000000E+03 0.  0.
         25    1    3    3    0    0 -0.10081365107E+03 -0.27560999773E+02 -0.24808344336E+03  0.29684323122E+03  0.12509000000E+03 0.  0.
<mgrwt>
<rscale>  2 0.45125459E+03</rscale>
<asrwt>0</asrwt>
<pdfrwt beam="1">  1       21 0.80934177E-02 0.45125459E+03</pdfrwt>
<pdfrwt beam="2">  1       21 0.13602962E+00 0.45125459E+03</pdfrwt>
<totfact> 0.41139042E+04</totfact>
</mgrwt>
</event>
<event>
 7    0  0.4793433E-002  0.4699463E+03  0.7546771E-02  0.1021935E+00
         21   -1    0    0  502  501  0.00000000000E+00  0.00000000000E+00  0.55735033824E+03  0.55735033824E+03  0.00000000000E+00 0. -1.
         21   -1    0    0  501  502 -0.00000000000E+00 -0.00000000000E+00 -0.99062259046E+02  0.99062259046E+02  0.00000000000E+00 0. -1.
      99926    2    1    2    0    0  0.00000000000E+00  0.00000000000E+00  0.45828807920E+03  0.65641259729E+03  0.46994631007E+03 0.  0.
      99925    2    3    3    0    0  0.38918982925E+02  0.10601848091E+03  0.36472299185E+03  0.46365228188E+03  0.26305127292E+03 0.  0.
         25    1    4    4    0    0  0.28498156529E+02  0.49214277946E+02  0.24601278272E+03  0.28178713143E+03  0.12509000000E+03 0.  0.
         25    1    3    3    0    0 -0.38918982925E+02 -0.10601848091E+03  0.93565087352E+02  0.19276031541E+03  0.12509000000E+03 0.  0.
         25    1    4    4    0    0  0.10420826396E+02  0.56804202962E+02  0.11871020913E+03  0.18186515045E+03  0.12509000000E+03 0.  0.
<mgrwt>
<rscale>  2 0.46994631E+03</rscale>
<asrwt>0</asrwt>
<pdfrwt beam="1">  1       21 0.81963284E-01 0.46994631E+03</pdfrwt>
<pdfrwt beam="2">  1       21 0.14567979E-01 0.46994631E+03</pdfrwt>
<totfact> 0.49263309E+04</totfact>
</mgrwt>
</event>
<event>
 6    0  0.4793433E-002  0.4533844E+03  0.7546771E-02  0.1026718E+00
         21   -1    0    0  502  501  0.00000000000E+00  0.00000000000E+00  0.22404862972E+03  0.22404862972E+03  0.00000000000E+00 0.  1.
         21   -1    0    0  501  502 -0.00000000000E+00 -0.00000000000E+00 -0.22936698455E+03  0.22936698455E+03  0.00000000000E+00 0.  1.
      99926    2    1    2    0    0  0.14210854715E-13  0.00000000000E+00 -0.53183548266E+01  0.45341561427E+03  0.45338442228E+03 0.  0.
         25    1    3    3    0    0 -0.11921403703E+02 -0.10826709159E+02  0.32472670193E+02  0.13023563225E+03  0.12509000000E+03 0.  0.
         25    1    3    3    0    0  0.94858486992E+02 -0.80260076064E+01  0.25422062664E+02  0.15923673798E+03  0.12509000000E+03 0.  0.
         25    1    3    3    0    0 -0.82937083289E+02  0.18852716765E+02 -0.63213087684E+02  0.16394324405E+03  0.12509000000E+03 0.  0.
<mgrwt>
<rscale>  2 0.45338442E+03</rscale>
<asrwt>0</asrwt>
<pdfrwt beam="1">  1       21 0.32948328E-01 0.45338442E+03</pdfrwt>
<pdfrwt beam="2">  1       21 0.33730439E-01 0.45338442E+03</pdfrwt>
<totfact> 0.69554302E+04</totfact>
</mgrwt>
</event>
<event>
 7    0  0.4793433E-002  0.4597651E+03  0.7546771E-02  0.1024849E+00
         21   -1    0    0  502  501  0.00000000000E+00  0.00000000000E+00  0.10249841849E+04  0.10249841849E+04  0.00000000000E+00 0. -1.
         21   -1    0    0  501  502 -0.00000000000E+00 -0.00000000000E+00 -0.51557863499E+02  0.51557863499E+02  0.00000000000E+00 0. -1.
      99926    2    1    2    0    0  0.00000000000E+00  0.00000000000E+00  0.97342632141E+03  0.10765420484E+04  0.45976513436E+03 0.  0.
      99925    2    3    3    0    0  0.69253824881E+02 -0.18172484249E+02  0.39124747075E+03  0.47678705368E+03  0.26291629798E+03 0.  0.
         25    1    3    3    0    0 -0.69253824881E+02  0.18172484249E+02  0.58217885066E+03  0.59975499473E+03  0.12509000000E+03 0.  0.
         25    1    4    4    0    0  0.40680023810E+01 -0.29797057316E+01  0.13663142620E+03  0.18531346960E+03  0.12509000000E+03 0.  0.
         25    1    4    4    0    0  0.65185822500E+02 -0.15192778518E+02  0.25461604456E+03  0.29147358408E+03  0.12509000000E+03 0.  0.
<mgrwt>
<rscale>  2 0.45976513E+03</rscale>
<asrwt>0</asrwt>
<pdfrwt beam="1">  1       21 0.15073296E+00 0.45976513E+03</pdfrwt>
<pdfrwt beam="2">  1       21 0.75820394E-02 0.45976513E+03</pdfrwt>
<totfact> 0.34998731E+04</totfact>
</mgrwt>
</event>
<event>
 7    0  0.4793433E-002  0.4493624E+03  0.7546771E-02  0.1027912E+00
         21   -1    0    0  502  501  0.00000000000E+00  0.00000000000E+00  0.18281805341E+02  0.18281805341E+02  0.00000000000E+00 0.  1.
         21   -1    0    0  501  502 -0.00000000000E+00 -0.00000000000E+00 -0.27613056167E+04  0.27613056167E+04  0.00000000000E+00 0.  1.
      99926    2    1    2    0    0  0.00000000000E+00  0.71054273576E-14 -0.27430238113E+04  0.27795874220E+04  0.44936244512E+03 0.  0.
      99925    2    3    3    0    0 -0.51412441902E+02  0.47127358847E+02 -0.12272728700E+04  0.12570853198E+04  0.26306002466E+03 0.  0.
         25    1    4    4    0    0  0.11894947167E+02  0.19389419914E+02 -0.50069118258E+03  0.51658165646E+03  0.12509000000E+03 0.  0.
         25    1    4    4    0    0 -0.63307389069E+02  0.27737938933E+02 -0.72658168744E+03  0.74050366332E+03  0.12509000000E+03 0.  0.
         25    1    3    3    0    0  0.51412441902E+02 -0.47127358847E+02 -0.15157509413E+04  0.15225021022E+04  0.12509000000E+03 0.  0.
<mgrwt>
<rscale>  2 0.44936245E+03</rscale>
<asrwt>0</asrwt>
<pdfrwt beam="1">  1       21 0.26885018E-02 0.44936245E+03</pdfrwt>
<pdfrwt beam="2">  1       21 0.40607421E+00 0.44936245E+03</pdfrwt>
<totfact> 0.48841281E+03</totfact>
</mgrwt>
</event>
<event>
 7    0  0.4793433E-002  0.4506937E+03  0.7546771E-02  0.1027515E+00
         21   -1    0    0  502  501  0.00000000000E+00  0.00000000000E+00  0.13734410815E+03  0.13734410815E+03  0.00000000000E+00 0. -1.
         21   -1    0    0  501  502 -0.00000000000E+00 -0.00000000000E+00 -0.36973699203E+03  0.36973699203E+03  0.00000000000E+00 0. -1.
      99926    2    1    2    0    0  0.00000000000E+00  0.17763568394E-14 -0.23239288388E+03  0.50708110018E+03  0.45069367610E+03 0.  0.
      99925    2    3    3    0    0  0.10852202280E+03 -0.10559560276E+02 -0.14407916456E+03  0.31910409396E+03  0.26302107021E+03 0.  0.
         25    1    4    4    0    0  0.53313401959E+02 -0.30877419742E+02 -0.37043207326E+02  0.14427557377E+03  0.12509000000E+03 0.  0.
         25    1    4    4    0    0  0.55208620843E+02  0.20317859466E+02 -0.10703595723E+03  0.17482852018E+03  0.12509000000E+03 0.  0.
         25    1    3    3    0    0 -0.10852202280E+03  0.10559560276E+02 -0.88313719325E+02  0.18797700622E+03  0.12509000000E+03 0.  0.
<mgrwt>
<rscale>  2 0.45069368E+03</rscale>
<asrwt>0</asrwt>
<pdfrwt beam="1">  1       21 0.20197664E-01 0.45069368E+03</pdfrwt>
<pdfrwt beam="2">  1       21 0.54373085E-01 0.45069368E+03</pdfrwt>
<totfact> 0.67038002E+04</totfact>
</mgrwt>
</event>
<event>
 7    0  0.4793433E-002  0.4614889E+03  0.7546771E-02  0.1024350E+00
         21   -1    0    0  502  501  0.00000000000E+00  0.00000000000E+00  0.79646356550E+02  0.79646356550E+02  0.00000000000E+00 0. -1.
         21   -1    0    0  501  502 -0.00000000000E+00 -0.00000000000E+00 -0.66849247419E+03  0.66849247419E+03  0.00000000000E+00 0. -1.
      99926    2    1    2    0    0  0.14210854715E-13  0.17763568394E-14 -0.58884611764E+03  0.74813883074E+03  0.46148885122E+03 0.  0.
      99925    2    3    3    0    0 -0.83954563679E+02 -0.15816125122E+02 -0.50250481561E+03  0.57378044376E+03  0.26346610664E+03 0.  0.
         25    1    4    4    0    0 -0.18755331507E+02  0.16136354083E+02 -0.18279143804E+03  0.22287297347E+03  0.12509000000E+03 0.  0.
         25    1    3    3    0    0  0.83954563679E+02  0.15816125122E+02 -0.86341302030E+02  0.17435838699E+03  0.12509000000E+03 0.  0.
         25    1    4    4    0    0 -0.65199232172E+02 -0.31952479205E+02 -0.31971337758E+03  0.35090747029E+03  0.12509000000E+03 0.  0.
<mgrwt>
<rscale>  2 0.46148885E+03</rscale>
<asrwt>0</asrwt>
<pdfrwt beam="1">  1       21 0.11712699E-01 0.46148885E+03</pdfrwt>
<pdfrwt beam="2">  1       21 0.98307718E-01 0.46148885E+03</pdfrwt>
<totfact> 0.47877078E+04</totfact>
</mgrwt>
</event>
<event>
 7    0  0.4793433E-002  0.4572504E+03  0.7546771E-02  0.1025582E+00
         21   -1    0    0  502  501  0.00000000000E+00  0.00000000000E+00  0.10736135797E+03  0.10736135797E+03  0.00000000000E+00 0. -1.
         21   -1    0    0  501  502 -0.00000000000E+00 -0.00000000000E+00 -0.48685564863E+03  0.48685564863E+03  0.00000000000E+00 0. -1.
      99926    2    1    2    0    0 -0.14210854715E-13  0.00000000000E+00 -0.37949429066E+03  0.59421700660E+03  0.45725040655E+03 0.  0.
      99925    2    3    3    0    0 -0.87550317836E+02  0.72955540952E+02 -0.22135284174E+03  0.36260570490E+03  0.26362520284E+03 0.  0.
         25    1    4    4    0    0 -0.64079055541E+02  0.46995760821E+02 -0.16272344700E+03  0.22009351466E+03  0.12509000000E+03 0.  0.
         25    1    3    3    0    0  0.87550317836E+02 -0.72955540952E+02 -0.15814144892E+03  0.23161130170E+03  0.12509000000E+03 0.  0.
         25    1    4    4    0    0 -0.23471262296E+02  0.25959780131E+02 -0.58629394741E+02  0.14251219024E+03  0.12509000000E+03 0.  0.
<mgrwt>
<rscale>  2 0.45725041E+03</rscale>
<asrwt>0</asrwt>
<pdfrwt beam="1">  1       21 0.15788435E-01 0.45725041E+03</pdfrwt>
<pdfrwt beam="2">  1       21 0.71596419E-01 0.45725041E+03</pdfrwt>
<totfact> 0.57997306E+04</totfact>
</mgrwt>
</event>
<event>
 7    0  0.4793433E-002  0.4554535E+03  0.7546771E-02  0.1026108E+00
         21   -1    0    0  502  501  0.00000000000E+00  0.00000000000E+00  0.11734342134E+04  0.11734342134E+04  0.00000000000E+00 0. -1.
         21   -1    0    0  501  502 -0.00000000000E+00 -0.00000000000E+00 -0.44194607414E+02  0.44194607414E+02  0.00000000000E+00 0. -1.
      99926    2    1    2    0    0  0.00000000000E+00  0.00000000000E+00  0.11292396060E+04  0.12176288208E+04  0.45545346364E+03 0.  0.
      99925    2    3    3    0    0 -0.16088686894E+02  0.10771484068E+03  0.62378363485E+03  0.68565647228E+03  0.26297802593E+03 0.  0.
         25    1    4    4    0    0 -0.31449661442E+02  0.18675711804E+02  0.28625004729E+03  0.31452259233E+03  0.12509000000E+03 0.  0.
         25    1    4    4    0    0  0.15360974548E+02  0.89039128873E+02  0.33753358757E+03  0.37113387995E+03  0.12509000000E+03 0.  0.
         25    1    3    3    0    0  0.16088686894E+02 -0.10771484068E+03  0.50545597110E+03  0.53197234850E+03  0.12509000000E+03 0.  0.
<mgrwt>
<rscale>  2 0.45545346E+03</rscale>
<asrwt>0</asrwt>
<pdfrwt beam="1">  1       21 0.17256383E+00 0.45545346E+03</pdfrwt>
<pdfrwt beam="2">  1       21 0.64992078E-02 0.45545346E+03</pdfrwt>
<totfact> 0.31490781E+04</totfact>
</mgrwt>
</event>
<event>
 7    0  0.4793433E-002  0.4415226E+03  0.7546771E-02  0.1030281E+00
         21   -1    0    0  502  501  0.00000000000E+00  0.00000000000E+00  0.37936732400E+02  0.37936732400E+02  0.00000000000E+00 0.  1.
         21   -1    0    0  501  502 -0.00000000000E+00 -0.00000000000E+00 -0.12846532846E+04  0.12846532846E+04  0.00000000000E+00 0.  1.
      99926    2    1    2    0    0  0.00000000000E+00  0.00000000000E+00 -0.12467165522E+04  0.13225900170E+04  0.44152258327E+03 0.  0.
      99925    2    3    3    0    0  0.89526646744E+02 -0.34053844933E+02 -0.70824355921E+03  0.76154157246E+03  0.26298658255E+03 0.  0.
         25    1    4    4    0    0  0.19989011974E+02 -0.20728584593E+02 -0.42426849064E+03  0.44326120411E+03  0.12509000000E+03 0.  0.
         25    1    4    4    0    0  0.69537634770E+02 -0.13325260341E+02 -0.28397506857E+03  0.31828036836E+03  0.12509000000E+03 0.  0.
         25    1    3    3    0    0 -0.89526646744E+02  0.34053844933E+02 -0.53847299296E+03  0.56104844450E+03  0.12509000000E+03 0.  0.
<mgrwt>
<rscale>  2 0.44152258E+03</rscale>
<asrwt>0</asrwt>
<pdfrwt beam="1">  1       21 0.55789309E-02 0.44152258E+03</pdfrwt>
<pdfrwt beam="2">  1       21 0.18891961E+00 0.44152258E+03</pdfrwt>
<totfact> 0.31655392E+04</totfact>
</mgrwt>
</event>
<event>
 7    0  0.4793433E-002  0.4682443E+03  0.7546771E-02  0.1022417E+00
         21   -1    0    0  502  501  0.00000000000E+00  0.00000000000E+00  0.90781105229E+03  0.90781105229E+03  0.00000000000E+00 0. -1.
         21   -1    0    0  501  502 -0.00000000000E+00 -0.00000000000E+00 -0.60379516283E+02  0.60379516283E+02  0.00000000000E+00 0. -1.
      99926    2    1    2    0    0  0.71054273576E-14  0.44408920985E-15  0.84743153601E+03  0.96819056857E+03  0.46824434738E+03 0.  0.
      99925    2    3    3    0    0 -0.42679620496E+02  0.24383189837E+01  0.77027174806E+03  0.81512641084E+03  0.26322044828E+03 0.  0.
         25    1    4    4    0    0 -0.42756587577E+01  0.82903931553E+01  0.26555457600E+03  0.29368989225E+03  0.12509000000E+03 0.  0.
         25    1    3    3    0    0  0.42679620496E+02 -0.24383189837E+01  0.77159787948E+02  0.15306415773E+03  0.12509000000E+03 0.  0.
         25    1    4    4    0    0 -0.38403961739E+02 -0.58520741716E+01  0.50471717206E+03  0.52143651859E+03  0.12509000000E+03 0.  0.
<mgrwt>
<rscale>  2 0.46824435E+03</rscale>
<asrwt>0</asrwt>
<pdfrwt beam="1">  1       21 0.13350162E+00 0.46824435E+03</pdfrwt>
<pdfrwt beam="2">  1       21 0.88793412E-02 0.46824435E+03</pdfrwt>
<totfact> 0.36485714E+04</totfact>
</mgrwt>
</event>
<event>
 7    0  0.4793433E-002  0.4739135E+03  0.7546771E-02  0.1020821E+00
         21   -1    0    0  502  501  0.00000000000E+00  0.00000000000E+00  0.44260845402E+03  0.44260845402E+03  0.00000000000E+00 0.  1.
         21   -1    0    0  501  502 -0.00000000000E+00 -0.00000000000E+00 -0.12685817373E+03  0.12685817373E+03  0.00000000000E+00 0.  1.
      99926    2    1    2    0    0  0.00000000000E+00  0.00000000000E+00  0.31575028029E+03  0.56946662775E+03  0.47391349486E+03 0.  0.
      99925    2    3    3    0    0 -0.11753941587E+03 -0.42440454379E+02  0.23892026053E+03  0.37667900759E+03  0.26303512581E+03 0.  0.
         25    1    4    4    0    0 -0.35873480299E+02 -0.39794946882E+02  0.15120220927E+03  0.20342114092E+03  0.12509000000E+03 0.  0.
         25    1    3    3    0    0  0.11753941587E+03  0.42440454379E+02  0.76830019761E+02  0.19278762016E+03  0.12509000000E+03 0.  0.
         25    1    4    4    0    0 -0.81665935575E+02 -0.26455074969E+01  0.87718051264E+02  0.17325786666E+03  0.12509000000E+03 0.  0.
<mgrwt>
<rscale>  2 0.47391349E+03</rscale>
<asrwt>0</asrwt>
<pdfrwt beam="1">  1       21 0.65089478E-01 0.47391349E+03</pdfrwt>
<pdfrwt beam="2">  1       21 0.18655614E-01 0.47391349E+03</pdfrwt>
<totfact> 0.52321735E+04</totfact>
</mgrwt>
</event>
<event>
 7    0  0.4793433E-002  0.4510062E+03  0.7546771E-02  0.1027422E+00
         21   -1    0    0  502  501  0.00000000000E+00  0.00000000000E+00  0.12223527598E+04  0.12223527598E+04  0.00000000000E+00 0. -1.
         21   -1    0    0  501  502 -0.00000000000E+00 -0.00000000000E+00 -0.41601455175E+02  0.41601455175E+02  0.00000000000E+00 0. -1.
      99926    2    1    2    0    0  0.00000000000E+00  0.00000000000E+00  0.11807513046E+04  0.12639542149E+04  0.45100622410E+03 0.  0.
      99925    2    3    3    0    0 -0.17666957154E+02 -0.10639706921E+03  0.70055841683E+03  0.75614994628E+03  0.26334044155E+03 0.  0.
         25    1    4    4    0    0 -0.50812059068E+01 -0.85731690296E+02  0.45287400514E+03  0.47761712072E+03  0.12509000000E+03 0.  0.
         25    1    3    3    0    0  0.17666957154E+02  0.10639706921E+03  0.48019288777E+03  0.50780426867E+03  0.12509000000E+03 0.  0.
         25    1    4    4    0    0 -0.12585751248E+02 -0.20665378918E+02  0.24768441169E+03  0.27853282556E+03  0.12509000000E+03 0.  0.
<mgrwt>
<rscale>  2 0.45100622E+03</rscale>
<asrwt>0</asrwt>
<pdfrwt beam="1">  1       21 0.17975774E+00 0.45100622E+03</pdfrwt>
<pdfrwt beam="2">  1       21 0.61178619E-02 0.45100622E+03</pdfrwt>
<totfact> 0.31136364E+04</totfact>
</mgrwt>
</event>
<event>
 7    0  0.4793433E-002  0.4426209E+03  0.7546771E-02  0.1029946E+00
         21   -1    0    0  502  501  0.00000000000E+00  0.00000000000E+00  0.17318968976E+02  0.17318968976E+02  0.00000000000E+00 0. -1.
         21   -1    0    0  501  502 -0.00000000000E+00 -0.00000000000E+00 -0.28280151743E+04  0.28280151743E+04  0.00000000000E+00 0. -1.
      99926    2    1    2    0    0  0.17763568394E-14  0.00000000000E+00 -0.28106962053E+04  0.28453341433E+04  0.44262086290E+03 0.  0.
      99925    2    3    3    0    0  0.15147513615E+02 -0.96572280456E+02 -0.19553286537E+04  0.19753589661E+04  0.26301568062E+03 0.  0.
         25    1    4    4    0    0  0.50170154918E+00 -0.54578537200E+02 -0.71200703627E+03  0.72496937606E+03  0.12509000000E+03 0.  0.
         25    1    4    4    0    0  0.14645812066E+02 -0.41993743256E+02 -0.12433216174E+04  0.12503895900E+04  0.12509000000E+03 0.  0.
         25    1    3    3    0    0 -0.15147513615E+02  0.96572280456E+02 -0.85536755162E+03  0.86997517722E+03  0.12509000000E+03 0.  0.
<mgrwt>
<rscale>  2 0.44262086E+03</rscale>
<asrwt>0</asrwt>
<pdfrwt beam="1">  1       21 0.25469062E-02 0.44262086E+03</pdfrwt>
<pdfrwt beam="2">  1       21 0.41588475E+00 0.44262086E+03</pdfrwt>
<totfact> 0.46350159E+03</totfact>
</mgrwt>
</event>
<event>
 7    0  0.4793433E-002  0.4482800E+03  0.7546771E-02  0.1028236E+00
         21   -1    0    0  502  501  0.00000000000E+00  0.00000000000E+00  0.45943863942E+03  0.45943863942E+03  0.00000000000E+00 0. -1.
         21   -1    0    0  501  502 -0.00000000000E+00 -0.00000000000E+00 -0.10934811469E+03  0.10934811469E+03  0.00000000000E+00 0. -1.
      99926    2    1    2    0    0  0.00000000000E+00  0.00000000000E+00  0.35009052473E+03  0.56878675411E+03  0.44828004210E+03 0.  0.
      99925    2    3    3    0    0 -0.96275917774E+02 -0.44445778543E+02  0.20535201983E+03  0.35006038973E+03  0.26292269745E+03 0.  0.
         25    1    4    4    0    0 -0.45321994072E+02 -0.55117237951E+02  0.13499771488E+03  0.19739271564E+03  0.12509000000E+03 0.  0.
         25    1    3    3    0    0  0.96275917774E+02  0.44445778543E+02  0.14473850490E+03  0.21872636438E+03  0.12509000000E+03 0.  0.
         25    1    4    4    0    0 -0.50953923702E+02  0.10671459407E+02  0.70354304954E+02  0.15266767409E+03  0.12509000000E+03 0.  0.
<mgrwt>
<rscale>  2 0.44828004E+03</rscale>
<asrwt>0</asrwt>
<pdfrwt beam="1">  1       21 0.67564505E-01 0.44828004E+03</pdfrwt>
<pdfrwt beam="2">  1       21 0.16080605E-01 0.44828004E+03</pdfrwt>
<totfact> 0.63974361E+04</totfact>
</mgrwt>
</event>
<event>
 7    0  0.4793433E-002  0.4505311E+03  0.7546771E-02  0.1027564E+00
         21   -1    0    0  502  501  0.00000000000E+00  0.00000000000E+00  0.67821931045E+03  0.67821931045E+03  0.00000000000E+00 0.  1.
         21   -1    0    0  501  502 -0.00000000000E+00 -0.00000000000E+00 -0.74820288983E+02  0.74820288983E+02  0.00000000000E+00 0.  1.
      99926    2    1    2    0    0  0.00000000000E+00 -0.35527136788E-14  0.60339902147E+03  0.75303959944E+03  0.45053108573E+03 0.  0.
      99925    2    3    3    0    0 -0.44006808775E+02  0.28560292132E+02  0.54045425736E+03  0.60350083879E+03  0.26338217218E+03 0.  0.
         25    1    3    3    0    0  0.44006808775E+02 -0.28560292132E+02  0.62944764112E+02  0.14953876064E+03  0.12509000000E+03 0.  0.
         25    1    4    4    0    0 -0.81017480588E+01 -0.82931608384E+01  0.33237425949E+03  0.35532319275E+03  0.12509000000E+03 0.  0.
         25    1    4    4    0    0 -0.35905060716E+02  0.36853452970E+02  0.20807999787E+03  0.24817764604E+03  0.12509000000E+03 0.  0.
<mgrwt>
<rscale>  2 0.45053109E+03</rscale>
<asrwt>0</asrwt>
<pdfrwt beam="1">  1       21 0.99738131E-01 0.45053109E+03</pdfrwt>
<pdfrwt beam="2">  1       21 0.11002984E-01 0.45053109E+03</pdfrwt>
<totfact> 0.51915482E+04</totfact>
</mgrwt>
</event>
<event>
 7    0  0.4793433E-002  0.4548989E+03  0.7546771E-02  0.1026271E+00
         21   -1    0    0  502  501  0.00000000000E+00  0.00000000000E+00  0.84154896424E+02  0.84154896424E+02  0.00000000000E+00 0.  1.
         21   -1    0    0  501  502 -0.00000000000E+00 -0.00000000000E+00 -0.61473855817E+03  0.61473855817E+03  0.00000000000E+00 0.  1.
      99926    2    1    2    0    0  0.00000000000E+00 -0.71054273576E-14 -0.53058366174E+03  0.69889345459E+03  0.45489893247E+03 0.  0.
      99925    2    3    3    0    0 -0.98206461313E+02  0.53175220714E+02 -0.30684522890E+03  0.41928925653E+03  0.26301591777E+03 0.  0.
         25    1    3    3    0    0  0.98206461313E+02 -0.53175220714E+02 -0.22373843285E+03  0.27960419806E+03  0.12509000000E+03 0.  0.
         25    1    4    4    0    0 -0.26445904171E+02  0.51771768669E+02 -0.11699290339E+03  0.18087163797E+03  0.12509000000E+03 0.  0.
         25    1    4    4    0    0 -0.71760557142E+02  0.14034520453E+01 -0.18985232550E+03  0.23841761856E+03  0.12509000000E+03 0.  0.
<mgrwt>
<rscale>  2 0.45489893E+03</rscale>
<asrwt>0</asrwt>
<pdfrwt beam="1">  1       21 0.12375720E-01 0.45489893E+03</pdfrwt>
<pdfrwt beam="2">  1       21 0.90402729E-01 0.45489893E+03</pdfrwt>
<totfact> 0.53005228E+04</totfact>
</mgrwt>
</event>
<event>
 7    0  0.4793433E-002  0.4539130E+03  0.7546771E-02  0.1026562E+00
         21   -1    0    0  502  501  0.00000000000E+00  0.00000000000E+00  0.52793980299E+02  0.52793980299E+02  0.00000000000E+00 0.  1.
         21   -1    0    0  501  502 -0.00000000000E+00 -0.00000000000E+00 -0.97566520562E+03  0.97566520562E+03  0.00000000000E+00 0.  1.
      99926    2    1    2    0    0 -0.35527136788E-14  0.00000000000E+00 -0.92287122532E+03  0.10284591859E+04  0.45391298569E+03 0.  0.
      99925    2    3    3    0    0  0.21626408205E+02  0.10963466795E+03 -0.55867420107E+03  0.62749230135E+03  0.26294916498E+03 0.  0.
         25    1    4    4    0    0  0.45967047733E+02  0.34603985283E+02 -0.27910897097E+03  0.31122296035E+03  0.12509000000E+03 0.  0.
         25    1    4    4    0    0 -0.24340639528E+02  0.75030682663E+02 -0.27956523010E+03  0.31626934100E+03  0.12509000000E+03 0.  0.
         25    1    3    3    0    0 -0.21626408205E+02 -0.10963466795E+03 -0.36419702425E+03  0.40096688457E+03  0.12509000000E+03 0.  0.
<mgrwt>
<rscale>  2 0.45391299E+03</rscale>
<asrwt>0</asrwt>
<pdfrwt beam="1">  1       21 0.77638211E-02 0.45391299E+03</pdfrwt>
<pdfrwt beam="2">  1       21 0.14348017E+00 0.45391299E+03</pdfrwt>
<totfact> 0.38402723E+04</totfact>
</mgrwt>
</event>
<event>
 7    0  0.4793433E-002  0.4563054E+03  0.7546771E-02  0.1025858E+00
         21   -1    0    0  502  501  0.00000000000E+00  0.00000000000E+00  0.33566824031E+03  0.33566824031E+03  0.00000000000E+00 0. -1.
         21   -1    0    0  501  502 -0.00000000000E+00 -0.00000000000E+00 -0.15507468124E+03  0.15507468124E+03  0.00000000000E+00 0. -1.
      99926    2    1    2    0    0  0.00000000000E+00  0.00000000000E+00  0.18059355907E+03  0.49074292155E+03  0.45630535990E+03 0.  0.
      99925    2    3    3    0    0  0.88889222537E+02 -0.13176733099E+02  0.37386527446E+02  0.28043200365E+03  0.26300082901E+03 0.  0.
         25    1    4    4    0    0  0.58378868758E+02 -0.90941199345E+01  0.57933313063E+02  0.14998190623E+03  0.12509000000E+03 0.  0.
         25    1    3    3    0    0 -0.88889222537E+02  0.13176733099E+02  0.14320703163E+03  0.21031091790E+03  0.12509000000E+03 0.  0.
         25    1    4    4    0    0  0.30510353779E+02 -0.40826131649E+01 -0.20546785617E+02  0.13045009742E+03  0.12509000000E+03 0.  0.
<mgrwt>
<rscale>  2 0.45630536E+03</rscale>
<asrwt>0</asrwt>
<pdfrwt beam="1">  1       21 0.49362977E-01 0.45630536E+03</pdfrwt>
<pdfrwt beam="2">  1       21 0.22805100E-01 0.45630536E+03</pdfrwt>
<totfact> 0.65247244E+04</totfact>
</mgrwt>
</event>
<event>
 7    0  0.4793433E-002  0.4553769E+03  0.7546771E-02  0.1026131E+00
         21   -1    0    0  502  501  0.00000000000E+00  0.00000000000E+00  0.42393949319E+03  0.42393949319E+03  0.00000000000E+00 0.  1.
         21   -1    0    0  501  502 -0.00000000000E+00 -0.00000000000E+00 -0.12228639051E+03  0.12228639051E+03  0.00000000000E+00 0.  1.
      99926    2    1    2    0    0  0.00000000000E+00  0.00000000000E+00  0.30165310269E+03  0.54622588370E+03  0.45537690067E+03 0.  0.
      99925    2    3    3    0    0 -0.48474763020E+02 -0.10182680267E+02  0.67135871695E+02  0.27585700724E+03  0.26293796521E+03 0.  0.
         25    1    4    4    0    0 -0.57790199040E+02 -0.14149408198E+02  0.12828014279E+02  0.13911139029E+03  0.12509000000E+03 0.  0.
         25    1    3    3    0    0  0.48474763020E+02  0.10182680267E+02  0.23451723099E+03  0.27036887646E+03  0.12509000000E+03 0.  0.
         25    1    4    4    0    0  0.93154360198E+01  0.39667279307E+01  0.54307857416E+02  0.13674561695E+03  0.12509000000E+03 0.  0.
<mgrwt>
<rscale>  2 0.45537690E+03</rscale>
<asrwt>0</asrwt>
<pdfrwt beam="1">  1       21 0.62344043E-01 0.45537690E+03</pdfrwt>
<pdfrwt beam="2">  1       21 0.17983293E-01 0.45537690E+03</pdfrwt>
<totfact> 0.61931695E+04</totfact>
</mgrwt>
</event>
<event>
 7    0  0.4793433E-002  0.4564854E+03  0.7546771E-02  0.1025805E+00
         21   -1    0    0  502  501  0.00000000000E+00  0.00000000000E+00  0.18012503692E+03  0.18012503692E+03  0.00000000000E+00 0. -1.
         21   -1    0    0  501  502 -0.00000000000E+00 -0.00000000000E+00 -0.28921430379E+03  0.28921430379E+03  0.00000000000E+00 0. -1.
      99926    2    1    2    0    0  0.00000000000E+00  0.00000000000E+00 -0.10908926687E+03  0.46933934070E+03  0.45648543086E+03 0.  0.
      99925    2    3    3    0    0  0.44150739627E+02 -0.95362752642E+02 -0.21686960900E+02  0.28405573757E+03  0.26300949674E+03 0.  0.
         25    1    4    4    0    0  0.61896514461E+02 -0.40050391499E+02 -0.72027549269E+01  0.14537744027E+03  0.12509000000E+03 0.  0.
         25    1    3    3    0    0 -0.44150739627E+02  0.95362752642E+02 -0.87402305966E+02  0.18528360313E+03  0.12509000000E+03 0.  0.
         25    1    4    4    0    0 -0.17745774834E+02 -0.55312361143E+02 -0.14484205973E+02  0.13867829730E+03  0.12509000000E+03 0.  0.
<mgrwt>
<rscale>  2 0.45648543E+03</rscale>
<asrwt>0</asrwt>
<pdfrwt beam="1">  1       21 0.26488976E-01 0.45648543E+03</pdfrwt>
<pdfrwt beam="2">  1       21 0.42531515E-01 0.45648543E+03</pdfrwt>
<totfact> 0.66695640E+04</totfact>
</mgrwt>
</event>
<event>
 7    0  0.4793433E-002  0.4768609E+03  0.7546771E-02  0.1020001E+00
         21   -1    0    0  502  501  0.00000000000E+00  0.00000000000E+00  0.75698267202E+02  0.75698267202E+02  0.00000000000E+00 0. -1.
         21   -1    0    0  501  502 -0.00000000000E+00 -0.00000000000E+00 -0.75099588624E+03  0.75099588624E+03  0.00000000000E+00 0. -1.
      99926    2    1    2    0    0  0.00000000000E+00  0.00000000000E+00 -0.67529761904E+03  0.82669415344E+03  0.47686093262E+03 0.  0.
      99925    2    3    3    0    0 -0.11602165665E+03  0.15443632896E+02 -0.30914549863E+03  0.42244866616E+03  0.26304449359E+03 0.  0.
         25    1    4    4    0    0 -0.75876583601E+02 -0.29008915865E+02 -0.16473557148E+03  0.22222531302E+03  0.12509000000E+03 0.  0.
         25    1    3    3    0    0  0.11602165665E+03 -0.15443632896E+02 -0.36615212041E+03  0.40424548728E+03  0.12509000000E+03 0.  0.
         25    1    4    4    0    0 -0.40145073045E+02  0.44452548761E+02 -0.14440992715E+03  0.20022335313E+03  0.12509000000E+03 0.  0.
<mgrwt>
<rscale>  2 0.47686093E+03</rscale>
<asrwt>0</asrwt>
<pdfrwt beam="1">  1       21 0.11132098E-01 0.47686093E+03</pdfrwt>
<pdfrwt beam="2">  1       21 0.11044058E+00 0.47686093E+03</pdfrwt>
<totfact> 0.39311115E+04</totfact>
</mgrwt>
</event>
<event>
 7    0  0.4793433E-002  0.4540075E+03  0.7546771E-02  0.1026534E+00
         21   -1    0    0  502  501  0.00000000000E+00  0.00000000000E+00  0.11670936587E+03  0.11670936587E+03  0.00000000000E+00 0.  1.
         21   -1    0    0  501  502 -0.00000000000E+00 -0.00000000000E+00 -0.44153017214E+03  0.44153017214E+03  0.00000000000E+00 0.  1.
      99926    2    1    2    0    0  0.00000000000E+00  0.00000000000E+00 -0.32482080626E+03  0.55823953801E+03  0.45400751714E+03 0.  0.
      99925    2    3    3    0    0 -0.74298213959E+02 -0.26956916083E+02 -0.30254041496E+03  0.40860390102E+03  0.26302004737E+03 0.  0.
         25    1    4    4    0    0 -0.47081912624E+02 -0.10397229412E+02 -0.21237514828E+03  0.25114840351E+03  0.12509000000E+03 0.  0.
         25    1    4    4    0    0 -0.27216301334E+02 -0.16559686671E+02 -0.90165266682E+02  0.15745549751E+03  0.12509000000E+03 0.  0.
         25    1    3    3    0    0  0.74298213959E+02  0.26956916083E+02 -0.22280391300E+02  0.14963563699E+03  0.12509000000E+03 0.  0.
<mgrwt>
<rscale>  2 0.45400752E+03</rscale>
<asrwt>0</asrwt>
<pdfrwt beam="1">  1       21 0.17163142E-01 0.45400752E+03</pdfrwt>
<pdfrwt beam="2">  1       21 0.64930909E-01 0.45400752E+03</pdfrwt>
<totfact> 0.61809119E+04</totfact>
</mgrwt>
</event>
<event>
 7    0  0.4793433E-002  0.4069531E+03  0.7546771E-02  0.1041398E+00
         21   -1    0    0  502  501  0.00000000000E+00  0.00000000000E+00  0.38317416176E+02  0.38317416176E+02  0.00000000000E+00 0. -1.
         21   -1    0    0  501  502 -0.00000000000E+00 -0.00000000000E+00 -0.10805193961E+04  0.10805193961E+04  0.00000000000E+00 0. -1.
      99926    2    1    2    0    0  0.00000000000E+00  0.00000000000E+00 -0.10422019800E+04  0.11188368123E+04  0.40695312452E+03 0.  0.
      99925    2    3    3    0    0 -0.90276726861E+01  0.13604778085E+02 -0.53616911341E+03  0.59731657398E+03  0.26276069439E+03 0.  0.
         25    1    4    4    0    0  0.10615884478E+02 -0.85143483333E+01 -0.34240661766E+03  0.36479445041E+03  0.12509000000E+03 0.  0.
         25    1    3    3    0    0  0.90276726861E+01 -0.13604778085E+02 -0.50603286656E+03  0.52152023834E+03  0.12509000000E+03 0.  0.
         25    1    4    4    0    0 -0.19643557164E+02  0.22119126418E+02 -0.19376249575E+03  0.23252212357E+03  0.12509000000E+03 0.  0.
<mgrwt>
<rscale>  2 0.40695312E+03</rscale>
<asrwt>0</asrwt>
<pdfrwt beam="1">  1       21 0.56349145E-02 0.40695312E+03</pdfrwt>
<pdfrwt beam="2">  1       21 0.15889990E+00 0.40695312E+03</pdfrwt>
<totfact> 0.51634817E+04</totfact>
</mgrwt>
</event>
<event>
 7    0  0.4793433E-002  0.4518267E+03  0.7546771E-02  0.1027179E+00
         21   -1    0    0  502  501  0.00000000000E+00  0.00000000000E+00  0.25440823361E+03  0.25440823361E+03  0.00000000000E+00 0.  1.
         21   -1    0    0  501  502 -0.00000000000E+00 -0.00000000000E+00 -0.20061004551E+03  0.20061004551E+03  0.00000000000E+00 0.  1.
      99926    2    1    2    0    0  0.00000000000E+00  0.00000000000E+00  0.53798188100E+02  0.45501827912E+03  0.45182672485E+03 0.  0.
      99925    2    3    3    0    0  0.25330641888E+02 -0.10680850010E+03  0.26203591462E+02  0.28632131123E+03  0.26314172596E+03 0.  0.
         25    1    4    4    0    0 -0.12335596508E+02 -0.56630923084E+02  0.45221209838E+02  0.14509202015E+03  0.12509000000E+03 0.  0.
         25    1    4    4    0    0  0.37666238396E+02 -0.50177577019E+02 -0.19017618376E+02  0.14122929108E+03  0.12509000000E+03 0.  0.
         25    1    3    3    0    0 -0.25330641888E+02  0.10680850010E+03  0.27594596638E+02  0.16869696789E+03  0.12509000000E+03 0.  0.
<mgrwt>
<rscale>  2 0.45182672E+03</rscale>
<asrwt>0</asrwt>
<pdfrwt beam="1">  1       21 0.37412976E-01 0.45182672E+03</pdfrwt>
<pdfrwt beam="2">  1       21 0.29501477E-01 0.45182672E+03</pdfrwt>
<totfact> 0.70307573E+04</totfact>
</mgrwt>
</event>
<event>
 7    0  0.4793433E-002  0.4466723E+03  0.7546771E-02  0.1028719E+00
         21   -1    0    0  502  501  0.00000000000E+00  0.00000000000E+00  0.10908130216E+03  0.10908130216E+03  0.00000000000E+00 0.  1.
         21   -1    0    0  501  502 -0.00000000000E+00 -0.00000000000E+00 -0.45726480099E+03  0.45726480099E+03  0.00000000000E+00 0.  1.
      99926    2    1    2    0    0  0.71054273576E-14  0.00000000000E+00 -0.34818349883E+03  0.56634610315E+03  0.44667231803E+03 0.  0.
      99925    2    3    3    0    0 -0.57234315838E+02  0.64699739087E+02 -0.14403635419E+03  0.31181636439E+03  0.26271876717E+03 0.  0.
         25    1    4    4    0    0 -0.46393384101E+02  0.19744605637E+02 -0.11035716091E+03  0.17426533392E+03  0.12509000000E+03 0.  0.
         25    1    4    4    0    0 -0.10840931737E+02  0.44955133451E+02 -0.33679193273E+02  0.13755103047E+03  0.12509000000E+03 0.  0.
         25    1    3    3    0    0  0.57234315838E+02 -0.64699739087E+02 -0.20414714465E+03  0.25452973876E+03  0.12509000000E+03 0.  0.
<mgrwt>
<rscale>  2 0.44667232E+03</rscale>
<asrwt>0</asrwt>
<pdfrwt beam="1">  1       21 0.16041368E-01 0.44667232E+03</pdfrwt>
<pdfrwt beam="2">  1       21 0.67244823E-01 0.44667232E+03</pdfrwt>
<totfact> 0.64973622E+04</totfact>
</mgrwt>
</event>
<event>
 7    0  0.4793433E-002  0.4387719E+03  0.7546771E-02  0.1031124E+00
         21   -1    0    0  502  501  0.00000000000E+00  0.00000000000E+00  0.23057572671E+03  0.23057572671E+03  0.00000000000E+00 0. -1.
         21   -1    0    0  501  502 -0.00000000000E+00 -0.00000000000E+00 -0.20873918849E+03  0.20873918849E+03  0.00000000000E+00 0. -1.
      99926    2    1    2    0    0  0.00000000000E+00  0.00000000000E+00  0.21836538218E+02  0.43931491519E+03  0.43877187730E+03 0.  0.
      99925    2    3    3    0    0  0.52015176426E+02 -0.21238970245E+02  0.93343981722E+02  0.28466209430E+03  0.26298809207E+03 0.  0.
         25    1    3    3    0    0 -0.52015176426E+02  0.21238970245E+02 -0.71507443504E+02  0.15465282090E+03  0.12509000000E+03 0.  0.
         25    1    4    4    0    0 -0.55590898949E+01 -0.15635149347E+02  0.71763738347E+02  0.14516509090E+03  0.12509000000E+03 0.  0.
         25    1    4    4    0    0  0.57574266321E+02 -0.56038208979E+01  0.21580243376E+02  0.13949700339E+03  0.12509000000E+03 0.  0.
<mgrwt>
<rscale>  2 0.43877188E+03</rscale>
<asrwt>0</asrwt>
<pdfrwt beam="1">  1       21 0.33908195E-01 0.43877188E+03</pdfrwt>
<pdfrwt beam="2">  1       21 0.30696939E-01 0.43877188E+03</pdfrwt>
<totfact> 0.79518641E+04</totfact>
</mgrwt>
</event>
<event>
 7    0  0.4793433E-002  0.4555390E+03  0.7546771E-02  0.1026083E+00
         21   -1    0    0  502  501  0.00000000000E+00  0.00000000000E+00  0.24803427649E+03  0.24803427649E+03  0.00000000000E+00 0. -1.
         21   -1    0    0  501  502 -0.00000000000E+00 -0.00000000000E+00 -0.20916040214E+03  0.20916040214E+03  0.00000000000E+00 0. -1.
      99926    2    1    2    0    0  0.12212453271E-14 -0.14210854715E-13  0.38873874344E+02  0.45719467863E+03  0.45553901706E+03 0.  0.
      99925    2    3    3    0    0 -0.32603447926E+00 -0.97110871682E+02 -0.34894124299E+02  0.28249535573E+03  0.26297414018E+03 0.  0.
         25    1    4    4    0    0  0.26418809282E+02 -0.78677916297E+02 -0.30477808791E+02  0.15318150321E+03  0.12509000000E+03 0.  0.
         25    1    3    3    0    0  0.32603447926E+00  0.97110871682E+02  0.73767998644E+02  0.17469932290E+03  0.12509000000E+03 0.  0.
         25    1    4    4    0    0 -0.26744843761E+02 -0.18432955384E+02 -0.44163155082E+01  0.12931385252E+03  0.12509000000E+03 0.  0.
<mgrwt>
<rscale>  2 0.45553902E+03</rscale>
<asrwt>0</asrwt>
<pdfrwt beam="1">  1       21 0.36475629E-01 0.45553902E+03</pdfrwt>
<pdfrwt beam="2">  1       21 0.30758882E-01 0.45553902E+03</pdfrwt>
<totfact> 0.68092026E+04</totfact>
</mgrwt>
</event>
<event>
 7    0  0.4793433E-002  0.4539060E+03  0.7546771E-02  0.1026564E+00
         21   -1    0    0  502  501  0.00000000000E+00  0.00000000000E+00  0.13810503973E+03  0.13810503973E+03  0.00000000000E+00 0. -1.
         21   -1    0    0  501  502 -0.00000000000E+00 -0.00000000000E+00 -0.37296003133E+03  0.37296003133E+03  0.00000000000E+00 0. -1.
      99926    2    1    2    0    0  0.00000000000E+00  0.00000000000E+00 -0.23485499160E+03  0.51106507107E+03  0.45390598122E+03 0.  0.
      99925    2    3    3    0    0  0.47730384497E+02  0.99829905389E+02 -0.12785976021E+03  0.31272272245E+03  0.26306497913E+03 0.  0.
         25    1    4    4    0    0  0.95959638134E+00  0.42856719690E+02 -0.24460542850E+02  0.13447470210E+03  0.12509000000E+03 0.  0.
         25    1    3    3    0    0 -0.47730384497E+02 -0.99829905389E+02 -0.10699523139E+03  0.19834234862E+03  0.12509000000E+03 0.  0.
         25    1    4    4    0    0  0.46770788115E+02  0.56973185699E+02 -0.10339921736E+03  0.17824802035E+03  0.12509000000E+03 0.  0.
<mgrwt>
<rscale>  2 0.45390598E+03</rscale>
<asrwt>0</asrwt>
<pdfrwt beam="1">  1       21 0.20309565E-01 0.45390598E+03</pdfrwt>
<pdfrwt beam="2">  1       21 0.54847063E-01 0.45390598E+03</pdfrwt>
<totfact> 0.65063136E+04</totfact>
</mgrwt>
</event>
<event>
 7    0  0.4793433E-002  0.4325793E+03  0.7546771E-02  0.1033048E+00
         21   -1    0    0  502  501  0.00000000000E+00  0.00000000000E+00  0.25293817436E+04  0.25293817436E+04  0.00000000000E+00 0. -1.
         21   -1    0    0  501  502 -0.00000000000E+00 -0.00000000000E+00 -0.18495118148E+02  0.18495118148E+02  0.00000000000E+00 0. -1.
      99926    2    1    2    0    0  0.00000000000E+00  0.35527136788E-14  0.25108866254E+04  0.25478768617E+04  0.43257930690E+03 0.  0.
      99925    2    3    3    0    0 -0.88000871672E+02  0.20239042741E+02  0.16506133354E+04  0.16738794854E+04  0.26304823935E+03 0.  0.
         25    1    4    4    0    0 -0.78441394585E+01  0.18308490515E+02  0.64142351572E+03  0.65381064994E+03  0.12509000000E+03 0.  0.
         25    1    3    3    0    0  0.88000871672E+02 -0.20239042741E+02  0.86027329004E+03  0.87399737638E+03  0.12509000000E+03 0.  0.
         25    1    4    4    0    0 -0.80156732214E+02  0.19305522259E+01  0.10091898197E+04  0.10200688354E+04  0.12509000000E+03 0.  0.
<mgrwt>
<rscale>  2 0.43257931E+03</rscale>
<asrwt>0</asrwt>
<pdfrwt beam="1">  1       21 0.37196767E+00 0.43257931E+03</pdfrwt>
<pdfrwt beam="2">  1       21 0.27198721E-02 0.43257931E+03</pdfrwt>
<totfact> 0.79526779E+03</totfact>
</mgrwt>
</event>
<event>
 7    0  0.4793433E-002  0.4596080E+03  0.7546771E-02  0.1024895E+00
         21   -1    0    0  502  501  0.00000000000E+00  0.00000000000E+00  0.12503890846E+04  0.12503890846E+04  0.00000000000E+00 0.  1.
         21   -1    0    0  501  502 -0.00000000000E+00 -0.00000000000E+00 -0.42234752701E+02  0.42234752701E+02  0.00000000000E+00 0.  1.
      99926    2    1    2    0    0  0.35527136788E-14  0.00000000000E+00  0.12081543319E+04  0.12926238373E+04  0.45960797978E+03 0.  0.
      99925    2    3    3    0    0 -0.22258863283E+02  0.93757231680E+02  0.94594907493E+03  0.98654381449E+03  0.26298891622E+03 0.  0.
         25    1    4    4    0    0  0.13668624919E+02  0.41820122039E+02  0.57288118929E+03  0.58802731149E+03  0.12509000000E+03 0.  0.
         25    1    3    3    0    0  0.22258863283E+02 -0.93757231680E+02  0.26220525701E+03  0.30608002285E+03  0.12509000000E+03 0.  0.
         25    1    4    4    0    0 -0.35927488202E+02  0.51937109641E+02  0.37306788564E+03  0.39851650300E+03  0.12509000000E+03 0.  0.
<mgrwt>
<rscale>  2 0.45960798E+03</rscale>
<asrwt>0</asrwt>
<pdfrwt beam="1">  1       21 0.18388072E+00 0.45960798E+03</pdfrwt>
<pdfrwt beam="2">  1       21 0.62109938E-02 0.45960798E+03</pdfrwt>
<totfact> 0.28301411E+04</totfact>
</mgrwt>
</event>
<event>
 7    0  0.4793433E-002  0.4567310E+03  0.7546771E-02  0.1025734E+00
         21   -1    0    0  502  501  0.00000000000E+00  0.00000000000E+00  0.67415464517E+03  0.67415464517E+03  0.00000000000E+00 0.  1.
         21   -1    0    0  501  502 -0.00000000000E+00 -0.00000000000E+00 -0.77357340153E+02  0.77357340153E+02  0.00000000000E+00 0.  1.
      99926    2    1    2    0    0  0.00000000000E+00  0.14210854715E-13  0.59679730501E+03  0.75151198532E+03  0.45673103771E+03 0.  0.
      99925    2    3    3    0    0 -0.34603928683E+02 -0.79570600355E+02  0.25207205906E+03  0.37466730163E+03  0.26326099528E+03 0.  0.
         25    1    4    4    0    0 -0.31011594031E+02 -0.55236527923E+02  0.83075919622E+02  0.16297824856E+03  0.12509000000E+03 0.  0.
         25    1    3    3    0    0  0.34603928683E+02  0.79570600355E+02  0.34472524596E+03  0.37684468368E+03  0.12509000000E+03 0.  0.
         25    1    4    4    0    0 -0.35923346526E+01 -0.24334072433E+02  0.16899613943E+03  0.21168905308E+03  0.12509000000E+03 0.  0.
<mgrwt>
<rscale>  2 0.45673104E+03</rscale>
<asrwt>0</asrwt>
<pdfrwt beam="1">  1       21 0.99140386E-01 0.45673104E+03</pdfrwt>
<pdfrwt beam="2">  1       21 0.11376080E-01 0.45673104E+03</pdfrwt>
<totfact> 0.49516729E+04</totfact>
</mgrwt>
</event>
<event>
 7    0  0.4793433E-002  0.4583976E+03  0.7546771E-02  0.1025247E+00
         21   -1    0    0  502  501  0.00000000000E+00  0.00000000000E+00  0.26020709441E+03  0.26020709441E+03  0.00000000000E+00 0. -1.
         21   -1    0    0  501  502 -0.00000000000E+00 -0.00000000000E+00 -0.20188565496E+03  0.20188565496E+03  0.00000000000E+00 0. -1.
      99926    2    1    2    0    0  0.71054273576E-14 -0.14210854715E-13  0.58321439452E+02  0.46209274937E+03  0.45839755532E+03 0.  0.
      99925    2    3    3    0    0  0.62973905571E+02 -0.91291952323E+02  0.72483740808E+02  0.29431905590E+03  0.26281149260E+03 0.  0.
         25    1    3    3    0    0 -0.62973905571E+02  0.91291952323E+02 -0.14162301356E+02  0.16777369347E+03  0.12509000000E+03 0.  0.
         25    1    4    4    0    0 -0.26566140101E+01 -0.46817812635E+02  0.57587716874E+02  0.14547445966E+03  0.12509000000E+03 0.  0.
         25    1    4    4    0    0  0.65630519581E+02 -0.44474139687E+02  0.14896023934E+02  0.14884459624E+03  0.12509000000E+03 0.  0.
<mgrwt>
<rscale>  2 0.45839756E+03</rscale>
<asrwt>0</asrwt>
<pdfrwt beam="1">  1       21 0.38265749E-01 0.45839756E+03</pdfrwt>
<pdfrwt beam="2">  1       21 0.29689067E-01 0.45839756E+03</pdfrwt>
<totfact> 0.66215904E+04</totfact>
</mgrwt>
</event>
<event>
 7    0  0.4793433E-002  0.4575595E+03  0.7546771E-02  0.1025491E+00
         21   -1    0    0  502  501  0.00000000000E+00  0.00000000000E+00  0.67705729305E+02  0.67705729305E+02  0.00000000000E+00 0.  1.
         21   -1    0    0  501  502 -0.00000000000E+00 -0.00000000000E+00 -0.77305371687E+03  0.77305371687E+03  0.00000000000E+00 0.  1.
      99926    2    1    2    0    0  0.14210854715E-13  0.00000000000E+00 -0.70534798757E+03  0.84075944618E+03  0.45755946364E+03 0.  0.
      99925    2    3    3    0    0  0.82740043912E+02  0.80530779195E+02 -0.45438861223E+03  0.53751163096E+03  0.26290420542E+03 0.  0.
         25    1    3    3    0    0 -0.82740043912E+02 -0.80530779195E+02 -0.25095937534E+03  0.30324781522E+03  0.12509000000E+03 0.  0.
         25    1    4    4    0    0  0.42638028245E+01  0.56178546414E+02 -0.22930122347E+03  0.26720922191E+03  0.12509000000E+03 0.  0.
         25    1    4    4    0    0  0.78476241087E+02  0.24352232781E+02 -0.22508738876E+03  0.27030240904E+03  0.12509000000E+03 0.  0.
<mgrwt>
<rscale>  2 0.45755946E+03</rscale>
<asrwt>0</asrwt>
<pdfrwt beam="1">  1       21 0.99567253E-02 0.45755946E+03</pdfrwt>
<pdfrwt beam="2">  1       21 0.11368437E+00 0.45755946E+03</pdfrwt>
<totfact> 0.44946276E+04</totfact>
</mgrwt>
</event>
<event>
 7    0  0.4793433E-002  0.4566842E+03  0.7546771E-02  0.1025747E+00
         21   -1    0    0  502  501  0.00000000000E+00  0.00000000000E+00  0.19172650227E+03  0.19172650227E+03  0.00000000000E+00 0.  1.
         21   -1    0    0  501  502 -0.00000000000E+00 -0.00000000000E+00 -0.27195044746E+03  0.27195044746E+03  0.00000000000E+00 0.  1.
      99926    2    1    2    0    0  0.71054273576E-14  0.00000000000E+00 -0.80223945199E+02  0.46367694973E+03  0.45668417131E+03 0.  0.
      99925    2    3    3    0    0  0.34193540013E+02  0.99307248909E+02 -0.97508521844E+02  0.29942898915E+03  0.26290431690E+03 0.  0.
         25    1    4    4    0    0 -0.41066086514E+01  0.66713554574E+02 -0.18146421981E+02  0.14298378695E+03  0.12509000000E+03 0.  0.
         25    1    3    3    0    0 -0.34193540013E+02 -0.99307248909E+02  0.17284576645E+02  0.16424796058E+03  0.12509000000E+03 0.  0.
         25    1    4    4    0    0  0.38300148665E+02  0.32593694335E+02 -0.79362099863E+02  0.15644520220E+03  0.12509000000E+03 0.  0.
<mgrwt>
<rscale>  2 0.45668417E+03</rscale>
<asrwt>0</asrwt>
<pdfrwt beam="1">  1       21 0.28195074E-01 0.45668417E+03</pdfrwt>
<pdfrwt beam="2">  1       21 0.39992713E-01 0.45668417E+03</pdfrwt>
<totfact> 0.67006838E+04</totfact>
</mgrwt>
</event>
<event>
 7    0  0.4793433E-002  0.4642864E+03  0.7546771E-02  0.1023545E+00
         21   -1    0    0  502  501  0.00000000000E+00  0.00000000000E+00  0.26738389536E+03  0.26738389536E+03  0.00000000000E+00 0. -1.
         21   -1    0    0  501  502 -0.00000000000E+00 -0.00000000000E+00 -0.20154711992E+03  0.20154711992E+03  0.00000000000E+00 0. -1.
      99926    2    1    2    0    0  0.00000000000E+00  0.00000000000E+00  0.65836775435E+02  0.46893101528E+03  0.46428635139E+03 0.  0.
      99925    2    3    3    0    0 -0.85722108759E+01  0.91369544724E+02 -0.39405381266E+02  0.28146022782E+03  0.26314482566E+03 0.  0.
         25    1    4    4    0    0 -0.59628952829E+01  0.13380958716E+02 -0.45472105170E+02  0.13390230254E+03  0.12509000000E+03 0.  0.
         25    1    4    4    0    0 -0.26093155930E+01  0.77988586008E+02  0.60667239041E+01  0.14755792528E+03  0.12509000000E+03 0.  0.
         25    1    3    3    0    0  0.85722108759E+01 -0.91369544724E+02  0.10524215670E+03  0.18747078746E+03  0.12509000000E+03 0.  0.
<mgrwt>
<rscale>  2 0.46428635E+03</rscale>
<asrwt>0</asrwt>
<pdfrwt beam="1">  1       21 0.39321161E-01 0.46428635E+03</pdfrwt>
<pdfrwt beam="2">  1       21 0.29639282E-01 0.46428635E+03</pdfrwt>
<totfact> 0.62756642E+04</totfact>
</mgrwt>
</event>
<event>
 7    0  0.4793433E-002  0.4537368E+03  0.7546771E-02  0.1026614E+00
         21   -1    0    0  502  501  0.00000000000E+00  0.00000000000E+00  0.18846594427E+02  0.18846594427E+02  0.00000000000E+00 0.  1.
         21   -1    0    0  501  502 -0.00000000000E+00 -0.00000000000E+00 -0.27309588659E+04  0.27309588659E+04  0.00000000000E+00 0.  1.
      99926    2    1    2    0    0  0.00000000000E+00  0.17763568394E-14 -0.27121122715E+04  0.27498054604E+04  0.45373681421E+03 0.  0.
      99925    2    3    3    0    0  0.69218330119E+02 -0.15376002818E+02 -0.11827309258E+04  0.12136796818E+04  0.26294168293E+03 0.  0.
         25    1    3    3    0    0 -0.69218330119E+02  0.15376002818E+02 -0.15293813457E+04  0.15361257785E+04  0.12509000000E+03 0.  0.
         25    1    4    4    0    0 -0.49251750954E+01 -0.19097031501E+02 -0.57588414395E+03  0.58964312030E+03  0.12509000000E+03 0.  0.
         25    1    4    4    0    0  0.74143505214E+02  0.37210286827E+01 -0.60684678182E+03  0.62403656153E+03  0.12509000000E+03 0.  0.
<mgrwt>
<rscale>  2 0.45373681E+03</rscale>
<asrwt>0</asrwt>
<pdfrwt beam="1">  1       21 0.27715610E-02 0.45373681E+03</pdfrwt>
<pdfrwt beam="2">  1       21 0.40161117E+00 0.45373681E+03</pdfrwt>
<totfact> 0.49472870E+03</totfact>
</mgrwt>
</event>
<event>
 7    0  0.4793433E-002  0.4516106E+03  0.7546771E-02  0.1027243E+00
         21   -1    0    0  502  501  0.00000000000E+00  0.00000000000E+00  0.25857016656E+03  0.25857016656E+03  0.00000000000E+00 0.  1.
         21   -1    0    0  501  502 -0.00000000000E+00 -0.00000000000E+00 -0.19719228512E+03  0.19719228512E+03  0.00000000000E+00 0.  1.
      99926    2    1    2    0    0 -0.14210854715E-13  0.71054273576E-14  0.61377881442E+02  0.45576245169E+03  0.45161063765E+03 0.  0.
      99925    2    3    3    0    0  0.98032906355E+02 -0.47828226050E+02  0.52891368732E+02  0.28957725700E+03  0.26298194035E+03 0.  0.
         25    1    4    4    0    0  0.10630168947E+02 -0.27295975594E+02  0.59742794765E+01  0.12861287218E+03  0.12509000000E+03 0.  0.
         25    1    3    3    0    0 -0.98032906355E+02  0.47828226050E+02  0.84865127103E+01  0.16618519469E+03  0.12509000000E+03 0.  0.
         25    1    4    4    0    0  0.87402737408E+02 -0.20532250456E+02  0.46917089255E+02  0.16096438482E+03  0.12509000000E+03 0.  0.
<mgrwt>
<rscale>  2 0.45161064E+03</rscale>
<asrwt>0</asrwt>
<pdfrwt beam="1">  1       21 0.38025025E-01 0.45161064E+03</pdfrwt>
<pdfrwt beam="2">  1       21 0.28998865E-01 0.45161064E+03</pdfrwt>
<totfact> 0.70373506E+04</totfact>
</mgrwt>
</event>
<event>
 7    0  0.4793433E-002  0.4457048E+03  0.7546771E-02  0.1029011E+00
         21   -1    0    0  502  501  0.00000000000E+00  0.00000000000E+00  0.82201514047E+02  0.82201514047E+02  0.00000000000E+00 0.  1.
         21   -1    0    0  501  502 -0.00000000000E+00 -0.00000000000E+00 -0.60416404047E+03  0.60416404047E+03  0.00000000000E+00 0.  1.
      99926    2    1    2    0    0  0.00000000000E+00  0.00000000000E+00 -0.52196252643E+03  0.68636555452E+03  0.44570482995E+03 0.  0.
      99925    2    3    3    0    0  0.27197374013E+02  0.98963142944E+02 -0.30372877447E+03  0.41469133895E+03  0.26302915683E+03 0.  0.
         25    1    3    3    0    0 -0.27197374013E+02 -0.98963142944E+02 -0.21823375196E+03  0.27167421557E+03  0.12509000000E+03 0.  0.
         25    1    4    4    0    0 -0.38767858445E+01  0.18918609715E+02 -0.17337169754E+03  0.21465832588E+03  0.12509000000E+03 0.  0.
         25    1    4    4    0    0  0.31074159858E+02  0.80044533229E+02 -0.13035707693E+03  0.20003301307E+03  0.12509000000E+03 0.  0.
<mgrwt>
<rscale>  2 0.44570483E+03</rscale>
<asrwt>0</asrwt>
<pdfrwt beam="1">  1       21 0.12088458E-01 0.44570483E+03</pdfrwt>
<pdfrwt beam="2">  1       21 0.88847654E-01 0.44570483E+03</pdfrwt>
<totfact> 0.57761876E+04</totfact>
</mgrwt>
</event>
<event>
 7    0  0.4793433E-002  0.4597726E+03  0.7546771E-02  0.1024847E+00
         21   -1    0    0  502  501  0.00000000000E+00  0.00000000000E+00  0.32168705893E+03  0.32168705893E+03  0.00000000000E+00 0. -1.
         21   -1    0    0  501  502 -0.00000000000E+00 -0.00000000000E+00 -0.16428295410E+03  0.16428295410E+03  0.00000000000E+00 0. -1.
      99926    2    1    2    0    0  0.00000000000E+00 -0.71054273576E-14  0.15740410483E+03  0.48597001303E+03  0.45977255392E+03 0.  0.
      99925    2    3    3    0    0 -0.10901302663E+03  0.41889268904E+02  0.10045519952E+03  0.30561137935E+03  0.26394794422E+03 0.  0.
         25    1    4    4    0    0 -0.63210456834E+02  0.60283017085E+02  0.37395516571E+02  0.15708448925E+03  0.12509000000E+03 0.  0.
         25    1    4    4    0    0 -0.45802569791E+02 -0.18393748181E+02  0.63059682949E+02  0.14852689011E+03  0.12509000000E+03 0.  0.
         25    1    3    3    0    0  0.10901302663E+03 -0.41889268904E+02  0.56948905315E+02  0.18035863367E+03  0.12509000000E+03 0.  0.
<mgrwt>
<rscale>  2 0.45977255E+03</rscale>
<asrwt>0</asrwt>
<pdfrwt beam="1">  1       21 0.47306921E-01 0.45977255E+03</pdfrwt>
<pdfrwt beam="2">  1       21 0.24159258E-01 0.45977255E+03</pdfrwt>
<totfact> 0.63815885E+04</totfact>
</mgrwt>
</event>
<event>
 7    0  0.4793433E-002  0.4521235E+03  0.7546771E-02  0.1027091E+00
         21   -1    0    0  502  501  0.00000000000E+00  0.00000000000E+00  0.12373715069E+03  0.12373715069E+03  0.00000000000E+00 0. -1.
         21   -1    0    0  501  502 -0.00000000000E+00 -0.00000000000E+00 -0.41300389628E+03  0.41300389628E+03  0.00000000000E+00 0. -1.
      99926    2    1    2    0    0  0.00000000000E+00  0.00000000000E+00 -0.28926674560E+03  0.53674104697E+03  0.45212354660E+03 0.  0.
      99925    2    3    3    0    0 -0.10846314341E+03 -0.18424130217E+02 -0.17177287467E+03  0.33288811013E+03  0.26306818762E+03 0.  0.
         25    1    4    4    0    0 -0.94131539879E+02 -0.83168657952E+01 -0.75131150527E+02  0.17384508890E+03  0.12509000000E+03 0.  0.
         25    1    4    4    0    0 -0.14331603535E+02 -0.10107264422E+02 -0.96641724146E+02  0.15904302122E+03  0.12509000000E+03 0.  0.
         25    1    3    3    0    0  0.10846314341E+03  0.18424130217E+02 -0.11749387093E+03  0.20385293684E+03  0.12509000000E+03 0.  0.
<mgrwt>
<rscale>  2 0.45212355E+03</rscale>
<asrwt>0</asrwt>
<pdfrwt beam="1">  1       21 0.18196640E-01 0.45212355E+03</pdfrwt>
<pdfrwt beam="2">  1       21 0.60735867E-01 0.45212355E+03</pdfrwt>
<totfact> 0.64200406E+04</totfact>
</mgrwt>
</event>
<event>
 7    0  0.4793433E-002  0.4531956E+03  0.7546771E-02  0.1026773E+00
         21   -1    0    0  502  501  0.00000000000E+00  0.00000000000E+00  0.84960278632E+02  0.84960278632E+02  0.00000000000E+00 0. -1.
         21   -1    0    0  501  502 -0.00000000000E+00 -0.00000000000E+00 -0.60435959224E+03  0.60435959224E+03  0.00000000000E+00 0. -1.
      99926    2    1    2    0    0  0.00000000000E+00 -0.35527136788E-14 -0.51939931361E+03  0.68931987088E+03  0.45319558405E+03 0.  0.
      99925    2    3    3    0    0  0.10796353747E+03 -0.81767529987E+01 -0.36836344672E+03  0.46530575100E+03  0.26285895140E+03 0.  0.
         25    1    4    4    0    0  0.23669961301E+02  0.16027787525E+02 -0.20319447788E+03  0.24031783326E+03  0.12509000000E+03 0.  0.
         25    1    3    3    0    0 -0.10796353747E+03  0.81767529987E+01 -0.15103586690E+03  0.22401411987E+03  0.12509000000E+03 0.  0.
         25    1    4    4    0    0  0.84293576169E+02 -0.24204540524E+02 -0.16516896883E+03  0.22498791774E+03  0.12509000000E+03 0.  0.
<mgrwt>
<rscale>  2 0.45319558E+03</rscale>
<asrwt>0</asrwt>
<pdfrwt beam="1">  1       21 0.12494159E-01 0.45319558E+03</pdfrwt>
<pdfrwt beam="2">  1       21 0.88876409E-01 0.45319558E+03</pdfrwt>
<totfact> 0.54253325E+04</totfact>
</mgrwt>
</event>
<event>
 7    0  0.4793433E-002  0.4700905E+03  0.7546771E-02  0.1021895E+00
         21   -1    0    0  502  501  0.00000000000E+00  0.00000000000E+00  0.18460417657E+02  0.18460417657E+02  0.00000000000E+00 0.  1.
         21   -1    0    0  501  502 -0.00000000000E+00 -0.00000000000E+00 -0.29926884836E+04  0.29926884836E+04  0.00000000000E+00 0.  1.
      99926    2    1    2    0    0  0.00000000000E+00  0.00000000000E+00 -0.29742280660E+04  0.30111489013E+04  0.47009054159E+03 0.  0.
      99925    2    3    3    0    0  0.10351680466E+03  0.73320090486E+02 -0.18140760748E+04  0.18373977712E+04  0.26280601240E+03 0.  0.
         25    1    4    4    0    0  0.29977290953E+02 -0.13160357481E+01 -0.80540933069E+03  0.81561759912E+03  0.12509000000E+03 0.  0.
         25    1    3    3    0    0 -0.10351680466E+03 -0.73320090486E+02 -0.11601519912E+04  0.11737511301E+04  0.12509000000E+03 0.  0.
         25    1    4    4    0    0  0.73539513705E+02  0.74636126234E+02 -0.10086667441E+04  0.10217801721E+04  0.12509000000E+03 0.  0.
<mgrwt>
<rscale>  2 0.47009054E+03</rscale>
<asrwt>0</asrwt>
<pdfrwt beam="1">  1       21 0.27147690E-02 0.47009054E+03</pdfrwt>
<pdfrwt beam="2">  1       21 0.44010097E+00 0.47009054E+03</pdfrwt>
<totfact> 0.28378406E+03</totfact>
</mgrwt>
</event>
<event>
 6    0  0.4793433E-002  0.4320813E+03  0.7546771E-02  0.1033205E+00
         21   -1    0    0  502  501  0.00000000000E+00  0.00000000000E+00  0.22042128883E+02  0.22042128883E+02  0.00000000000E+00 0. -1.
         21   -1    0    0  501  502 -0.00000000000E+00 -0.00000000000E+00 -0.21174709482E+04  0.21174709482E+04  0.00000000000E+00 0. -1.
      99926    2    1    2    0    0  0.35527136788E-14 -0.35527136788E-14 -0.20954288193E+04  0.21395130771E+04  0.43208132358E+03 0.  0.
         25    1    3    3    0    0  0.27547937907E+02  0.24794048885E+02 -0.36502419891E+03  0.38763875920E+03  0.12509000000E+03 0.  0.
         25    1    3    3    0    0  0.23575864478E+02 -0.43016477536E+02 -0.73598997498E+03  0.74815438921E+03  0.12509000000E+03 0.  0.
         25    1    3    3    0    0 -0.51123802385E+02  0.18222428651E+02 -0.99441464543E+03  0.10037199287E+04  0.12509000000E+03 0.  0.
<mgrwt>
<rscale>  2 0.43208132E+03</rscale>
<asrwt>0</asrwt>
<pdfrwt beam="1">  1       21 0.32414931E-02 0.43208132E+03</pdfrwt>
<pdfrwt beam="2">  1       21 0.31139244E+00 0.43208132E+03</pdfrwt>
<totfact> 0.13872557E+04</totfact>
</mgrwt>
</event>
<event>
 7    0  0.4793433E-002  0.4564175E+03  0.7546771E-02  0.1025825E+00
         21   -1    0    0  502  501  0.00000000000E+00  0.00000000000E+00  0.22133797141E+03  0.22133797141E+03  0.00000000000E+00 0.  1.
         21   -1    0    0  501  502 -0.00000000000E+00 -0.00000000000E+00 -0.23529285643E+03  0.23529285643E+03  0.00000000000E+00 0.  1.
      99926    2    1    2    0    0  0.00000000000E+00  0.00000000000E+00 -0.13954885013E+02  0.45663082784E+03  0.45641754362E+03 0.  0.
      99925    2    3    3    0    0  0.63541188909E+02 -0.49711224481E+02 -0.90561646320E+02  0.28922475715E+03  0.26256591522E+03 0.  0.
         25    1    3    3    0    0 -0.63541188909E+02  0.49711224481E+02  0.76606761307E+02  0.16740607069E+03  0.12509000000E+03 0.  0.
         25    1    4    4    0    0  0.38657908385E+02 -0.27235403314E+02 -0.46448016871E+01  0.13381062498E+03  0.12509000000E+03 0.  0.
         25    1    4    4    0    0  0.24883280524E+02 -0.22475821167E+02 -0.85916844633E+02  0.15541413217E+03  0.12509000000E+03 0.  0.
<mgrwt>
<rscale>  2 0.45641754E+03</rscale>
<asrwt>0</asrwt>
<pdfrwt beam="1">  1       21 0.32549702E-01 0.45641754E+03</pdfrwt>
<pdfrwt beam="2">  1       21 0.34601890E-01 0.45641754E+03</pdfrwt>
<totfact> 0.67658007E+04</totfact>
</mgrwt>
</event>
<event>
 7    0  0.4793433E-002  0.4489828E+03  0.7546771E-02  0.1028026E+00
         21   -1    0    0  502  501  0.00000000000E+00  0.00000000000E+00  0.23419722449E+03  0.23419722449E+03  0.00000000000E+00 0.  1.
         21   -1    0    0  501  502 -0.00000000000E+00 -0.00000000000E+00 -0.21518785255E+03  0.21518785255E+03  0.00000000000E+00 0.  1.
      99926    2    1    2    0    0  0.00000000000E+00  0.00000000000E+00  0.19009371942E+02  0.44938507703E+03  0.44898284069E+03 0.  0.
      99925    2    3    3    0    0 -0.48157471242E+02 -0.49679852971E+02  0.94291199229E+02  0.28782366008E+03  0.26299125313E+03 0.  0.
         25    1    3    3    0    0  0.48157471242E+02  0.49679852971E+02 -0.75281827287E+02  0.16156141695E+03  0.12509000000E+03 0.  0.
         25    1    4    4    0    0  0.76558667107E+01 -0.48763364773E+02  0.55293777626E+02  0.14540078398E+03  0.12509000000E+03 0.  0.
         25    1    4    4    0    0 -0.55813337953E+02 -0.91648819835E+00  0.38997421603E+02  0.14242287610E+03  0.12509000000E+03 0.  0.
<mgrwt>
<rscale>  2 0.44898284E+03</rscale>
<asrwt>0</asrwt>
<pdfrwt beam="1">  1       21 0.34440768E-01 0.44898284E+03</pdfrwt>
<pdfrwt beam="2">  1       21 0.31645273E-01 0.44898284E+03</pdfrwt>
<totfact> 0.72371805E+04</totfact>
</mgrwt>
</event>
<event>
 7    0  0.4793433E-002  0.4534274E+03  0.7546771E-02  0.1026705E+00
         21   -1    0    0  502  501  0.00000000000E+00  0.00000000000E+00  0.74351300346E+03  0.74351300346E+03  0.00000000000E+00 0.  1.
         21   -1    0    0  501  502 -0.00000000000E+00 -0.00000000000E+00 -0.69130074110E+02  0.69130074110E+02  0.00000000000E+00 0.  1.
      99926    2    1    2    0    0  0.00000000000E+00  0.00000000000E+00  0.67438292935E+03  0.81264307757E+03  0.45342743204E+03 0.  0.
      99925    2    3    3    0    0  0.60734986976E+02  0.78255505405E+02  0.51607485194E+03  0.58787293222E+03  0.26353115349E+03 0.  0.
         25    1    4    4    0    0  0.66985527757E+02  0.27092224587E+02  0.29937932213E+03  0.33241019266E+03  0.12509000000E+03 0.  0.
         25    1    4    4    0    0 -0.62505407801E+01  0.51163280818E+02  0.21669552981E+03  0.25546273956E+03  0.12509000000E+03 0.  0.
         25    1    3    3    0    0 -0.60734986976E+02 -0.78255505405E+02  0.15830807740E+03  0.22477014535E+03  0.12509000000E+03 0.  0.
<mgrwt>
<rscale>  2 0.45342743E+03</rscale>
<asrwt>0</asrwt>
<pdfrwt beam="1">  1       21 0.10934014E+00 0.45342743E+03</pdfrwt>
<pdfrwt beam="2">  1       21 0.10166188E-01 0.45342743E+03</pdfrwt>
<totfact> 0.47745820E+04</totfact>
</mgrwt>
</event>
<event>
 7    0  0.4793433E-002  0.4505090E+03  0.7546771E-02  0.1027570E+00
         21   -1    0    0  502  501  0.00000000000E+00  0.00000000000E+00  0.37668989089E+03  0.37668989089E+03  0.00000000000E+00 0.  1.
         21   -1    0    0  501  502 -0.00000000000E+00 -0.00000000000E+00 -0.13469859348E+03  0.13469859348E+03  0.00000000000E+00 0.  1.
      99926    2    1    2    0    0  0.00000000000E+00  0.71054273576E-14  0.24199129741E+03  0.51138848437E+03  0.45050903867E+03 0.  0.
      99925    2    3    3    0    0 -0.72440608345E+02  0.11134683486E+02  0.24445881941E+03  0.36638772686E+03  0.26288444056E+03 0.  0.
         25    1    4    4    0    0 -0.24571483882E+02 -0.33255697784E+02  0.11412889756E+03  0.17430608886E+03  0.12509000000E+03 0.  0.
         25    1    4    4    0    0 -0.47869124463E+02  0.44390381270E+02  0.13032992186E+03  0.19208163800E+03  0.12509000000E+03 0.  0.
         25    1    3    3    0    0  0.72440608345E+02 -0.11134683486E+02 -0.24675220035E+01  0.14500075751E+03  0.12509000000E+03 0.  0.
<mgrwt>
<rscale>  2 0.45050904E+03</rscale>
<asrwt>0</asrwt>
<pdfrwt beam="1">  1       21 0.55395572E-01 0.45050904E+03</pdfrwt>
<pdfrwt beam="2">  1       21 0.19808617E-01 0.45050904E+03</pdfrwt>
<totfact> 0.66827758E+04</totfact>
</mgrwt>
</event>
<event>
 7    0  0.4793433E-002  0.4557684E+03  0.7546771E-02  0.1026016E+00
         21   -1    0    0  502  501  0.00000000000E+00  0.00000000000E+00  0.55963839133E+03  0.55963839133E+03  0.00000000000E+00 0.  1.
         21   -1    0    0  501  502 -0.00000000000E+00 -0.00000000000E+00 -0.92794216813E+02  0.92794216813E+02  0.00000000000E+00 0.  1.
      99926    2    1    2    0    0  0.00000000000E+00  0.00000000000E+00  0.46684417452E+03  0.65243260815E+03  0.45576838952E+03 0.  0.
      99925    2    3    3    0    0 -0.69717783002E+02 -0.21162415917E+01  0.16465759024E+03  0.31802374528E+03  0.26298656390E+03 0.  0.
         25    1    4    4    0    0 -0.14195238159E+01 -0.10652452645E+01  0.10573161897E+03  0.16379814756E+03  0.12509000000E+03 0.  0.
         25    1    3    3    0    0  0.69717783002E+02  0.21162415917E+01  0.30218658428E+03  0.33440886286E+03  0.12509000000E+03 0.  0.
         25    1    4    4    0    0 -0.68298259186E+02 -0.10509963271E+01  0.58925971273E+02  0.15422559772E+03  0.12509000000E+03 0.  0.
<mgrwt>
<rscale>  2 0.45576839E+03</rscale>
<asrwt>0</asrwt>
<pdfrwt beam="1">  1       21 0.82299762E-01 0.45576839E+03</pdfrwt>
<pdfrwt beam="2">  1       21 0.13646209E-01 0.45576839E+03</pdfrwt>
<totfact> 0.55226062E+04</totfact>
</mgrwt>
</event>
<event>
 6    0  0.4793433E-002  0.4411751E+03  0.7546771E-02  0.1030387E+00
         21   -1    0    0  502  501  0.00000000000E+00  0.00000000000E+00  0.44950429291E+02  0.44950429291E+02  0.00000000000E+00 0. -1.
         21   -1    0    0  501  502 -0.00000000000E+00 -0.00000000000E+00 -0.10825006416E+04  0.10825006416E+04  0.00000000000E+00 0. -1.
      99926    2    1    2    0    0  0.35527136788E-14  0.00000000000E+00 -0.10375502124E+04  0.11274510709E+04  0.44117510605E+03 0.  0.
         25    1    3    3    0    0 -0.32489215089E+02 -0.30210373221E+02 -0.25801078765E+03  0.29014701513E+03  0.12509000000E+03 0.  0.
         25    1    3    3    0    0  0.56268267426E+02 -0.54145349036E+02 -0.30476718484E+03  0.33856813465E+03  0.12509000000E+03 0.  0.
         25    1    3    3    0    0 -0.23779052336E+02  0.84355722257E+02 -0.47477223987E+03  0.49873592116E+03  0.12509000000E+03 0.  0.
<mgrwt>
<rscale>  2 0.44117511E+03</rscale>
<asrwt>0</asrwt>
<pdfrwt beam="1">  1       21 0.66103574E-02 0.44117511E+03</pdfrwt>
<pdfrwt beam="2">  1       21 0.15919127E+00 0.44117511E+03</pdfrwt>
<totfact> 0.38532433E+04</totfact>
</mgrwt>
</event>
<event>
 7    0  0.4793433E-002  0.4597836E+03  0.7546771E-02  0.1024844E+00
         21   -1    0    0  502  501  0.00000000000E+00  0.00000000000E+00  0.89510438659E+02  0.89510438659E+02  0.00000000000E+00 0. -1.
         21   -1    0    0  501  502 -0.00000000000E+00 -0.00000000000E+00 -0.59043649014E+03  0.59043649014E+03  0.00000000000E+00 0. -1.
      99926    2    1    2    0    0  0.00000000000E+00 -0.39968028887E-14 -0.50092605148E+03  0.67994692880E+03  0.45978355444E+03 0.  0.
      99925    2    3    3    0    0 -0.40939360995E+02  0.38554403719E+01 -0.47680986230E+03  0.54608134554E+03  0.26299485824E+03 0.  0.
         25    1    3    3    0    0  0.40939360995E+02 -0.38554403719E+01 -0.24116189172E+02  0.13386558325E+03  0.12509000000E+03 0.  0.
         25    1    4    4    0    0 -0.16964703418E+02  0.41303556048E+02 -0.21996062485E+03  0.25695129789E+03  0.12509000000E+03 0.  0.
         25    1    4    4    0    0 -0.23974657577E+02 -0.37448115676E+02 -0.25684923746E+03  0.28913004765E+03  0.12509000000E+03 0.  0.
<mgrwt>
<rscale>  2 0.45978355E+03</rscale>
<asrwt>0</asrwt>
<pdfrwt beam="1">  1       21 0.13163300E-01 0.45978355E+03</pdfrwt>
<pdfrwt beam="2">  1       21 0.86828895E-01 0.45978355E+03</pdfrwt>
<totfact> 0.52017206E+04</totfact>
</mgrwt>
</event>
<event>
 7    0  0.4793433E-002  0.4563292E+03  0.7546771E-02  0.1025851E+00
         21   -1    0    0  502  501  0.00000000000E+00  0.00000000000E+00  0.58939025582E+03  0.58939025582E+03  0.00000000000E+00 0.  1.
         21   -1    0    0  501  502 -0.00000000000E+00 -0.00000000000E+00 -0.88327036251E+02  0.88327036251E+02  0.00000000000E+00 0.  1.
      99926    2    1    2    0    0  0.14210854715E-13 -0.14210854715E-13  0.50106321957E+03  0.67771729208E+03  0.45632924295E+03 0.  0.
      99925    2    3    3    0    0  0.67983056164E+02 -0.89456426994E+02  0.28305249255E+03  0.40239868854E+03  0.26302441473E+03 0.  0.
         25    1    4    4    0    0  0.45082722774E+02 -0.51678735944E+02  0.91801673908E+02  0.16964138373E+03  0.12509000000E+03 0.  0.
         25    1    3    3    0    0 -0.67983056164E+02  0.89456426994E+02  0.21801072703E+03  0.27531860354E+03  0.12509000000E+03 0.  0.
         25    1    4    4    0    0  0.22900333390E+02 -0.37777691050E+02  0.19125081864E+03  0.23275730481E+03  0.12509000000E+03 0.  0.
<mgrwt>
<rscale>  2 0.45632924E+03</rscale>
<asrwt>0</asrwt>
<pdfrwt beam="1">  1       21 0.86675035E-01 0.45632924E+03</pdfrwt>
<pdfrwt beam="2">  1       21 0.12989270E-01 0.45632924E+03</pdfrwt>
<totfact> 0.53566782E+04</totfact>
</mgrwt>
</event>
<event>
 7    0  0.4793433E-002  0.4565571E+03  0.7546771E-02  0.1025784E+00
         21   -1    0    0  502  501  0.00000000000E+00  0.00000000000E+00  0.79273702950E+02  0.79273702950E+02  0.00000000000E+00 0.  1.
         21   -1    0    0  501  502 -0.00000000000E+00 -0.00000000000E+00 -0.65735670616E+03  0.65735670616E+03  0.00000000000E+00 0.  1.
      99926    2    1    2    0    0  0.00000000000E+00  0.00000000000E+00 -0.57808300321E+03  0.73663040911E+03  0.45655711694E+03 0.  0.
      99925    2    3    3    0    0  0.92066465095E+02 -0.35457059639E+02 -0.45729231509E+03  0.53670208318E+03  0.26305784074E+03 0.  0.
         25    1    3    3    0    0 -0.92066465095E+02  0.35457059639E+02 -0.12079068812E+03  0.19992832593E+03  0.12509000000E+03 0.  0.
         25    1    4    4    0    0  0.61956264670E+02 -0.12615580461E+02 -0.16477583053E+03  0.21632455715E+03  0.12509000000E+03 0.  0.
         25    1    4    4    0    0  0.30110200425E+02 -0.22841479178E+02 -0.29251648456E+03  0.32037752602E+03  0.12509000000E+03 0.  0.
<mgrwt>
<rscale>  2 0.45655712E+03</rscale>
<asrwt>0</asrwt>
<pdfrwt beam="1">  1       21 0.11657897E-01 0.45655712E+03</pdfrwt>
<pdfrwt beam="2">  1       21 0.96670106E-01 0.45655712E+03</pdfrwt>
<totfact> 0.50339777E+04</totfact>
</mgrwt>
</event>
<event>
 7    0  0.4793433E-002  0.4579416E+03  0.7546771E-02  0.1025380E+00
         21   -1    0    0  502  501  0.00000000000E+00  0.00000000000E+00  0.56258078220E+03  0.56258078220E+03  0.00000000000E+00 0.  1.
         21   -1    0    0  501  502 -0.00000000000E+00 -0.00000000000E+00 -0.93191291157E+02  0.93191291157E+02  0.00000000000E+00 0.  1.
      99926    2    1    2    0    0  0.00000000000E+00  0.00000000000E+00  0.46938949104E+03  0.65577207336E+03  0.45794160970E+03 0.  0.
      99925    2    3    3    0    0  0.84152249426E+02 -0.36480749042E+02  0.39367305525E+03  0.48316577891E+03  0.26468518913E+03 0.  0.
         25    1    4    4    0    0  0.75041136810E+02  0.33420435257E+01  0.23974993194E+03  0.28065972178E+03  0.12509000000E+03 0.  0.
         25    1    4    4    0    0  0.91111126157E+01 -0.39822792568E+02  0.15392312331E+03  0.20250605712E+03  0.12509000000E+03 0.  0.
         25    1    3    3    0    0 -0.84152249426E+02  0.36480749042E+02  0.75716435792E+02  0.17260629445E+03  0.12509000000E+03 0.  0.
<mgrwt>
<rscale>  2 0.45794161E+03</rscale>
<asrwt>0</asrwt>
<pdfrwt beam="1">  1       21 0.82732466E-01 0.45794161E+03</pdfrwt>
<pdfrwt beam="2">  1       21 0.13704602E-01 0.45794161E+03</pdfrwt>
<totfact> 0.54103876E+04</totfact>
</mgrwt>
</event>
<event>
 7    0  0.4793433E-002  0.4547961E+03  0.7546771E-02  0.1026301E+00
         21   -1    0    0  502  501  0.00000000000E+00  0.00000000000E+00  0.20592940985E+02  0.20592940985E+02  0.00000000000E+00 0. -1.
         21   -1    0    0  501  502 -0.00000000000E+00 -0.00000000000E+00 -0.25110482329E+04  0.25110482329E+04  0.00000000000E+00 0. -1.
      99926    2    1    2    0    0  0.00000000000E+00  0.00000000000E+00 -0.24904552919E+04  0.25316411739E+04  0.45479607769E+03 0.  0.
      99925    2    3    3    0    0  0.36012063149E+01  0.10394236950E+03 -0.13210739106E+04  0.13509984218E+04  0.26295146645E+03 0.  0.
         25    1    3    3    0    0 -0.36012063149E+01 -0.10394236950E+03 -0.11693813813E+04  0.11806427520E+04  0.12509000000E+03 0.  0.
         25    1    4    4    0    0  0.14042101185E+02  0.40590034310E+02 -0.81889439832E+03  0.82950604289E+03  0.12509000000E+03 0.  0.
         25    1    4    4    0    0 -0.10440894870E+02  0.63352335193E+02 -0.50217951226E+03  0.52149237894E+03  0.12509000000E+03 0.  0.
<mgrwt>
<rscale>  2 0.45479608E+03</rscale>
<asrwt>0</asrwt>
<pdfrwt beam="1">  1       21 0.30283730E-02 0.45479608E+03</pdfrwt>
<pdfrwt beam="2">  1       21 0.36927189E+00 0.45479608E+03</pdfrwt>
<totfact> 0.68242490E+03</totfact>
</mgrwt>
</event>
<event>
 7    0  0.4793433E-002  0.4570045E+03  0.7546771E-02  0.1025654E+00
         21   -1    0    0  502  501  0.00000000000E+00  0.00000000000E+00  0.48687876403E+03  0.48687876403E+03  0.00000000000E+00 0. -1.
         21   -1    0    0  501  502 -0.00000000000E+00 -0.00000000000E+00 -0.10724082168E+03  0.10724082168E+03  0.00000000000E+00 0. -1.
      99926    2    1    2    0    0  0.00000000000E+00  0.00000000000E+00  0.37963794235E+03  0.59411958571E+03  0.45700450201E+03 0.  0.
      99925    2    3    3    0    0  0.27833036237E+02  0.11151518132E+03  0.23173727630E+03  0.36888098180E+03  0.26298421995E+03 0.  0.
         25    1    4    4    0    0  0.39000828439E+02  0.90059107160E+02  0.14046088183E+03  0.21215200877E+03  0.12509000000E+03 0.  0.
         25    1    3    3    0    0 -0.27833036237E+02 -0.11151518132E+03  0.14790066605E+03  0.22523860391E+03  0.12509000000E+03 0.  0.
         25    1    4    4    0    0 -0.11167792202E+02  0.21456074163E+02  0.91276394466E+02  0.15672897303E+03  0.12509000000E+03 0.  0.
<mgrwt>
<rscale>  2 0.45700450E+03</rscale>
<asrwt>0</asrwt>
<pdfrwt beam="1">  1       21 0.71599817E-01 0.45700450E+03</pdfrwt>
<pdfrwt beam="2">  1       21 0.15770709E-01 0.45700450E+03</pdfrwt>
<totfact> 0.58115599E+04</totfact>
</mgrwt>
</event>
<event>
 7    0  0.4793433E-002  0.4559192E+03  0.7546771E-02  0.1025971E+00
         21   -1    0    0  502  501  0.00000000000E+00  0.00000000000E+00  0.27396872453E+03  0.27396872453E+03  0.00000000000E+00 0.  1.
         21   -1    0    0  501  502 -0.00000000000E+00 -0.00000000000E+00 -0.18967703727E+03  0.18967703727E+03  0.00000000000E+00 0.  1.
      99926    2    1    2    0    0 -0.88817841970E-15  0.00000000000E+00  0.84291687257E+02  0.46364576180E+03  0.45591918571E+03 0.  0.
      99925    2    3    3    0    0 -0.26487224369E+01  0.11020830886E+03  0.82753713250E+02  0.29690416371E+03  0.26296581203E+03 0.  0.
         25    1    3    3    0    0  0.26487224369E+01 -0.11020830886E+03  0.15379740074E+01  0.16674159810E+03  0.12509000000E+03 0.  0.
         25    1    4    4    0    0 -0.20561688550E+02  0.78891341087E+02  0.73404236140E+02  0.16638003702E+03  0.12509000000E+03 0.  0.
         25    1    4    4    0    0  0.17912966113E+02  0.31316967772E+02  0.93494771094E+01  0.13052412669E+03  0.12509000000E+03 0.  0.
<mgrwt>
<rscale>  2 0.45591919E+03</rscale>
<asrwt>0</asrwt>
<pdfrwt beam="1">  1       21 0.40289519E-01 0.45591919E+03</pdfrwt>
<pdfrwt beam="2">  1       21 0.27893682E-01 0.45591919E+03</pdfrwt>
<totfact> 0.67416836E+04</totfact>
</mgrwt>
</event>
<event>
 7    0  0.4793433E-002  0.4557430E+03  0.7546771E-02  0.1026023E+00
         21   -1    0    0  502  501  0.00000000000E+00  0.00000000000E+00  0.57629597442E+03  0.57629597442E+03  0.00000000000E+00 0. -1.
         21   -1    0    0  501  502 -0.00000000000E+00 -0.00000000000E+00 -0.90101992068E+02  0.90101992068E+02  0.00000000000E+00 0. -1.
      99926    2    1    2    0    0 -0.14210854715E-13  0.00000000000E+00  0.48619398235E+03  0.66639796649E+03  0.45574297720E+03 0.  0.
      99925    2    3    3    0    0 -0.97696776421E+02  0.55196367380E+02  0.27866161058E+03  0.39936146612E+03  0.26314632492E+03 0.  0.
         25    1    4    4    0    0 -0.20432700472E+02  0.79728105022E+01  0.90505204870E+02  0.15594794376E+03  0.12509000000E+03 0.  0.
         25    1    4    4    0    0 -0.77264075948E+02  0.47223556877E+02  0.18815640571E+03  0.24341352235E+03  0.12509000000E+03 0.  0.
         25    1    3    3    0    0  0.97696776421E+02 -0.55196367380E+02  0.20753237178E+03  0.26703650037E+03  0.12509000000E+03 0.  0.
<mgrwt>
<rscale>  2 0.45574298E+03</rscale>
<asrwt>0</asrwt>
<pdfrwt beam="1">  1       21 0.84749407E-01 0.45574298E+03</pdfrwt>
<pdfrwt beam="2">  1       21 0.13250293E-01 0.45574298E+03</pdfrwt>
<totfact> 0.54445832E+04</totfact>
</mgrwt>
</event>
<event>
 7    0  0.4793433E-002  0.4549660E+03  0.7546771E-02  0.1026251E+00
         21   -1    0    0  502  501  0.00000000000E+00  0.00000000000E+00  0.89048347318E+02  0.89048347318E+02  0.00000000000E+00 0.  1.
         21   -1    0    0  501  502 -0.00000000000E+00 -0.00000000000E+00 -0.58112826612E+03  0.58112826612E+03  0.00000000000E+00 0.  1.
      99926    2    1    2    0    0  0.71054273576E-14  0.00000000000E+00 -0.49207991880E+03  0.67017661344E+03  0.45496598413E+03 0.  0.
      99925    2    3    3    0    0  0.61305627905E+02  0.59381932366E+02 -0.20025825049E+03  0.34140315328E+03  0.26299838836E+03 0.  0.
         25    1    3    3    0    0 -0.61305627905E+02 -0.59381932366E+02 -0.29182166831E+03  0.32877346016E+03  0.12509000000E+03 0.  0.
         25    1    4    4    0    0  0.29170512830E+02 -0.11817143098E+02 -0.90717494978E+02  0.15769507185E+03  0.12509000000E+03 0.  0.
         25    1    4    4    0    0  0.32135115075E+02  0.71199075463E+02 -0.10954075551E+03  0.18370808144E+03  0.12509000000E+03 0.  0.
<mgrwt>
<rscale>  2 0.45496598E+03</rscale>
<asrwt>0</asrwt>
<pdfrwt beam="1">  1       21 0.13095345E-01 0.45496598E+03</pdfrwt>
<pdfrwt beam="2">  1       21 0.85460039E-01 0.45496598E+03</pdfrwt>
<totfact> 0.54566992E+04</totfact>
</mgrwt>
</event>
<event>
 7    0  0.4793433E-002  0.4545732E+03  0.7546771E-02  0.1026367E+00
         21   -1    0    0  502  501  0.00000000000E+00  0.00000000000E+00  0.78544380758E+02  0.78544380758E+02  0.00000000000E+00 0.  1.
         21   -1    0    0  501  502 -0.00000000000E+00 -0.00000000000E+00 -0.65770715297E+03  0.65770715297E+03  0.00000000000E+00 0.  1.
      99926    2    1    2    0    0  0.00000000000E+00  0.14210854715E-13 -0.57916277221E+03  0.73625153372E+03  0.45457321105E+03 0.  0.
      99925    2    3    3    0    0 -0.38562276331E+02  0.95487182854E+02 -0.29082813653E+03  0.40551111969E+03  0.26316043006E+03 0.  0.
         25    1    4    4    0    0 -0.45701015773E+02  0.51659286433E+02 -0.10563798680E+03  0.17766304363E+03  0.12509000000E+03 0.  0.
         25    1    4    4    0    0  0.71387394423E+01  0.43827896421E+02 -0.18519014973E+03  0.22784807606E+03  0.12509000000E+03 0.  0.
         25    1    3    3    0    0  0.38562276331E+02 -0.95487182854E+02 -0.28833463568E+03  0.33074041404E+03  0.12509000000E+03 0.  0.
<mgrwt>
<rscale>  2 0.45457321E+03</rscale>
<asrwt>0</asrwt>
<pdfrwt beam="1">  1       21 0.11550644E-01 0.45457321E+03</pdfrwt>
<pdfrwt beam="2">  1       21 0.96721641E-01 0.45457321E+03</pdfrwt>
<totfact> 0.51149970E+04</totfact>
</mgrwt>
</event>
<event>
 7    0  0.4793433E-002  0.4440794E+03  0.7546771E-02  0.1029502E+00
         21   -1    0    0  502  501  0.00000000000E+00  0.00000000000E+00  0.18276510409E+03  0.18276510409E+03  0.00000000000E+00 0.  1.
         21   -1    0    0  501  502 -0.00000000000E+00 -0.00000000000E+00 -0.26975405779E+03  0.26975405779E+03  0.00000000000E+00 0.  1.
      99926    2    1    2    0    0 -0.35527136788E-14  0.00000000000E+00 -0.86988953700E+02  0.45251916188E+03  0.44407940034E+03 0.  0.
      99925    2    3    3    0    0  0.23458984200E+02  0.99767290126E+02 -0.49428104379E+02  0.28650060382E+03  0.26293653677E+03 0.  0.
         25    1    3    3    0    0 -0.23458984200E+02 -0.99767290126E+02 -0.37560849320E+02  0.16601855806E+03  0.12509000000E+03 0.  0.
         25    1    4    4    0    0  0.45847089742E+02  0.65872697816E+02 -0.89481752911E+01  0.14889172541E+03  0.12509000000E+03 0.  0.
         25    1    4    4    0    0 -0.22388105542E+02  0.33894592310E+02 -0.40479929088E+02  0.13760887841E+03  0.12509000000E+03 0.  0.
<mgrwt>
<rscale>  2 0.44407940E+03</rscale>
<asrwt>0</asrwt>
<pdfrwt beam="1">  1       21 0.26877221E-01 0.44407940E+03</pdfrwt>
<pdfrwt beam="2">  1       21 0.39669714E-01 0.44407940E+03</pdfrwt>
<totfact> 0.75052338E+04</totfact>
</mgrwt>
</event>
<event>
 7    0  0.4793433E-002  0.4582476E+03  0.7546771E-02  0.1025291E+00
         21   -1    0    0  502  501  0.00000000000E+00  0.00000000000E+00  0.40144596195E+03  0.40144596195E+03  0.00000000000E+00 0.  1.
         21   -1    0    0  501  502 -0.00000000000E+00 -0.00000000000E+00 -0.13077157854E+03  0.13077157854E+03  0.00000000000E+00 0.  1.
      99926    2    1    2    0    0  0.00000000000E+00  0.00000000000E+00  0.27067438341E+03  0.53221754048E+03  0.45824762799E+03 0.  0.
      99925    2    3    3    0    0  0.94364794784E+02 -0.31319860678E+02  0.10076344274E+03  0.29897328219E+03  0.26333648418E+03 0.  0.
         25    1    3    3    0    0 -0.94364794784E+02  0.31319860678E+02  0.16991094067E+03  0.23324425830E+03  0.12509000000E+03 0.  0.
         25    1    4    4    0    0  0.18166228983E+02 -0.29648313947E+02  0.18992654017E+02  0.13121457008E+03  0.12509000000E+03 0.  0.
         25    1    4    4    0    0  0.76198565801E+02 -0.16715467306E+01  0.81770788721E+02  0.16775871210E+03  0.12509000000E+03 0.  0.
<mgrwt>
<rscale>  2 0.45824763E+03</rscale>
<asrwt>0</asrwt>
<pdfrwt beam="1">  1       21 0.59036171E-01 0.45824763E+03</pdfrwt>
<pdfrwt beam="2">  1       21 0.19231115E-01 0.45824763E+03</pdfrwt>
<totfact> 0.61459364E+04</totfact>
</mgrwt>
</event>
<event>
 7    0  0.4793433E-002  0.4524769E+03  0.7546771E-02  0.1026986E+00
         21   -1    0    0  502  501  0.00000000000E+00  0.00000000000E+00  0.24393770597E+03  0.24393770597E+03  0.00000000000E+00 0.  1.
         21   -1    0    0  501  502 -0.00000000000E+00 -0.00000000000E+00 -0.20982337791E+03  0.20982337791E+03  0.00000000000E+00 0.  1.
      99926    2    1    2    0    0  0.00000000000E+00  0.00000000000E+00  0.34114328054E+02  0.45376108388E+03  0.45247688766E+03 0.  0.
      99925    2    3    3    0    0 -0.24796013106E+02  0.91076736990E+02  0.78720252414E+02  0.29082854915E+03  0.26358025831E+03 0.  0.
         25    1    4    4    0    0 -0.47989263862E+02  0.24333011803E+02  0.33807808010E+02  0.14030517058E+03  0.12509000000E+03 0.  0.
         25    1    4    4    0    0  0.23193250756E+02  0.66743725187E+02  0.44912444404E+02  0.15052337857E+03  0.12509000000E+03 0.  0.
         25    1    3    3    0    0  0.24796013106E+02 -0.91076736990E+02 -0.44605924360E+02  0.16293253473E+03  0.12509000000E+03 0.  0.
<mgrwt>
<rscale>  2 0.45247689E+03</rscale>
<asrwt>0</asrwt>
<pdfrwt beam="1">  1       21 0.35873192E-01 0.45247689E+03</pdfrwt>
<pdfrwt beam="2">  1       21 0.30856379E-01 0.45247689E+03</pdfrwt>
<totfact> 0.70036013E+04</totfact>
</mgrwt>
</event>
<event>
 7    0  0.4793433E-002  0.4496459E+03  0.7546771E-02  0.1027828E+00
         21   -1    0    0  502  501  0.00000000000E+00  0.00000000000E+00  0.94235621022E+02  0.94235621022E+02  0.00000000000E+00 0. -1.
         21   -1    0    0  501  502 -0.00000000000E+00 -0.00000000000E+00 -0.53637200222E+03  0.53637200222E+03  0.00000000000E+00 0. -1.
      99926    2    1    2    0    0  0.17763568394E-14 -0.17763568394E-14 -0.44213638120E+03  0.63060762324E+03  0.44964585499E+03 0.  0.
      99925    2    3    3    0    0  0.11902276791E+02  0.77401485355E+01 -0.12934770104E+03  0.29343431376E+03  0.26300436239E+03 0.  0.
         25    1    4    4    0    0  0.14570848345E+02  0.22548462483E+02 -0.10409586297E+03  0.16493695635E+03  0.12509000000E+03 0.  0.
         25    1    3    3    0    0 -0.11902276791E+02 -0.77401485355E+01 -0.31278868015E+03  0.33717330948E+03  0.12509000000E+03 0.  0.
         25    1    4    4    0    0 -0.26685715543E+01 -0.14808313947E+02 -0.25251838072E+02  0.12849735741E+03  0.12509000000E+03 0.  0.
<mgrwt>
<rscale>  2 0.44964585E+03</rscale>
<asrwt>0</asrwt>
<pdfrwt beam="1">  1       21 0.13858180E-01 0.44964585E+03</pdfrwt>
<pdfrwt beam="2">  1       21 0.78878234E-01 0.44964585E+03</pdfrwt>
<totfact> 0.59299498E+04</totfact>
</mgrwt>
</event>
<event>
 7    0  0.4793433E-002  0.4583912E+03  0.7546771E-02  0.1025249E+00
         21   -1    0    0  502  501  0.00000000000E+00  0.00000000000E+00  0.23361644046E+04  0.23361644046E+04  0.00000000000E+00 0.  1.
         21   -1    0    0  501  502 -0.00000000000E+00 -0.00000000000E+00 -0.22485837112E+02  0.22485837112E+02  0.00000000000E+00 0.  1.
      99926    2    1    2    0    0  0.71054273576E-14  0.35527136788E-14  0.23136785674E+04  0.23586502417E+04  0.45839115292E+03 0.  0.
      99925    2    3    3    0    0 -0.57529050417E+02 -0.11527696470E+02  0.93487803623E+03  0.97294432323E+03  0.26302325762E+03 0.  0.
         25    1    3    3    0    0  0.57529050417E+02  0.11527696470E+02  0.13788005312E+04  0.13857059184E+04  0.12509000000E+03 0.  0.
         25    1    4    4    0    0 -0.46683677342E+02 -0.38815959299E+02  0.42720778772E+03  0.44926611982E+03  0.12509000000E+03 0.  0.
         25    1    4    4    0    0 -0.10845373074E+02  0.27288262829E+02  0.50767024851E+03  0.52367820341E+03  0.12509000000E+03 0.  0.
<mgrwt>
<rscale>  2 0.45839115E+03</rscale>
<asrwt>0</asrwt>
<pdfrwt beam="1">  1       21 0.34355342E+00 0.45839115E+03</pdfrwt>
<pdfrwt beam="2">  1       21 0.33067424E-02 0.45839115E+03</pdfrwt>
<totfact> 0.84631090E+03</totfact>
</mgrwt>
</event>
<event>
 7    0  0.4793433E-002  0.4523505E+03  0.7546771E-02  0.1027023E+00
         21   -1    0    0  502  501  0.00000000000E+00  0.00000000000E+00  0.12684393136E+03  0.12684393136E+03  0.00000000000E+00 0. -1.
         21   -1    0    0  501  502 -0.00000000000E+00 -0.00000000000E+00 -0.40329272812E+03  0.40329272812E+03  0.00000000000E+00 0. -1.
      99926    2    1    2    0    0  0.00000000000E+00  0.35527136788E-14 -0.27644879675E+03  0.53013665948E+03  0.45235046203E+03 0.  0.
      99925    2    3    3    0    0  0.34790515837E+02  0.30751368615E+02 -0.56715587710E+02  0.27306426127E+03  0.26304259394E+03 0.  0.
         25    1    3    3    0    0 -0.34790515837E+02 -0.30751368615E+02 -0.21973320904E+03  0.25707239821E+03  0.12509000000E+03 0.  0.
         25    1    4    4    0    0 -0.22816119319E+02  0.83470077384E+01 -0.31707977251E+02  0.13131318197E+03  0.12509000000E+03 0.  0.
         25    1    4    4    0    0  0.57606635156E+02  0.22404360876E+02 -0.25007610459E+02  0.14175107929E+03  0.12509000000E+03 0.  0.
<mgrwt>
<rscale>  2 0.45235046E+03</rscale>
<asrwt>0</asrwt>
<pdfrwt beam="1">  1       21 0.18653520E-01 0.45235046E+03</pdfrwt>
<pdfrwt beam="2">  1       21 0.59307753E-01 0.45235046E+03</pdfrwt>
<totfact> 0.64541528E+04</totfact>
</mgrwt>
</event>
<event>
 7    0  0.4793433E-002  0.4703186E+03  0.7546771E-02  0.1021830E+00
         21   -1    0    0  502  501  0.00000000000E+00  0.00000000000E+00  0.51231252339E+03  0.51231252339E+03  0.00000000000E+00 0.  1.
         21   -1    0    0  501  502 -0.00000000000E+00 -0.00000000000E+00 -0.10794170300E+03  0.10794170300E+03  0.00000000000E+00 0.  1.
      99926    2    1    2    0    0  0.00000000000E+00  0.00000000000E+00  0.40437082039E+03  0.62025422639E+03  0.47031855690E+03 0.  0.
      99925    2    3    3    0    0 -0.80858744291E+02 -0.97944369635E+02  0.25027207948E+03  0.38461644053E+03  0.26298755957E+03 0.  0.
         25    1    4    4    0    0 -0.78605652574E+01 -0.27536607015E+02  0.13710653714E+03  0.18779180983E+03  0.12509000000E+03 0.  0.
         25    1    4    4    0    0 -0.72998179034E+02 -0.70407762620E+02  0.11316554234E+03  0.19682463070E+03  0.12509000000E+03 0.  0.
         25    1    3    3    0    0  0.80858744291E+02  0.97944369635E+02  0.15409874092E+03  0.23563778586E+03  0.12509000000E+03 0.  0.
<mgrwt>
<rscale>  2 0.47031856E+03</rscale>
<asrwt>0</asrwt>
<pdfrwt beam="1">  1       21 0.75340076E-01 0.47031856E+03</pdfrwt>
<pdfrwt beam="2">  1       21 0.15873780E-01 0.47031856E+03</pdfrwt>
<totfact> 0.50993901E+04</totfact>
</mgrwt>
</event>
<event>
 7    0  0.4793433E-002  0.4396694E+03  0.7546771E-02  0.1030848E+00
         21   -1    0    0  502  501  0.00000000000E+00  0.00000000000E+00  0.12656808982E+03  0.12656808982E+03  0.00000000000E+00 0.  1.
         21   -1    0    0  501  502 -0.00000000000E+00 -0.00000000000E+00 -0.38182835678E+03  0.38182835678E+03  0.00000000000E+00 0.  1.
      99926    2    1    2    0    0  0.71054273576E-14  0.00000000000E+00 -0.25526026695E+03  0.50839644660E+03  0.43966935649E+03 0.  0.
      99925    2    3    3    0    0  0.60482875851E+02 -0.18685264247E+02 -0.76261917333E+02  0.28103058585E+03  0.26297336894E+03 0.  0.
         25    1    3    3    0    0 -0.60482875851E+02  0.18685264247E+02 -0.17899834962E+03  0.22736586076E+03  0.12509000000E+03 0.  0.
         25    1    4    4    0    0  0.62456679811E+02 -0.34682351297E+02 -0.33962909047E+02  0.14800232983E+03  0.12509000000E+03 0.  0.
         25    1    4    4    0    0 -0.19738039602E+01  0.15997087050E+02 -0.42299008287E+02  0.13302825601E+03  0.12509000000E+03 0.  0.
<mgrwt>
<rscale>  2 0.43966936E+03</rscale>
<asrwt>0</asrwt>
<pdfrwt beam="1">  1       21 0.18612954E-01 0.43966936E+03</pdfrwt>
<pdfrwt beam="2">  1       21 0.56151230E-01 0.43966936E+03</pdfrwt>
<totfact> 0.73189812E+04</totfact>
</mgrwt>
</event>
<event>
 7    0  0.4793433E-002  0.4724052E+03  0.7546771E-02  0.1021244E+00
         21   -1    0    0  502  501  0.00000000000E+00  0.00000000000E+00  0.47628932141E+02  0.47628932141E+02  0.00000000000E+00 0.  1.
         21   -1    0    0  501  502 -0.00000000000E+00 -0.00000000000E+00 -0.11713816598E+04  0.11713816598E+04  0.00000000000E+00 0.  1.
      99926    2    1    2    0    0  0.00000000000E+00  0.00000000000E+00 -0.11237527276E+04  0.12190105919E+04  0.47240515486E+03 0.  0.
      99925    2    3    3    0    0 -0.55658850037E+01  0.91687855396E+02 -0.46361804939E+03  0.54087864058E+03  0.26300259735E+03 0.  0.
         25    1    4    4    0    0  0.19449921988E+02  0.73334825187E+02 -0.20407797293E+03  0.25110082275E+03  0.12509000000E+03 0.  0.
         25    1    4    4    0    0 -0.25015806992E+02  0.18353030209E+02 -0.25954007646E+03  0.28977781783E+03  0.12509000000E+03 0.  0.
         25    1    3    3    0    0  0.55658850037E+01 -0.91687855396E+02 -0.66013467824E+03  0.67813195133E+03  0.12509000000E+03 0.  0.
<mgrwt>
<rscale>  2 0.47240515E+03</rscale>
<asrwt>0</asrwt>
<pdfrwt beam="1">  1       21 0.70042546E-02 0.47240515E+03</pdfrwt>
<pdfrwt beam="2">  1       21 0.17226201E+00 0.47240515E+03</pdfrwt>
<totfact> 0.27620510E+04</totfact>
</mgrwt>
</event>
<event>
 7    0  0.4793433E-002  0.4587572E+03  0.7546771E-02  0.1025142E+00
         21   -1    0    0  502  501  0.00000000000E+00  0.00000000000E+00  0.14480703365E+03  0.14480703365E+03  0.00000000000E+00 0. -1.
         21   -1    0    0  501  502 -0.00000000000E+00 -0.00000000000E+00 -0.36334243279E+03  0.36334243279E+03  0.00000000000E+00 0. -1.
      99926    2    1    2    0    0 -0.14210854715E-13 -0.35527136788E-14 -0.21853539914E+03  0.50814946645E+03  0.45875719021E+03 0.  0.
      99925    2    3    3    0    0 -0.11412992696E+03 -0.24317598144E+02 -0.13642557135E+03  0.31839563189E+03  0.26295789793E+03 0.  0.
         25    1    4    4    0    0 -0.37989856317E+02 -0.45344836364E+02 -0.50431934144E+02  0.14727617407E+03  0.12509000000E+03 0.  0.
         25    1    3    3    0    0  0.11412992696E+03  0.24317598144E+02 -0.82109827798E+02  0.18975383456E+03  0.12509000000E+03 0.  0.
         25    1    4    4    0    0 -0.76140070642E+02  0.21027238220E+02 -0.85993637202E+02  0.17111945782E+03  0.12509000000E+03 0.  0.
<mgrwt>
<rscale>  2 0.45875719E+03</rscale>
<asrwt>0</asrwt>
<pdfrwt beam="1">  1       21 0.21295152E-01 0.45875719E+03</pdfrwt>
<pdfrwt beam="2">  1       21 0.53432710E-01 0.45875719E+03</pdfrwt>
<totfact> 0.62807838E+04</totfact>
</mgrwt>
</event>
<event>
 7    0  0.4793433E-002  0.4666270E+03  0.7546771E-02  0.1022877E+00
         21   -1    0    0  502  501  0.00000000000E+00  0.00000000000E+00  0.55317425499E+03  0.55317425499E+03  0.00000000000E+00 0. -1.
         21   -1    0    0  501  502 -0.00000000000E+00 -0.00000000000E+00 -0.98405145997E+02  0.98405145997E+02  0.00000000000E+00 0. -1.
      99926    2    1    2    0    0  0.00000000000E+00  0.00000000000E+00  0.45476910899E+03  0.65157940099E+03  0.46662701732E+03 0.  0.
      99925    2    3    3    0    0 -0.40116331890E+02  0.11100579222E+03  0.33453123515E+03  0.44173121682E+03  0.26321799831E+03 0.  0.
         25    1    4    4    0    0 -0.47502939342E+02  0.80194330243E+02  0.14888613706E+03  0.21564380297E+03  0.12509000000E+03 0.  0.
         25    1    3    3    0    0  0.40116331890E+02 -0.11100579222E+03  0.12023787385E+03  0.20984818417E+03  0.12509000000E+03 0.  0.
         25    1    4    4    0    0  0.73866074516E+01  0.30811461980E+02  0.18564509809E+03  0.22608741385E+03  0.12509000000E+03 0.  0.
<mgrwt>
<rscale>  2 0.46662702E+03</rscale>
<asrwt>0</asrwt>
<pdfrwt beam="1">  1       21 0.81349154E-01 0.46662702E+03</pdfrwt>
<pdfrwt beam="2">  1       21 0.14471345E-01 0.46662702E+03</pdfrwt>
<totfact> 0.50788933E+04</totfact>
</mgrwt>
</event>
<event>
 7    0  0.4793433E-002  0.4117028E+03  0.7546771E-02  0.1039801E+00
         21   -1    0    0  502  501  0.00000000000E+00  0.00000000000E+00  0.28433596125E+03  0.28433596125E+03  0.00000000000E+00 0. -1.
         21   -1    0    0  501  502 -0.00000000000E+00 -0.00000000000E+00 -0.14903072521E+03  0.14903072521E+03  0.00000000000E+00 0. -1.
      99926    2    1    2    0    0  0.17763568394E-14  0.14210854715E-13  0.13530523604E+03  0.43336668646E+03  0.41170277875E+03 0.  0.
      99925    2    3    3    0    0  0.23254656966E+01 -0.64684682482E+02  0.90763706552E+02  0.28564745316E+03  0.26299600972E+03 0.  0.
         25    1    4    4    0    0 -0.15239430502E+02 -0.41561533805E+02  0.84017313391E+02  0.15705418932E+03  0.12509000000E+03 0.  0.
         25    1    3    3    0    0 -0.23254656966E+01  0.64684682482E+02  0.44541529486E+02  0.14771923330E+03  0.12509000000E+03 0.  0.
         25    1    4    4    0    0  0.17564896199E+02 -0.23123148677E+02  0.67463931613E+01  0.12859326384E+03  0.12509000000E+03 0.  0.
<mgrwt>
<rscale>  2 0.41170278E+03</rscale>
<asrwt>0</asrwt>
<pdfrwt beam="1">  1       21 0.41814112E-01 0.41170278E+03</pdfrwt>
<pdfrwt beam="2">  1       21 0.21916283E-01 0.41170278E+03</pdfrwt>
<totfact> 0.10063273E+05</totfact>
</mgrwt>
</event>
<event>
 7    0  0.4793433E-002  0.4556081E+03  0.7546771E-02  0.1026063E+00
         21   -1    0    0  502  501  0.00000000000E+00  0.00000000000E+00  0.11109588866E+04  0.11109588866E+04  0.00000000000E+00 0. -1.
         21   -1    0    0  501  502 -0.00000000000E+00 -0.00000000000E+00 -0.46711620300E+02  0.46711620300E+02  0.00000000000E+00 0. -1.
      99926    2    1    2    0    0  0.00000000000E+00  0.00000000000E+00  0.10642472663E+04  0.11576705069E+04  0.45560811969E+03 0.  0.
      99925    2    3    3    0    0 -0.67995080211E+02  0.15556568792E+02  0.44055699640E+03  0.51774676251E+03  0.26288002063E+03 0.  0.
         25    1    4    4    0    0 -0.49400684967E+02 -0.45456117455E+01  0.15807765600E+03  0.20759851562E+03  0.12509000000E+03 0.  0.
         25    1    3    3    0    0  0.67995080211E+02 -0.15556568792E+02  0.62369026992E+03  0.63992374441E+03  0.12509000000E+03 0.  0.
         25    1    4    4    0    0 -0.18594395243E+02  0.20102180537E+02  0.28247934039E+03  0.31014824688E+03  0.12509000000E+03 0.  0.
<mgrwt>
<rscale>  2 0.45560812E+03</rscale>
<asrwt>0</asrwt>
<pdfrwt beam="1">  1       21 0.16337629E+00 0.45560812E+03</pdfrwt>
<pdfrwt beam="2">  1       21 0.68693566E-02 0.45560812E+03</pdfrwt>
<totfact> 0.33368876E+04</totfact>
</mgrwt>
</event>
<event>
 7    0  0.4793433E-002  0.4509983E+03  0.7546771E-02  0.1027425E+00
         21   -1    0    0  502  501  0.00000000000E+00  0.00000000000E+00  0.25429625276E+03  0.25429625276E+03  0.00000000000E+00 0.  1.
         21   -1    0    0  501  502 -0.00000000000E+00 -0.00000000000E+00 -0.19996306789E+03  0.19996306789E+03  0.00000000000E+00 0.  1.
      99926    2    1    2    0    0  0.00000000000E+00  0.00000000000E+00  0.54333184870E+02  0.45425932065E+03  0.45099826543E+03 0.  0.
      99925    2    3    3    0    0  0.39172628954E+02 -0.81663293597E+02 -0.27426580155E+02  0.27951506279E+03  0.26300772735E+03 0.  0.
         25    1    4    4    0    0  0.44395119619E+02 -0.23222958721E+02 -0.40567543741E+02  0.14072478873E+03  0.12509000000E+03 0.  0.
         25    1    3    3    0    0 -0.39172628954E+02  0.81663293597E+02  0.81759765025E+02  0.17474425787E+03  0.12509000000E+03 0.  0.
         25    1    4    4    0    0 -0.52224906654E+01 -0.58440334876E+02  0.13140963586E+02  0.13879027406E+03  0.12509000000E+03 0.  0.
<mgrwt>
<rscale>  2 0.45099827E+03</rscale>
<asrwt>0</asrwt>
<pdfrwt beam="1">  1       21 0.37396508E-01 0.45099827E+03</pdfrwt>
<pdfrwt beam="2">  1       21 0.29406333E-01 0.45099827E+03</pdfrwt>
<totfact> 0.70834657E+04</totfact>
</mgrwt>
</event>
<event>
 7    0  0.4793433E-002  0.4477313E+03  0.7546771E-02  0.1028401E+00
         21   -1    0    0  502  501  0.00000000000E+00  0.00000000000E+00  0.24893638813E+03  0.24893638813E+03  0.00000000000E+00 0. -1.
         21   -1    0    0  501  502 -0.00000000000E+00 -0.00000000000E+00 -0.20131983997E+03  0.20131983997E+03  0.00000000000E+00 0. -1.
      99926    2    1    2    0    0  0.00000000000E+00  0.00000000000E+00  0.47616548164E+02  0.45025622809E+03  0.44773132041E+03 0.  0.
      99925    2    3    3    0    0  0.13552046588E+02  0.49223362108E+02 -0.63498570719E+02  0.27532574165E+03  0.26299353259E+03 0.  0.
         25    1    4    4    0    0  0.39132370351E+01  0.58815929448E+02 -0.10144922179E+02  0.13865444287E+03  0.12509000000E+03 0.  0.
         25    1    3    3    0    0 -0.13552046588E+02 -0.49223362108E+02  0.11111511888E+03  0.17493048645E+03  0.12509000000E+03 0.  0.
         25    1    4    4    0    0  0.96388095534E+01 -0.95925673395E+01 -0.53353648540E+02  0.13667129878E+03  0.12509000000E+03 0.  0.
<mgrwt>
<rscale>  2 0.44773132E+03</rscale>
<asrwt>0</asrwt>
<pdfrwt beam="1">  1       21 0.36608292E-01 0.44773132E+03</pdfrwt>
<pdfrwt beam="2">  1       21 0.29605859E-01 0.44773132E+03</pdfrwt>
<totfact> 0.73039457E+04</totfact>
</mgrwt>
</event>
<event>
 7    0  0.4793433E-002  0.4792974E+03  0.7546771E-02  0.1019328E+00
         21   -1    0    0  502  501  0.00000000000E+00  0.00000000000E+00  0.11967373010E+04  0.11967373010E+04  0.00000000000E+00 0. -1.
         21   -1    0    0  501  502 -0.00000000000E+00 -0.00000000000E+00 -0.47990070932E+02  0.47990070932E+02  0.00000000000E+00 0. -1.
      99926    2    1    2    0    0  0.00000000000E+00 -0.35527136788E-14  0.11487472301E+04  0.12447273719E+04  0.47929743567E+03 0.  0.
      99925    2    3    3    0    0 -0.40775731602E+02  0.25659272554E+02  0.10347995227E+04  0.10687937291E+04  0.26303787694E+03 0.  0.
         25    1    4    4    0    0 -0.19216830212E+01  0.44694778018E+02  0.58679542944E+03  0.60164582618E+03  0.12509000000E+03 0.  0.
         25    1    3    3    0    0  0.40775731602E+02 -0.25659272554E+02  0.11394770740E+03  0.17593364282E+03  0.12509000000E+03 0.  0.
         25    1    4    4    0    0 -0.38854048581E+02 -0.19035505464E+02  0.44800409321E+03  0.46714790291E+03  0.12509000000E+03 0.  0.
<mgrwt>
<rscale>  2 0.47929744E+03</rscale>
<asrwt>0</asrwt>
<pdfrwt beam="1">  1       21 0.17599076E+00 0.47929744E+03</pdfrwt>
<pdfrwt beam="2">  1       21 0.70573641E-02 0.47929744E+03</pdfrwt>
<totfact> 0.25572589E+04</totfact>
</mgrwt>
</event>
<event>
 7    0  0.4793433E-002  0.4606184E+03  0.7546771E-02  0.1024602E+00
         21   -1    0    0  502  501  0.00000000000E+00  0.00000000000E+00  0.35856322892E+03  0.35856322892E+03  0.00000000000E+00 0. -1.
         21   -1    0    0  501  502 -0.00000000000E+00 -0.00000000000E+00 -0.14793016688E+03  0.14793016688E+03  0.00000000000E+00 0. -1.
      99926    2    1    2    0    0  0.00000000000E+00  0.00000000000E+00  0.21063306203E+03  0.50649339580E+03  0.46061835956E+03 0.  0.
      99925    2    3    3    0    0  0.80542747626E+02 -0.35212292229E+02  0.21901865090E+03  0.35337623177E+03  0.26301815911E+03 0.  0.
         25    1    3    3    0    0 -0.80542747626E+02  0.35212292229E+02 -0.83855888678E+01  0.15311716403E+03  0.12509000000E+03 0.  0.
         25    1    4    4    0    0  0.67660394963E+02  0.89915357307E+01  0.13161174226E+03  0.19397921425E+03  0.12509000000E+03 0.  0.
         25    1    4    4    0    0  0.12882352663E+02 -0.44203827960E+02  0.87406908639E+02  0.15939701752E+03  0.12509000000E+03 0.  0.
<mgrwt>
<rscale>  2 0.46061836E+03</rscale>
<asrwt>0</asrwt>
<pdfrwt beam="1">  1       21 0.52729886E-01 0.46061836E+03</pdfrwt>
<pdfrwt beam="2">  1       21 0.21754436E-01 0.46061836E+03</pdfrwt>
<totfact> 0.62005175E+04</totfact>
</mgrwt>
</event>
<event>
 7    0  0.4793433E-002  0.4558549E+03  0.7546771E-02  0.1025990E+00
         21   -1    0    0  502  501  0.00000000000E+00  0.00000000000E+00  0.79607054843E+03  0.79607054843E+03  0.00000000000E+00 0. -1.
         21   -1    0    0  501  502 -0.00000000000E+00 -0.00000000000E+00 -0.65259186617E+02  0.65259186617E+02  0.00000000000E+00 0. -1.
      99926    2    1    2    0    0  0.00000000000E+00  0.00000000000E+00  0.73081136181E+03  0.86132973504E+03  0.45585487375E+03 0.  0.
      99925    2    3    3    0    0  0.41382124999E+01 -0.10867629952E+03  0.52446451068E+03  0.59665220681E+03  0.26287481821E+03 0.  0.
         25    1    4    4    0    0  0.67825970162E+01 -0.16059279755E+02  0.19601590593E+03  0.23318157639E+03  0.12509000000E+03 0.  0.
         25    1    3    3    0    0 -0.41382124999E+01  0.10867629952E+03  0.20634685113E+03  0.26467752823E+03  0.12509000000E+03 0.  0.
         25    1    4    4    0    0 -0.26443845163E+01 -0.92617019764E+02  0.32844860475E+03  0.36347063043E+03  0.12509000000E+03 0.  0.
<mgrwt>
<rscale>  2 0.45585487E+03</rscale>
<asrwt>0</asrwt>
<pdfrwt beam="1">  1       21 0.11706919E+00 0.45585487E+03</pdfrwt>
<pdfrwt beam="2">  1       21 0.95969397E-02 0.45585487E+03</pdfrwt>
<totfact> 0.44636648E+04</totfact>
</mgrwt>
</event>
<event>
 7    0  0.4793433E-002  0.4561270E+03  0.7546771E-02  0.1025911E+00
         21   -1    0    0  502  501  0.00000000000E+00  0.00000000000E+00  0.18163000076E+03  0.18163000076E+03  0.00000000000E+00 0. -1.
         21   -1    0    0  501  502 -0.00000000000E+00 -0.00000000000E+00 -0.28636770915E+03  0.28636770915E+03  0.00000000000E+00 0. -1.
      99926    2    1    2    0    0 -0.35527136788E-14  0.00000000000E+00 -0.10473770839E+03  0.46799770991E+03  0.45612703157E+03 0.  0.
      99925    2    3    3    0    0  0.25581614218E+02  0.31221099717E+02 -0.17550300610E+03  0.31871806792E+03  0.26296525552E+03 0.  0.
         25    1    3    3    0    0 -0.25581614218E+02 -0.31221099717E+02  0.70765297719E+02  0.14927964200E+03  0.12509000000E+03 0.  0.
         25    1    4    4    0    0 -0.57471339389E+00  0.23257657962E+02 -0.42619851757E+02  0.13418348935E+03  0.12509000000E+03 0.  0.
         25    1    4    4    0    0  0.26156327612E+02  0.79634417550E+01 -0.13288315435E+03  0.18453457857E+03  0.12509000000E+03 0.  0.
<mgrwt>
<rscale>  2 0.45612703E+03</rscale>
<asrwt>0</asrwt>
<pdfrwt beam="1">  1       21 0.26710295E-01 0.45612703E+03</pdfrwt>
<pdfrwt beam="2">  1       21 0.42112898E-01 0.45612703E+03</pdfrwt>
<totfact> 0.66984343E+04</totfact>
</mgrwt>
</event>
<event>
 7    0  0.4793433E-002  0.4566747E+03  0.7546771E-02  0.1025750E+00
         21   -1    0    0  502  501  0.00000000000E+00  0.00000000000E+00  0.12242535775E+03  0.12242535775E+03  0.00000000000E+00 0.  1.
         21   -1    0    0  501  502 -0.00000000000E+00 -0.00000000000E+00 -0.42587533779E+03  0.42587533779E+03  0.00000000000E+00 0.  1.
      99926    2    1    2    0    0  0.00000000000E+00  0.14210854715E-13 -0.30344998005E+03  0.54830069554E+03  0.45667467889E+03 0.  0.
      99925    2    3    3    0    0  0.37161882511E+02 -0.10696083574E+03 -0.21294144543E+03  0.35683025700E+03  0.26298697161E+03 0.  0.
         25    1    4    4    0    0  0.58830382338E+02 -0.50881185958E+02 -0.10233039840E+03  0.17935698344E+03  0.12509000000E+03 0.  0.
         25    1    3    3    0    0 -0.37161882511E+02  0.10696083574E+03 -0.90508534612E+02  0.19147043853E+03  0.12509000000E+03 0.  0.
         25    1    4    4    0    0 -0.21668499826E+02 -0.56079649786E+02 -0.11061104703E+03  0.17747327357E+03  0.12509000000E+03 0.  0.
<mgrwt>
<rscale>  2 0.45667468E+03</rscale>
<asrwt>0</asrwt>
<pdfrwt beam="1">  1       21 0.18003729E-01 0.45667468E+03</pdfrwt>
<pdfrwt beam="2">  1       21 0.62628726E-01 0.45667468E+03</pdfrwt>
<totfact> 0.61164445E+04</totfact>
</mgrwt>
</event>
<event>
 7    0  0.4793433E-002  0.4532417E+03  0.7546771E-02  0.1026760E+00
         21   -1    0    0  502  501  0.00000000000E+00  0.00000000000E+00  0.44673372464E+02  0.44673372464E+02  0.00000000000E+00 0. -1.
         21   -1    0    0  501  502 -0.00000000000E+00 -0.00000000000E+00 -0.11496113908E+04  0.11496113908E+04  0.00000000000E+00 0. -1.
      99926    2    1    2    0    0  0.14210854715E-13 -0.71054273576E-14 -0.11049380184E+04  0.11942847633E+04  0.45324173617E+03 0.  0.
      99925    2    3    3    0    0 -0.88677362487E+02  0.45475230957E+02 -0.56432078361E+03  0.63050628387E+03  0.26296113008E+03 0.  0.
         25    1    4    4    0    0 -0.50893062732E+02  0.63064126131E+02 -0.31430062083E+03  0.34784993344E+03  0.12509000000E+03 0.  0.
         25    1    3    3    0    0  0.88677362487E+02 -0.45475230957E+02 -0.54061723476E+03  0.56377847943E+03  0.12509000000E+03 0.  0.
         25    1    4    4    0    0 -0.37784299756E+02 -0.17588895174E+02 -0.25002016278E+03  0.28265635043E+03  0.12509000000E+03 0.  0.
<mgrwt>
<rscale>  2 0.45324174E+03</rscale>
<asrwt>0</asrwt>
<pdfrwt beam="1">  1       21 0.65696149E-02 0.45324174E+03</pdfrwt>
<pdfrwt beam="2">  1       21 0.16906047E+00 0.45324174E+03</pdfrwt>
<totfact> 0.32784382E+04</totfact>
</mgrwt>
</event>
<event>
 7    0  0.4793433E-002  0.4585839E+03  0.7546771E-02  0.1025193E+00
         21   -1    0    0  502  501  0.00000000000E+00  0.00000000000E+00  0.22103827644E+03  0.22103827644E+03  0.00000000000E+00 0. -1.
         21   -1    0    0  501  502 -0.00000000000E+00 -0.00000000000E+00 -0.23785381143E+03  0.23785381143E+03  0.00000000000E+00 0. -1.
      99926    2    1    2    0    0  0.00000000000E+00 -0.71054273576E-14 -0.16815534995E+02  0.45889208787E+03  0.45858389210E+03 0.  0.
      99925    2    3    3    0    0 -0.88654751225E+02  0.63338851548E+02 -0.49199001750E+02  0.28987234923E+03  0.26407188802E+03 0.  0.
         25    1    4    4    0    0 -0.33871106350E+02  0.37300921921E+02  0.16949065290E+02  0.13591684787E+03  0.12509000000E+03 0.  0.
         25    1    3    3    0    0  0.88654751225E+02 -0.63338851548E+02  0.32383466755E+02  0.16901973864E+03  0.12509000000E+03 0.  0.
         25    1    4    4    0    0 -0.54783644875E+02  0.26037929627E+02 -0.66148067040E+02  0.15395550136E+03  0.12509000000E+03 0.  0.
<mgrwt>
<rscale>  2 0.45858389E+03</rscale>
<asrwt>0</asrwt>
<pdfrwt beam="1">  1       21 0.32505629E-01 0.45858389E+03</pdfrwt>
<pdfrwt beam="2">  1       21 0.34978502E-01 0.45858389E+03</pdfrwt>
<totfact> 0.66344075E+04</totfact>
</mgrwt>
</event>
<event>
 7    0  0.4793433E-002  0.4509328E+03  0.7546771E-02  0.1027444E+00
         21   -1    0    0  502  501  0.00000000000E+00  0.00000000000E+00  0.21678896234E+03  0.21678896234E+03  0.00000000000E+00 0.  1.
         21   -1    0    0  501  502 -0.00000000000E+00 -0.00000000000E+00 -0.23449115743E+03  0.23449115743E+03  0.00000000000E+00 0.  1.
      99926    2    1    2    0    0  0.00000000000E+00  0.00000000000E+00 -0.17702195087E+02  0.45128011977E+03  0.45093278744E+03 0.  0.
      99925    2    3    3    0    0  0.28337783113E+02  0.15715171520E+02  0.93251570895E+02  0.28096205598E+03  0.26304719131E+03 0.  0.
         25    1    4    4    0    0  0.30961619536E+02 -0.59853295184E+00  0.88718620410E+01  0.12917119711E+03  0.12509000000E+03 0.  0.
         25    1    4    4    0    0 -0.26238364225E+01  0.16313704472E+02  0.84379708854E+02  0.15179085887E+03  0.12509000000E+03 0.  0.
         25    1    3    3    0    0 -0.28337783113E+02 -0.15715171520E+02 -0.11095376598E+03  0.17031806379E+03  0.12509000000E+03 0.  0.
<mgrwt>
<rscale>  2 0.45093279E+03</rscale>
<asrwt>0</asrwt>
<pdfrwt beam="1">  1       21 0.31880730E-01 0.45093279E+03</pdfrwt>
<pdfrwt beam="2">  1       21 0.34483994E-01 0.45093279E+03</pdfrwt>
<totfact> 0.71098610E+04</totfact>
</mgrwt>
</event>
<event>
 7    0  0.4793433E-002  0.4533436E+03  0.7546771E-02  0.1026730E+00
         21   -1    0    0  502  501  0.00000000000E+00  0.00000000000E+00  0.90448129538E+03  0.90448129538E+03  0.00000000000E+00 0.  1.
         21   -1    0    0  501  502 -0.00000000000E+00 -0.00000000000E+00 -0.56806158634E+02  0.56806158634E+02  0.00000000000E+00 0.  1.
      99926    2    1    2    0    0  0.00000000000E+00 -0.71054273576E-14  0.84767513674E+03  0.96128745401E+03  0.45334361337E+03 0.  0.
      99925    2    3    3    0    0  0.69612313295E+02  0.61981730979E+02  0.40408587425E+03  0.49106777020E+03  0.26301055498E+03 0.  0.
         25    1    4    4    0    0  0.42047093851E+02  0.70913253569E+02  0.19872366418E+03  0.24886793775E+03  0.12509000000E+03 0.  0.
         25    1    4    4    0    0  0.27565219443E+02 -0.89315225896E+01  0.20536221006E+03  0.24219983245E+03  0.12509000000E+03 0.  0.
         25    1    3    3    0    0 -0.69612313295E+02 -0.61981730979E+02  0.44358926250E+03  0.47021968381E+03  0.12509000000E+03 0.  0.
<mgrwt>
<rscale>  2 0.45334361E+03</rscale>
<asrwt>0</asrwt>
<pdfrwt beam="1">  1       21 0.13301195E+00 0.45334361E+03</pdfrwt>
<pdfrwt beam="2">  1       21 0.83538474E-02 0.45334361E+03</pdfrwt>
<totfact> 0.41218354E+04</totfact>
</mgrwt>
</event>
<event>
 7    0  0.4793433E-002  0.4559463E+03  0.7546771E-02  0.1025964E+00
         21   -1    0    0  502  501  0.00000000000E+00  0.00000000000E+00  0.49827797829E+02  0.49827797829E+02  0.00000000000E+00 0. -1.
         21   -1    0    0  501  502 -0.00000000000E+00 -0.00000000000E+00 -0.10430272919E+04  0.10430272919E+04  0.00000000000E+00 0. -1.
      99926    2    1    2    0    0  0.71054273576E-14  0.14210854715E-13 -0.99319949404E+03  0.10928550897E+04  0.45594628206E+03 0.  0.
      99925    2    3    3    0    0 -0.38761393738E+02 -0.82642621314E+02 -0.46046377592E+03  0.53806945366E+03  0.26298212775E+03 0.  0.
         25    1    3    3    0    0  0.38761393738E+02  0.82642621314E+02 -0.53273571812E+03  0.55478563605E+03  0.12509000000E+03 0.  0.
         25    1    4    4    0    0  0.14978691953E+02 -0.61239669518E+02 -0.21635391533E+03  0.25774247441E+03  0.12509000000E+03 0.  0.
         25    1    4    4    0    0 -0.53740085691E+02 -0.21402951797E+02 -0.24410986059E+03  0.28032697925E+03  0.12509000000E+03 0.  0.
<mgrwt>
<rscale>  2 0.45594628E+03</rscale>
<asrwt>0</asrwt>
<pdfrwt beam="1">  1       21 0.73276177E-02 0.45594628E+03</pdfrwt>
<pdfrwt beam="2">  1       21 0.15338636E+00 0.45594628E+03</pdfrwt>
<totfact> 0.35480343E+04</totfact>
</mgrwt>
</event>
<event>
 7    0  0.4793433E-002  0.4473729E+03  0.7546771E-02  0.1028508E+00
         21   -1    0    0  502  501  0.00000000000E+00  0.00000000000E+00  0.26260165154E+03  0.26260165154E+03  0.00000000000E+00 0. -1.
         21   -1    0    0  501  502 -0.00000000000E+00 -0.00000000000E+00 -0.19053811259E+03  0.19053811259E+03  0.00000000000E+00 0. -1.
      99926    2    1    2    0    0  0.00000000000E+00  0.00000000000E+00  0.72063538946E+02  0.45313976412E+03  0.44737287824E+03 0.  0.
      99925    2    3    3    0    0 -0.27915570387E+02  0.53648947072E+02 -0.42329959971E+02  0.27316512900E+03  0.26300166083E+03 0.  0.
         25    1    4    4    0    0 -0.29835838205E+02 -0.80063148379E+01 -0.34919655585E+02  0.13349595037E+03  0.12509000000E+03 0.  0.
         25    1    4    4    0    0  0.19202678174E+01  0.61655261910E+02 -0.74103043862E+01  0.13966917864E+03  0.12509000000E+03 0.  0.
         25    1    3    3    0    0  0.27915570387E+02 -0.53648947072E+02  0.11439349892E+03  0.17997463512E+03  0.12509000000E+03 0.  0.
<mgrwt>
<rscale>  2 0.44737288E+03</rscale>
<asrwt>0</asrwt>
<pdfrwt beam="1">  1       21 0.38617890E-01 0.44737288E+03</pdfrwt>
<pdfrwt beam="2">  1       21 0.28020311E-01 0.44737288E+03</pdfrwt>
<totfact> 0.73024908E+04</totfact>
</mgrwt>
</event>
<event>
 7    0  0.4793433E-002  0.4454427E+03  0.7546771E-02  0.1029090E+00
         21   -1    0    0  502  501  0.00000000000E+00  0.00000000000E+00  0.23143665450E+03  0.23143665450E+03  0.00000000000E+00 0.  1.
         21   -1    0    0  501  502 -0.00000000000E+00 -0.00000000000E+00 -0.21433422234E+03  0.21433422234E+03  0.00000000000E+00 0.  1.
      99926    2    1    2    0    0  0.00000000000E+00  0.00000000000E+00  0.17102432162E+02  0.44577087684E+03  0.44544268033E+03 0.  0.
      99925    2    3    3    0    0  0.94659285393E+01  0.87381049612E+02 -0.44598964547E+02  0.28090844301E+03  0.26305025010E+03 0.  0.
         25    1    3    3    0    0 -0.94659285393E+01 -0.87381049612E+02  0.61701396710E+02  0.16486243384E+03  0.12509000000E+03 0.  0.
         25    1    4    4    0    0 -0.17608361675E+02  0.38266661404E+02  0.12128755759E+02  0.13254812934E+03  0.12509000000E+03 0.  0.
         25    1    4    4    0    0  0.27074290214E+02  0.49114388208E+02 -0.56727720307E+02  0.14836031366E+03  0.12509000000E+03 0.  0.
<mgrwt>
<rscale>  2 0.44544268E+03</rscale>
<asrwt>0</asrwt>
<pdfrwt beam="1">  1       21 0.34034802E-01 0.44544268E+03</pdfrwt>
<pdfrwt beam="2">  1       21 0.31519738E-01 0.44544268E+03</pdfrwt>
<totfact> 0.74768275E+04</totfact>
</mgrwt>
</event>
<event>
 7    0  0.4793433E-002  0.4523562E+03  0.7546771E-02  0.1027022E+00
         21   -1    0    0  502  501  0.00000000000E+00  0.00000000000E+00  0.21308147273E+03  0.21308147273E+03  0.00000000000E+00 0.  1.
         21   -1    0    0  501  502 -0.00000000000E+00 -0.00000000000E+00 -0.24007963238E+03  0.24007963238E+03  0.00000000000E+00 0.  1.
      99926    2    1    2    0    0  0.00000000000E+00  0.00000000000E+00 -0.26998159653E+02  0.45316110511E+03  0.45235615013E+03 0.  0.
      99925    2    3    3    0    0 -0.91901187057E+02  0.41090328071E+02  0.28502797199E+02  0.28327259003E+03  0.26324267810E+03 0.  0.
         25    1    4    4    0    0 -0.18250479995E+02  0.50292646765E+02  0.69221488191E+01  0.13622721675E+03  0.12509000000E+03 0.  0.
         25    1    4    4    0    0 -0.73650707062E+02 -0.92023186941E+01  0.21580648380E+02  0.14704537329E+03  0.12509000000E+03 0.  0.
         25    1    3    3    0    0  0.91901187057E+02 -0.41090328071E+02 -0.55500956852E+02  0.16988851508E+03  0.12509000000E+03 0.  0.
<mgrwt>
<rscale>  2 0.45235615E+03</rscale>
<asrwt>0</asrwt>
<pdfrwt beam="1">  1       21 0.31335511E-01 0.45235615E+03</pdfrwt>
<pdfrwt beam="2">  1       21 0.35305828E-01 0.45235615E+03</pdfrwt>
<totfact> 0.70148891E+04</totfact>
</mgrwt>
</event>
<event>
 7    0  0.4793433E-002  0.4442880E+03  0.7546771E-02  0.1029439E+00
         21   -1    0    0  502  501  0.00000000000E+00  0.00000000000E+00  0.13900609237E+03  0.13900609237E+03  0.00000000000E+00 0. -1.
         21   -1    0    0  501  502 -0.00000000000E+00 -0.00000000000E+00 -0.35500569851E+03  0.35500569851E+03  0.00000000000E+00 0. -1.
      99926    2    1    2    0    0  0.71054273576E-14 -0.71054273576E-14 -0.21599960614E+03  0.49401179088E+03  0.44428799182E+03 0.  0.
      99925    2    3    3    0    0 -0.46746594126E+02  0.45665888258E+02 -0.22544405046E+03  0.35256454615E+03  0.26307056449E+03 0.  0.
         25    1    4    4    0    0 -0.26768939034E+02  0.53574133170E+02 -0.15267507756E+03  0.20626185117E+03  0.12509000000E+03 0.  0.
         25    1    3    3    0    0  0.46746594126E+02 -0.45665888258E+02  0.94444443151E+01  0.14144724473E+03  0.12509000000E+03 0.  0.
         25    1    4    4    0    0 -0.19977655092E+02 -0.79082449118E+01 -0.72768972901E+02  0.14630269498E+03  0.12509000000E+03 0.  0.
<mgrwt>
<rscale>  2 0.44428799E+03</rscale>
<asrwt>0</asrwt>
<pdfrwt beam="1">  1       21 0.20442072E-01 0.44428799E+03</pdfrwt>
<pdfrwt beam="2">  1       21 0.52206721E-01 0.44428799E+03</pdfrwt>
<totfact> 0.71589916E+04</totfact>
</mgrwt>
</event>
<event>
 7    0  0.4793433E-002  0.4214592E+03  0.7546771E-02  0.1036592E+00
         21   -1    0    0  502  501  0.00000000000E+00  0.00000000000E+00  0.75469520490E+02  0.75469520490E+02  0.00000000000E+00 0. -1.
         21   -1    0    0  501  502 -0.00000000000E+00 -0.00000000000E+00 -0.58840933431E+03  0.58840933431E+03  0.00000000000E+00 0. -1.
      99926    2    1    2    0    0  0.00000000000E+00  0.00000000000E+00 -0.51293981382E+03  0.66387885480E+03  0.42145922845E+03 0.  0.
      99925    2    3    3    0    0 -0.32128933888E+02  0.68747670616E+02 -0.30840964918E+03  0.41240597961E+03  0.26306590373E+03 0.  0.
         25    1    4    4    0    0 -0.94693670030E+01  0.52718587988E+02 -0.21258142834E+03  0.25240303129E+03  0.12509000000E+03 0.  0.
         25    1    3    3    0    0  0.32128933888E+02 -0.68747670616E+02 -0.20453016464E+03  0.25147287519E+03  0.12509000000E+03 0.  0.
         25    1    4    4    0    0 -0.22659566885E+02  0.16029082628E+02 -0.95828220841E+02  0.16000294832E+03  0.12509000000E+03 0.  0.
<mgrwt>
<rscale>  2 0.42145923E+03</rscale>
<asrwt>0</asrwt>
<pdfrwt beam="1">  1       21 0.11098459E-01 0.42145923E+03</pdfrwt>
<pdfrwt beam="2">  1       21 0.86530782E-01 0.42145923E+03</pdfrwt>
<totfact> 0.72170489E+04</totfact>
</mgrwt>
</event>
<event>
 7    0  0.4793433E-002  0.4446486E+03  0.7546771E-02  0.1029330E+00
         21   -1    0    0  502  501  0.00000000000E+00  0.00000000000E+00  0.25232968313E+03  0.25232968313E+03  0.00000000000E+00 0. -1.
         21   -1    0    0  501  502 -0.00000000000E+00 -0.00000000000E+00 -0.19588696077E+03  0.19588696077E+03  0.00000000000E+00 0. -1.
      99926    2    1    2    0    0  0.66613381478E-15  0.14210854715E-13  0.56442722364E+02  0.44821664390E+03  0.44464860167E+03 0.  0.
      99925    2    3    3    0    0 -0.17941516401E+01 -0.65666098898E+02  0.11604760140E+03  0.29486898259E+03  0.26299318543E+03 0.  0.
         25    1    3    3    0    0  0.17941516401E+01  0.65666098898E+02 -0.59604879034E+02  0.15334766131E+03  0.12509000000E+03 0.  0.
         25    1    4    4    0    0  0.25010813795E+02 -0.25181929409E+02  0.90118522307E+02  0.15820406612E+03  0.12509000000E+03 0.  0.
         25    1    4    4    0    0 -0.26804965435E+02 -0.40484169489E+02  0.25929079091E+02  0.13666491647E+03  0.12509000000E+03 0.  0.
<mgrwt>
<rscale>  2 0.44464860E+03</rscale>
<asrwt>0</asrwt>
<pdfrwt beam="1">  1       21 0.37107306E-01 0.44464860E+03</pdfrwt>
<pdfrwt beam="2">  1       21 0.28806906E-01 0.44464860E+03</pdfrwt>
<totfact> 0.75055079E+04</totfact>
</mgrwt>
</event>
<event>
 7    0  0.4793433E-002  0.4606544E+03  0.7546771E-02  0.1024592E+00
         21   -1    0    0  502  501  0.00000000000E+00  0.00000000000E+00  0.15552151155E+03  0.15552151155E+03  0.00000000000E+00 0.  1.
         21   -1    0    0  501  502 -0.00000000000E+00 -0.00000000000E+00 -0.34111437776E+03  0.34111437776E+03  0.00000000000E+00 0.  1.
      99926    2    1    2    0    0  0.00000000000E+00  0.00000000000E+00 -0.18559286620E+03  0.49663588931E+03  0.46065441989E+03 0.  0.
      99925    2    3    3    0    0 -0.83271286474E+02 -0.81827448956E+02 -0.13548133068E+03  0.31834255616E+03  0.26335708372E+03 0.  0.
         25    1    4    4    0    0 -0.33059559571E+02 -0.72844514565E+02 -0.98841354515E+02  0.17837146421E+03  0.12509000000E+03 0.  0.
         25    1    3    3    0    0  0.83271286474E+02  0.81827448956E+02 -0.50111535524E+02  0.17829333315E+03  0.12509000000E+03 0.  0.
         25    1    4    4    0    0 -0.50211726902E+02 -0.89829343908E+01 -0.36639976166E+02  0.13997109195E+03  0.12509000000E+03 0.  0.
<mgrwt>
<rscale>  2 0.46065442E+03</rscale>
<asrwt>0</asrwt>
<pdfrwt beam="1">  1       21 0.22870811E-01 0.46065442E+03</pdfrwt>
<pdfrwt beam="2">  1       21 0.50163879E-01 0.46065442E+03</pdfrwt>
<totfact> 0.62647918E+04</totfact>
</mgrwt>
</event>
<event>
 7    0  0.4793433E-002  0.4163282E+03  0.7546771E-02  0.1038268E+00
         21   -1    0    0  502  501  0.00000000000E+00  0.00000000000E+00  0.29093828776E+03  0.29093828776E+03  0.00000000000E+00 0.  1.
         21   -1    0    0  501  502 -0.00000000000E+00 -0.00000000000E+00 -0.14893977252E+03  0.14893977252E+03  0.00000000000E+00 0.  1.
      99926    2    1    2    0    0  0.00000000000E+00  0.71054273576E-14  0.14199851523E+03  0.43987806028E+03  0.41632815133E+03 0.  0.
      99925    2    3    3    0    0 -0.54801694177E+02 -0.45043873900E+02  0.87295606838E+02  0.28602068299E+03  0.26297363340E+03 0.  0.
         25    1    4    4    0    0 -0.46187784335E+02  0.74469852579E+01  0.64050523852E+02  0.14811734104E+03  0.12509000000E+03 0.  0.
         25    1    3    3    0    0  0.54801694177E+02  0.45043873900E+02  0.54702908396E+02  0.15385737729E+03  0.12509000000E+03 0.  0.
         25    1    4    4    0    0 -0.86139098416E+01 -0.52490859158E+02  0.23245082986E+02  0.13790334195E+03  0.12509000000E+03 0.  0.
<mgrwt>
<rscale>  2 0.41632815E+03</rscale>
<asrwt>0</asrwt>
<pdfrwt beam="1">  1       21 0.42785043E-01 0.41632815E+03</pdfrwt>
<pdfrwt beam="2">  1       21 0.21902908E-01 0.41632815E+03</pdfrwt>
<totfact> 0.95979703E+04</totfact>
</mgrwt>
</event>
<event>
 7    0  0.4793433E-002  0.4470704E+03  0.7546771E-02  0.1028599E+00
         21   -1    0    0  502  501  0.00000000000E+00  0.00000000000E+00  0.41086280350E+03  0.41086280350E+03  0.00000000000E+00 0.  1.
         21   -1    0    0  501  502 -0.00000000000E+00 -0.00000000000E+00 -0.12161717758E+03  0.12161717758E+03  0.00000000000E+00 0.  1.
      99926    2    1    2    0    0  0.00000000000E+00  0.00000000000E+00  0.28924562592E+03  0.53247998108E+03  0.44707035032E+03 0.  0.
      99925    2    3    3    0    0  0.83809023029E+02  0.43806375026E+02  0.12763707488E+03  0.30729609466E+03  0.26305268688E+03 0.  0.
         25    1    4    4    0    0  0.87326351746E+01  0.19145883895E+02  0.31023075967E+02  0.13058622871E+03  0.12509000000E+03 0.  0.
         25    1    3    3    0    0 -0.83809023029E+02 -0.43806375026E+02  0.16160855104E+03  0.22518388642E+03  0.12509000000E+03 0.  0.
         25    1    4    4    0    0  0.75076387855E+02  0.24660491131E+02  0.96613998917E+02  0.17670986595E+03  0.12509000000E+03 0.  0.
<mgrwt>
<rscale>  2 0.44707035E+03</rscale>
<asrwt>0</asrwt>
<pdfrwt beam="1">  1       21 0.60421000E-01 0.44707035E+03</pdfrwt>
<pdfrwt beam="2">  1       21 0.17884879E-01 0.44707035E+03</pdfrwt>
<totfact> 0.67156202E+04</totfact>
</mgrwt>
</event>
<event>
 7    0  0.4793433E-002  0.4573928E+03  0.7546771E-02  0.1025540E+00
         21   -1    0    0  502  501  0.00000000000E+00  0.00000000000E+00  0.19231158352E+03  0.19231158352E+03  0.00000000000E+00 0. -1.
         21   -1    0    0  501  502 -0.00000000000E+00 -0.00000000000E+00 -0.27196515385E+03  0.27196515385E+03  0.00000000000E+00 0. -1.
      99926    2    1    2    0    0  0.00000000000E+00  0.00000000000E+00 -0.79653570330E+02  0.46427673737E+03  0.45739282636E+03 0.  0.
      99925    2    3    3    0    0  0.32779948730E+02  0.46054722089E+02 -0.15213659273E+03  0.30904510689E+03  0.26299766688E+03 0.  0.
         25    1    3    3    0    0 -0.32779948730E+02 -0.46054722089E+02  0.72483022400E+02  0.15523163048E+03  0.12509000000E+03 0.  0.
         25    1    4    4    0    0  0.55221313679E+02  0.33486877662E+02 -0.70165514321E+02  0.15729422100E+03  0.12509000000E+03 0.  0.
         25    1    4    4    0    0 -0.22441364948E+02  0.12567844426E+02 -0.81971078409E+02  0.15175088589E+03  0.12509000000E+03 0.  0.
<mgrwt>
<rscale>  2 0.45739283E+03</rscale>
<asrwt>0</asrwt>
<pdfrwt beam="1">  1       21 0.28281116E-01 0.45739283E+03</pdfrwt>
<pdfrwt beam="2">  1       21 0.39994875E-01 0.45739283E+03</pdfrwt>
<totfact> 0.66588185E+04</totfact>
</mgrwt>
</event>
<event>
 7    0  0.4793433E-002  0.4597418E+03  0.7546771E-02  0.1024856E+00
         21   -1    0    0  502  501  0.00000000000E+00  0.00000000000E+00  0.14302595901E+04  0.14302595901E+04  0.00000000000E+00 0.  1.
         21   -1    0    0  501  502 -0.00000000000E+00 -0.00000000000E+00 -0.36944778195E+02  0.36944778195E+02  0.00000000000E+00 0.  1.
      99926    2    1    2    0    0  0.44408920985E-15 -0.71054273576E-14  0.13933148119E+04  0.14672043683E+04  0.45974176802E+03 0.  0.
      99925    2    3    3    0    0 -0.30184665979E+01 -0.39117860451E+02  0.51940948689E+03  0.58352040706E+03  0.26300291299E+03 0.  0.
         25    1    4    4    0    0 -0.17642674886E+02 -0.32276549800E+02  0.18684013375E+03  0.22783718600E+03  0.12509000000E+03 0.  0.
         25    1    4    4    0    0  0.14624208288E+02 -0.68413106505E+01  0.33256935314E+03  0.35568322106E+03  0.12509000000E+03 0.  0.
         25    1    3    3    0    0  0.30184665979E+01  0.39117860451E+02  0.87390532498E+03  0.88368396120E+03  0.12509000000E+03 0.  0.
<mgrwt>
<rscale>  2 0.45974177E+03</rscale>
<asrwt>0</asrwt>
<pdfrwt beam="1">  1       21 0.21033226E+00 0.45974177E+03</pdfrwt>
<pdfrwt beam="2">  1       21 0.54330566E-02 0.45974177E+03</pdfrwt>
<totfact> 0.23709023E+04</totfact>
</mgrwt>
</event>
<event>
 7    0  0.4793433E-002  0.4619769E+03  0.7546771E-02  0.1024209E+00
         21   -1    0    0  502  501  0.00000000000E+00  0.00000000000E+00  0.41786169976E+03  0.41786169976E+03  0.00000000000E+00 0.  1.
         21   -1    0    0  501  502 -0.00000000000E+00 -0.00000000000E+00 -0.12768738058E+03  0.12768738058E+03  0.00000000000E+00 0.  1.
      99926    2    1    2    0    0  0.00000000000E+00  0.14210854715E-13  0.29017431918E+03  0.54554908034E+03  0.46197690802E+03 0.  0.
      99925    2    3    3    0    0 -0.32380546210E+02 -0.10332579767E+03  0.24097741123E+03  0.37294385420E+03  0.26323427860E+03 0.  0.
         25    1    3    3    0    0  0.32380546210E+02  0.10332579767E+03  0.49196907957E+02  0.17260522614E+03  0.12509000000E+03 0.  0.
         25    1    4    4    0    0 -0.39841047819E+02 -0.60381207323E+02  0.82496837587E+02  0.16639241449E+03  0.12509000000E+03 0.  0.
         25    1    4    4    0    0  0.74605016086E+01 -0.42944590352E+02  0.15848057364E+03  0.20655143971E+03  0.12509000000E+03 0.  0.
<mgrwt>
<rscale>  2 0.46197691E+03</rscale>
<asrwt>0</asrwt>
<pdfrwt beam="1">  1       21 0.61450249E-01 0.46197691E+03</pdfrwt>
<pdfrwt beam="2">  1       21 0.18777556E-01 0.46197691E+03</pdfrwt>
<totfact> 0.58844779E+04</totfact>
</mgrwt>
</event>
<event>
 7    0  0.4793433E-002  0.4551197E+03  0.7546771E-02  0.1026206E+00
         21   -1    0    0  502  501  0.00000000000E+00  0.00000000000E+00  0.23356878772E+02  0.23356878772E+02  0.00000000000E+00 0.  1.
         21   -1    0    0  501  502 -0.00000000000E+00 -0.00000000000E+00 -0.22170548023E+04  0.22170548023E+04  0.00000000000E+00 0.  1.
      99926    2    1    2    0    0 -0.35527136788E-14  0.00000000000E+00 -0.21936979235E+04  0.22404116811E+04  0.45511967766E+03 0.  0.
      99925    2    3    3    0    0  0.23884837736E+02  0.91879231116E+02 -0.10736310373E+04  0.11093901886E+04  0.26277501373E+03 0.  0.
         25    1    3    3    0    0 -0.23884837736E+02 -0.91879231116E+02 -0.11200668863E+04  0.11310214925E+04  0.12509000000E+03 0.  0.
         25    1    4    4    0    0  0.16421378182E+02  0.41147727240E+02 -0.37472285698E+03  0.39752675981E+03  0.12509000000E+03 0.  0.
         25    1    4    4    0    0  0.74634595546E+01  0.50731503876E+02 -0.69890818027E+03  0.71186342880E+03  0.12509000000E+03 0.  0.
<mgrwt>
<rscale>  2 0.45511968E+03</rscale>
<asrwt>0</asrwt>
<pdfrwt beam="1">  1       21 0.34348376E-02 0.45511968E+03</pdfrwt>
<pdfrwt beam="2">  1       21 0.32603723E+00 0.45511968E+03</pdfrwt>
<totfact> 0.10157332E+04</totfact>
</mgrwt>
</event>
<event>
 7    0  0.4793433E-002  0.4505708E+03  0.7546771E-02  0.1027552E+00
         21   -1    0    0  502  501  0.00000000000E+00  0.00000000000E+00  0.13567628366E+03  0.13567628366E+03  0.00000000000E+00 0.  1.
         21   -1    0    0  501  502 -0.00000000000E+00 -0.00000000000E+00 -0.37407796954E+03  0.37407796954E+03  0.00000000000E+00 0.  1.
      99926    2    1    2    0    0  0.71054273576E-14  0.00000000000E+00 -0.23840168588E+03  0.50975425320E+03  0.45057078780E+03 0.  0.
      99925    2    3    3    0    0  0.46133140860E+02  0.98172533585E+02 -0.13929529706E+03  0.31678871886E+03  0.26303193642E+03 0.  0.
         25    1    4    4    0    0  0.34523154316E+02  0.13082446253E+02 -0.44155981106E+02  0.13769625032E+03  0.12509000000E+03 0.  0.
         25    1    4    4    0    0  0.11609986544E+02  0.85090087332E+02 -0.95139315950E+02  0.17909246854E+03  0.12509000000E+03 0.  0.
         25    1    3    3    0    0 -0.46133140860E+02 -0.98172533585E+02 -0.99106388827E+02  0.19296553434E+03  0.12509000000E+03 0.  0.
<mgrwt>
<rscale>  2 0.45057079E+03</rscale>
<asrwt>0</asrwt>
<pdfrwt beam="1">  1       21 0.19952394E-01 0.45057079E+03</pdfrwt>
<pdfrwt beam="2">  1       21 0.55011467E-01 0.45057079E+03</pdfrwt>
<totfact> 0.66911827E+04</totfact>
</mgrwt>
</event>
<event>
 7    0  0.4793433E-002  0.4604316E+03  0.7546771E-02  0.1024656E+00
         21   -1    0    0  502  501  0.00000000000E+00  0.00000000000E+00  0.12284139693E+03  0.12284139693E+03  0.00000000000E+00 0. -1.
         21   -1    0    0  501  502 -0.00000000000E+00 -0.00000000000E+00 -0.43144509875E+03  0.43144509875E+03  0.00000000000E+00 0. -1.
      99926    2    1    2    0    0  0.00000000000E+00  0.14210854715E-13 -0.30860370182E+03  0.55428649568E+03  0.46043161763E+03 0.  0.
      99925    2    3    3    0    0 -0.91939457518E+02  0.71213479274E+02 -0.21788578522E+03  0.36089189397E+03  0.26314353545E+03 0.  0.
         25    1    4    4    0    0 -0.64288674978E+02  0.23823726284E+02 -0.67752515069E+02  0.15791933087E+03  0.12509000000E+03 0.  0.
         25    1    3    3    0    0  0.91939457518E+02 -0.71213479274E+02 -0.90717916590E+02  0.19339460171E+03  0.12509000000E+03 0.  0.
         25    1    4    4    0    0 -0.27650782540E+02  0.47389752990E+02 -0.15013327016E+03  0.20297256310E+03  0.12509000000E+03 0.  0.
<mgrwt>
<rscale>  2 0.46043162E+03</rscale>
<asrwt>0</asrwt>
<pdfrwt beam="1">  1       21 0.18064911E-01 0.46043162E+03</pdfrwt>
<pdfrwt beam="2">  1       21 0.63447809E-01 0.46043162E+03</pdfrwt>
<totfact> 0.59007402E+04</totfact>
</mgrwt>
</event>
<event>
 7    0  0.4793433E-002  0.4566516E+03  0.7546771E-02  0.1025757E+00
         21   -1    0    0  502  501  0.00000000000E+00  0.00000000000E+00  0.88882764870E+02  0.88882764870E+02  0.00000000000E+00 0. -1.
         21   -1    0    0  501  502 -0.00000000000E+00 -0.00000000000E+00 -0.58653295701E+03  0.58653295701E+03  0.00000000000E+00 0. -1.
      99926    2    1    2    0    0 -0.71054273576E-14 -0.14210854715E-13 -0.49765019214E+03  0.67541572188E+03  0.45665159983E+03 0.  0.
      99925    2    3    3    0    0  0.46162356049E+02  0.10494524174E+03 -0.30622377613E+03  0.41961101566E+03  0.26297516331E+03 0.  0.
         25    1    3    3    0    0 -0.46162356049E+02 -0.10494524174E+03 -0.19142641602E+03  0.25580470623E+03  0.12509000000E+03 0.  0.
         25    1    4    4    0    0 -0.13354356555E+02  0.29810472373E+02 -0.13681284050E+03  0.18823459971E+03  0.12509000000E+03 0.  0.
         25    1    4    4    0    0  0.59516712605E+02  0.75134769364E+02 -0.16941093563E+03  0.23137641595E+03  0.12509000000E+03 0.  0.
<mgrwt>
<rscale>  2 0.45665160E+03</rscale>
<asrwt>0</asrwt>
<pdfrwt beam="1">  1       21 0.13070995E-01 0.45665160E+03</pdfrwt>
<pdfrwt beam="2">  1       21 0.86254847E-01 0.45665160E+03</pdfrwt>
<totfact> 0.53557989E+04</totfact>
</mgrwt>
</event>
<event>
 7    0  0.4793433E-002  0.4569752E+03  0.7546771E-02  0.1025662E+00
         21   -1    0    0  502  501  0.00000000000E+00  0.00000000000E+00  0.91789132329E+02  0.91789132329E+02  0.00000000000E+00 0. -1.
         21   -1    0    0  501  502 -0.00000000000E+00 -0.00000000000E+00 -0.56876649158E+03  0.56876649158E+03  0.00000000000E+00 0. -1.
      99926    2    1    2    0    0  0.35527136788E-14 -0.35527136788E-14 -0.47697735925E+03  0.66055562391E+03  0.45697519740E+03 0.  0.
      99925    2    3    3    0    0  0.17768539108E+02 -0.21024843919E+02 -0.13817333911E+03  0.29834927773E+03  0.26298793668E+03 0.  0.
         25    1    4    4    0    0  0.24714199900E+02  0.23800671835E+02 -0.51559634202E+02  0.13958211789E+03  0.12509000000E+03 0.  0.
         25    1    4    4    0    0 -0.69456607924E+01 -0.44825515754E+02 -0.86613704903E+02  0.15876715984E+03  0.12509000000E+03 0.  0.
         25    1    3    3    0    0 -0.17768539108E+02  0.21024843919E+02 -0.33880402015E+03  0.36220634618E+03  0.12509000000E+03 0.  0.
<mgrwt>
<rscale>  2 0.45697520E+03</rscale>
<asrwt>0</asrwt>
<pdfrwt beam="1">  1       21 0.13498402E-01 0.45697520E+03</pdfrwt>
<pdfrwt beam="2">  1       21 0.83642129E-01 0.45697520E+03</pdfrwt>
<totfact> 0.54247086E+04</totfact>
</mgrwt>
</event>
<event>
 7    0  0.4793433E-002  0.4593055E+03  0.7546771E-02  0.1024983E+00
         21   -1    0    0  502  501  0.00000000000E+00  0.00000000000E+00  0.13515759638E+04  0.13515759638E+04  0.00000000000E+00 0. -1.
         21   -1    0    0  501  502 -0.00000000000E+00 -0.00000000000E+00 -0.39021396616E+02  0.39021396616E+02  0.00000000000E+00 0. -1.
      99926    2    1    2    0    0  0.00000000000E+00  0.71054273576E-14  0.13125545672E+04  0.13905973604E+04  0.45930548327E+03 0.  0.
      99925    2    3    3    0    0 -0.78693767256E+02  0.56322644500E+02  0.62306511143E+03  0.68320202047E+03  0.26303976581E+03 0.  0.
         25    1    4    4    0    0 -0.61092474677E+02  0.37317873862E+02  0.24630348308E+03  0.28537313828E+03  0.12509000000E+03 0.  0.
         25    1    4    4    0    0 -0.17601292578E+02  0.19004770638E+02  0.37676162835E+03  0.39782888219E+03  0.12509000000E+03 0.  0.
         25    1    3    3    0    0  0.78693767256E+02 -0.56322644500E+02  0.68948945575E+03  0.70739533995E+03  0.12509000000E+03 0.  0.
<mgrwt>
<rscale>  2 0.45930548E+03</rscale>
<asrwt>0</asrwt>
<pdfrwt beam="1">  1       21 0.19876114E+00 0.45930548E+03</pdfrwt>
<pdfrwt beam="2">  1       21 0.57384416E-02 0.45930548E+03</pdfrwt>
<totfact> 0.25712485E+04</totfact>
</mgrwt>
</event>
<event>
 7    0  0.4793433E-002  0.4550343E+03  0.7546771E-02  0.1026231E+00
         21   -1    0    0  502  501  0.00000000000E+00  0.00000000000E+00  0.31512089669E+03  0.31512089669E+03  0.00000000000E+00 0.  1.
         21   -1    0    0  501  502 -0.00000000000E+00 -0.00000000000E+00 -0.16426731698E+03  0.16426731698E+03  0.00000000000E+00 0.  1.
      99926    2    1    2    0    0  0.00000000000E+00  0.00000000000E+00  0.15085357970E+03  0.47938821367E+03  0.45503434695E+03 0.  0.
      99925    2    3    3    0    0 -0.83691993470E+02  0.24592045127E+01  0.14300959109E+02  0.27615306969E+03  0.26276530024E+03 0.  0.
         25    1    4    4    0    0 -0.12053501494E+02 -0.10198436151E+02 -0.19421958249E+02  0.12756964984E+03  0.12509000000E+03 0.  0.
         25    1    3    3    0    0  0.83691993470E+02 -0.24592045127E+01  0.13655262060E+03  0.20323514398E+03  0.12509000000E+03 0.  0.
         25    1    4    4    0    0 -0.71638491976E+02  0.12657640664E+02  0.33722917358E+02  0.14858341985E+03  0.12509000000E+03 0.  0.
<mgrwt>
<rscale>  2 0.45503435E+03</rscale>
<asrwt>0</asrwt>
<pdfrwt beam="1">  1       21 0.46341308E-01 0.45503435E+03</pdfrwt>
<pdfrwt beam="2">  1       21 0.24156958E-01 0.45503435E+03</pdfrwt>
<totfact> 0.66726463E+04</totfact>
</mgrwt>
</event>
<event>
 7    0  0.4793433E-002  0.4736540E+03  0.7546771E-02  0.1020894E+00
         21   -1    0    0  502  501  0.00000000000E+00  0.00000000000E+00  0.11226734050E+03  0.11226734050E+03  0.00000000000E+00 0.  1.
         21   -1    0    0  501  502 -0.00000000000E+00 -0.00000000000E+00 -0.49958453626E+03  0.49958453626E+03  0.00000000000E+00 0.  1.
      99926    2    1    2    0    0  0.71054273576E-14  0.00000000000E+00 -0.38731719575E+03  0.61185187676E+03  0.47365399710E+03 0.  0.
      99925    2    3    3    0    0  0.43088889691E+02 -0.93540467694E+02 -0.34208174057E+03  0.44362516658E+03  0.26301501798E+03 0.  0.
         25    1    3    3    0    0 -0.43088889691E+02  0.93540467694E+02 -0.45235455183E+02  0.16822671018E+03  0.12509000000E+03 0.  0.
         25    1    4    4    0    0  0.36328657846E+02 -0.43266131468E+02 -0.23148962334E+03  0.26912206028E+03  0.12509000000E+03 0.  0.
         25    1    4    4    0    0  0.67602318452E+01 -0.50274336225E+02 -0.11059211723E+03  0.17450310631E+03  0.12509000000E+03 0.  0.
<mgrwt>
<rscale>  2 0.47365400E+03</rscale>
<asrwt>0</asrwt>
<pdfrwt beam="1">  1       21 0.16509903E-01 0.47365400E+03</pdfrwt>
<pdfrwt beam="2">  1       21 0.73468313E-01 0.47365400E+03</pdfrwt>
<totfact> 0.50146593E+04</totfact>
</mgrwt>
</event>
<event>
 7    0  0.4793433E-002  0.4646135E+03  0.7546771E-02  0.1023452E+00
         21   -1    0    0  502  501  0.00000000000E+00  0.00000000000E+00  0.10557766461E+03  0.10557766461E+03  0.00000000000E+00 0. -1.
         21   -1    0    0  501  502 -0.00000000000E+00 -0.00000000000E+00 -0.51115375533E+03  0.51115375533E+03  0.00000000000E+00 0. -1.
      99926    2    1    2    0    0  0.00000000000E+00  0.00000000000E+00 -0.40557609072E+03  0.61673141993E+03  0.46461347265E+03 0.  0.
      99925    2    3    3    0    0  0.91925613275E+02 -0.73654532309E+02 -0.29526053074E+03  0.41254439934E+03  0.26294256390E+03 0.  0.
         25    1    3    3    0    0 -0.91925613275E+02  0.73654532309E+02 -0.11031555999E+03  0.20418702060E+03  0.12509000000E+03 0.  0.
         25    1    4    4    0    0  0.79088048775E+02 -0.23239697274E+02 -0.18373879411E+03  0.23707057082E+03  0.12509000000E+03 0.  0.
         25    1    4    4    0    0  0.12837564500E+02 -0.50414835035E+02 -0.11152173662E+03  0.17547382851E+03  0.12509000000E+03 0.  0.
<mgrwt>
<rscale>  2 0.46461347E+03</rscale>
<asrwt>0</asrwt>
<pdfrwt beam="1">  1       21 0.15526127E-01 0.46461347E+03</pdfrwt>
<pdfrwt beam="2">  1       21 0.75169671E-01 0.46461347E+03</pdfrwt>
<totfact> 0.53482250E+04</totfact>
</mgrwt>
</event>
<event>
 7    0  0.4793433E-002  0.4512340E+03  0.7546771E-02  0.1027355E+00
         21   -1    0    0  502  501  0.00000000000E+00  0.00000000000E+00  0.60126045363E+03  0.60126045363E+03  0.00000000000E+00 0.  1.
         21   -1    0    0  501  502 -0.00000000000E+00 -0.00000000000E+00 -0.84660525127E+02  0.84660525127E+02  0.00000000000E+00 0.  1.
      99926    2    1    2    0    0  0.00000000000E+00  0.00000000000E+00  0.51659992850E+03  0.68592097875E+03  0.45123397807E+03 0.  0.
      99925    2    3    3    0    0  0.86689513208E+01  0.69692309331E+02  0.19825953261E+03  0.33675012595E+03  0.26298600030E+03 0.  0.
         25    1    3    3    0    0 -0.86689513208E+01 -0.69692309331E+02  0.31834039589E+03  0.34917085281E+03  0.12509000000E+03 0.  0.
         25    1    4    4    0    0 -0.15923020846E+02 -0.10278536799E+01  0.10000852509E+03  0.16094661310E+03  0.12509000000E+03 0.  0.
         25    1    4    4    0    0  0.24591972166E+02  0.70720163011E+02  0.98251007520E+02  0.17580351285E+03  0.12509000000E+03 0.  0.
<mgrwt>
<rscale>  2 0.45123398E+03</rscale>
<asrwt>0</asrwt>
<pdfrwt beam="1">  1       21 0.88420652E-01 0.45123398E+03</pdfrwt>
<pdfrwt beam="2">  1       21 0.12450078E-01 0.45123398E+03</pdfrwt>
<totfact> 0.55295558E+04</totfact>
</mgrwt>
</event>
<event>
 7    0  0.4793433E-002  0.4501841E+03  0.7546771E-02  0.1027667E+00
         21   -1    0    0  502  501  0.00000000000E+00  0.00000000000E+00  0.85840302886E+03  0.85840302886E+03  0.00000000000E+00 0.  1.
         21   -1    0    0  501  502 -0.00000000000E+00 -0.00000000000E+00 -0.59024069207E+02  0.59024069207E+02  0.00000000000E+00 0.  1.
      99926    2    1    2    0    0 -0.14210854715E-13  0.00000000000E+00  0.79937895965E+03  0.91742709806E+03  0.45018413914E+03 0.  0.
      99925    2    3    3    0    0  0.10255638276E+03 -0.16910866857E+02  0.44159113725E+03  0.52440874860E+03  0.26305515399E+03 0.  0.
         25    1    3    3    0    0 -0.10255638276E+03  0.16910866857E+02  0.35778782240E+03  0.39301834947E+03  0.12509000000E+03 0.  0.
         25    1    4    4    0    0  0.87960458828E+01 -0.13893392060E+02  0.20969858221E+03  0.24472719556E+03  0.12509000000E+03 0.  0.
         25    1    4    4    0    0  0.93760336873E+02 -0.30174747966E+01  0.23189255504E+03  0.27968155304E+03  0.12509000000E+03 0.  0.
<mgrwt>
<rscale>  2 0.45018414E+03</rscale>
<asrwt>0</asrwt>
<pdfrwt beam="1">  1       21 0.12623573E+00 0.45018414E+03</pdfrwt>
<pdfrwt beam="2">  1       21 0.86800107E-02 0.45018414E+03</pdfrwt>
<totfact> 0.44127888E+04</totfact>
</mgrwt>
</event>
<event>
 7    0  0.4793433E-002  0.4688742E+03  0.7546771E-02  0.1022238E+00
         21   -1    0    0  502  501  0.00000000000E+00  0.00000000000E+00  0.21455312580E+04  0.21455312580E+04  0.00000000000E+00 0. -1.
         21   -1    0    0  501  502 -0.00000000000E+00 -0.00000000000E+00 -0.25616382245E+02  0.25616382245E+02  0.00000000000E+00 0. -1.
      99926    2    1    2    0    0  0.00000000000E+00  0.00000000000E+00  0.21199148757E+04  0.21711476402E+04  0.46887417853E+03 0.  0.
      99925    2    3    3    0    0  0.10016116979E+02  0.88103448286E+02  0.90345013781E+03  0.94505771412E+03  0.26277250864E+03 0.  0.
         25    1    4    4    0    0  0.88500252272E+01  0.76555155008E+02  0.57290279308E+03  0.59144241742E+03  0.12509000000E+03 0.  0.
         25    1    4    4    0    0  0.11660917518E+01  0.11548293277E+02  0.33054734474E+03  0.35361529670E+03  0.12509000000E+03 0.  0.
         25    1    3    3    0    0 -0.10016116979E+02 -0.88103448286E+02  0.12164647379E+04  0.12260899261E+04  0.12509000000E+03 0.  0.
<mgrwt>
<rscale>  2 0.46887418E+03</rscale>
<asrwt>0</asrwt>
<pdfrwt beam="1">  1       21 0.31551918E+00 0.46887418E+03</pdfrwt>
<pdfrwt beam="2">  1       21 0.37671165E-02 0.46887418E+03</pdfrwt>
<totfact> 0.99908816E+03</totfact>
</mgrwt>
</event>
<event>
 7    0  0.4793433E-002  0.4366946E+03  0.7546771E-02  0.1031766E+00
         21   -1    0    0  502  501  0.00000000000E+00  0.00000000000E+00  0.50923861075E+03  0.50923861075E+03  0.00000000000E+00 0.  1.
         21   -1    0    0  501  502 -0.00000000000E+00 -0.00000000000E+00 -0.93621225744E+02  0.93621225744E+02  0.00000000000E+00 0.  1.
      99926    2    1    2    0    0  0.00000000000E+00  0.00000000000E+00  0.41561738501E+03  0.60285983650E+03  0.43669459779E+03 0.  0.
      99925    2    3    3    0    0  0.76588357392E+02 -0.49393586313E+01  0.19120723794E+03  0.33472256576E+03  0.26379691893E+03 0.  0.
         25    1    4    4    0    0  0.23384359329E+02  0.31019945538E+02  0.67072218434E+02  0.14715724878E+03  0.12509000000E+03 0.  0.
         25    1    4    4    0    0  0.53203998063E+02 -0.35959304169E+02  0.12413501950E+03  0.18756531698E+03  0.12509000000E+03 0.  0.
         25    1    3    3    0    0 -0.76588357392E+02  0.49393586313E+01  0.22441014707E+03  0.26813727074E+03  0.12509000000E+03 0.  0.
<mgrwt>
<rscale>  2 0.43669460E+03</rscale>
<asrwt>0</asrwt>
<pdfrwt beam="1">  1       21 0.74888030E-01 0.43669460E+03</pdfrwt>
<pdfrwt beam="2">  1       21 0.13767828E-01 0.43669460E+03</pdfrwt>
<totfact> 0.67786069E+04</totfact>
</mgrwt>
</event>
<event>
 7    0  0.4793433E-002  0.4611082E+03  0.7546771E-02  0.1024460E+00
         21   -1    0    0  502  501  0.00000000000E+00  0.00000000000E+00  0.37032813782E+03  0.37032813782E+03  0.00000000000E+00 0.  1.
         21   -1    0    0  501  502 -0.00000000000E+00 -0.00000000000E+00 -0.14353536561E+03  0.14353536561E+03  0.00000000000E+00 0.  1.
      99926    2    1    2    0    0  0.71054273576E-14  0.00000000000E+00  0.22679277222E+03  0.51386350343E+03  0.46110816370E+03 0.  0.
      99925    2    3    3    0    0 -0.39320626994E+02  0.70213863324E+02  0.23929439570E+03  0.36459898320E+03  0.26304849824E+03 0.  0.
         25    1    4    4    0    0  0.13185344527E+02  0.21597951888E+02  0.14086974839E+03  0.19008450475E+03  0.12509000000E+03 0.  0.
         25    1    4    4    0    0 -0.52505971521E+02  0.48615911436E+02  0.98424647309E+02  0.17451447845E+03  0.12509000000E+03 0.  0.
         25    1    3    3    0    0  0.39320626994E+02 -0.70213863324E+02 -0.12501623478E+02  0.14926452023E+03  0.12509000000E+03 0.  0.
<mgrwt>
<rscale>  2 0.46110816E+03</rscale>
<asrwt>0</asrwt>
<pdfrwt beam="1">  1       21 0.54460020E-01 0.46110816E+03</pdfrwt>
<pdfrwt beam="2">  1       21 0.21108142E-01 0.46110816E+03</pdfrwt>
<totfact> 0.61282263E+04</totfact>
</mgrwt>
</event>
<event>
 7    0  0.4793433E-002  0.4518174E+03  0.7546771E-02  0.1027181E+00
         21   -1    0    0  502  501  0.00000000000E+00  0.00000000000E+00  0.12182284316E+04  0.12182284316E+04  0.00000000000E+00 0.  1.
         21   -1    0    0  501  502 -0.00000000000E+00 -0.00000000000E+00 -0.41892591500E+02  0.41892591500E+02  0.00000000000E+00 0.  1.
      99926    2    1    2    0    0  0.00000000000E+00  0.00000000000E+00  0.11763358401E+04  0.12601210231E+04  0.45181742347E+03 0.  0.
      99925    2    3    3    0    0 -0.95656900151E+02 -0.54501537715E+02  0.74638909863E+03  0.79901109178E+03  0.26306154807E+03 0.  0.
         25    1    3    3    0    0  0.95656900151E+02  0.54501537715E+02  0.42994674144E+03  0.46110993129E+03  0.12509000000E+03 0.  0.
         25    1    4    4    0    0 -0.30664144872E+02 -0.46648032966E+02  0.27983965853E+03  0.31156712174E+03  0.12509000000E+03 0.  0.
         25    1    4    4    0    0 -0.64992755279E+02 -0.78535047491E+01  0.46654944010E+03  0.48744397004E+03  0.12509000000E+03 0.  0.
<mgrwt>
<rscale>  2 0.45181742E+03</rscale>
<asrwt>0</asrwt>
<pdfrwt beam="1">  1       21 0.17915122E+00 0.45181742E+03</pdfrwt>
<pdfrwt beam="2">  1       21 0.61606760E-02 0.45181742E+03</pdfrwt>
<totfact> 0.31057457E+04</totfact>
</mgrwt>
</event>
<event>
 7    0  0.4793433E-002  0.4591779E+03  0.7546771E-02  0.1025020E+00
         21   -1    0    0  502  501  0.00000000000E+00  0.00000000000E+00  0.28067268201E+03  0.28067268201E+03  0.00000000000E+00 0.  1.
         21   -1    0    0  501  502 -0.00000000000E+00 -0.00000000000E+00 -0.18780270682E+03  0.18780270682E+03  0.00000000000E+00 0.  1.
      99926    2    1    2    0    0  0.14210854715E-13  0.00000000000E+00  0.92869975187E+02  0.46847538883E+03  0.45917791503E+03 0.  0.
      99925    2    3    3    0    0  0.83594079252E+02  0.82199281459E+02  0.61894589480E+02  0.29425806886E+03  0.26270169189E+03 0.  0.
         25    1    4    4    0    0  0.75920536798E+02  0.68302989748E+02  0.38579609460E+02  0.16602746966E+03  0.12509000000E+03 0.  0.
         25    1    3    3    0    0 -0.83594079252E+02 -0.82199281459E+02  0.30975385707E+02  0.17421731997E+03  0.12509000000E+03 0.  0.
         25    1    4    4    0    0  0.76735424533E+01  0.13896291711E+02  0.23314980020E+02  0.12823059920E+03  0.12509000000E+03 0.  0.
<mgrwt>
<rscale>  2 0.45917792E+03</rscale>
<asrwt>0</asrwt>
<pdfrwt beam="1">  1       21 0.41275395E-01 0.45917792E+03</pdfrwt>
<pdfrwt beam="2">  1       21 0.27618045E-01 0.45917792E+03</pdfrwt>
<totfact> 0.65355412E+04</totfact>
</mgrwt>
</event>
<event>
 7    0  0.4793433E-002  0.4555809E+03  0.7546771E-02  0.1026071E+00
         21   -1    0    0  502  501  0.00000000000E+00  0.00000000000E+00  0.25137803341E+03  0.25137803341E+03  0.00000000000E+00 0. -1.
         21   -1    0    0  501  502 -0.00000000000E+00 -0.00000000000E+00 -0.20641613452E+03  0.20641613452E+03  0.00000000000E+00 0. -1.
      99926    2    1    2    0    0  0.00000000000E+00  0.00000000000E+00  0.44961898893E+02  0.45779416792E+03  0.45558086860E+03 0.  0.
      99925    2    3    3    0    0 -0.26277884403E+02 -0.87423896638E+02  0.95891086776E+02  0.29477651492E+03  0.26337165435E+03 0.  0.
         25    1    3    3    0    0  0.26277884403E+02  0.87423896638E+02 -0.50929187883E+02  0.16301765300E+03  0.12509000000E+03 0.  0.
         25    1    4    4    0    0  0.26778607562E+02 -0.53002255206E+02  0.43605696594E+02  0.14517333693E+03  0.12509000000E+03 0.  0.
         25    1    4    4    0    0 -0.53056491965E+02 -0.34421641433E+02  0.52285390183E+02  0.14960317799E+03  0.12509000000E+03 0.  0.
<mgrwt>
<rscale>  2 0.45558087E+03</rscale>
<asrwt>0</asrwt>
<pdfrwt beam="1">  1       21 0.36967358E-01 0.45558087E+03</pdfrwt>
<pdfrwt beam="2">  1       21 0.30355314E-01 0.45558087E+03</pdfrwt>
<totfact> 0.68025760E+04</totfact>
</mgrwt>
</event>
<event>
 7    0  0.4793433E-002  0.4571692E+03  0.7546771E-02  0.1025605E+00
         21   -1    0    0  502  501  0.00000000000E+00  0.00000000000E+00  0.87426357687E+03  0.87426357687E+03  0.00000000000E+00 0. -1.
         21   -1    0    0  501  502 -0.00000000000E+00 -0.00000000000E+00 -0.59765631911E+02  0.59765631911E+02  0.00000000000E+00 0. -1.
      99926    2    1    2    0    0 -0.71054273576E-14  0.14210854715E-13  0.81449794496E+03  0.93402920879E+03  0.45716918150E+03 0.  0.
      99925    2    3    3    0    0 -0.47468952934E+02  0.10193904985E+03  0.46112973803E+03  0.54267071693E+03  0.26307033345E+03 0.  0.
         25    1    3    3    0    0  0.47468952934E+02 -0.10193904985E+03  0.35336820693E+03  0.39135849185E+03  0.12509000000E+03 0.  0.
         25    1    4    4    0    0  0.58358453070E+01  0.21496641507E+02  0.22883259555E+03  0.26174038201E+03  0.12509000000E+03 0.  0.
         25    1    4    4    0    0 -0.53304798241E+02  0.80442408344E+02  0.23229714248E+03  0.28093033493E+03  0.12509000000E+03 0.  0.
<mgrwt>
<rscale>  2 0.45716918E+03</rscale>
<asrwt>0</asrwt>
<pdfrwt beam="1">  1       21 0.12856817E+00 0.45716918E+03</pdfrwt>
<pdfrwt beam="2">  1       21 0.87890640E-02 0.45716918E+03</pdfrwt>
<totfact> 0.41092772E+04</totfact>
</mgrwt>
</event>
<event>
 7    0  0.4793433E-002  0.4578542E+03  0.7546771E-02  0.1025405E+00
         21   -1    0    0  502  501  0.00000000000E+00  0.00000000000E+00  0.68828977566E+03  0.68828977566E+03  0.00000000000E+00 0.  1.
         21   -1    0    0  501  502 -0.00000000000E+00 -0.00000000000E+00 -0.76141800803E+02  0.76141800803E+02  0.00000000000E+00 0.  1.
      99926    2    1    2    0    0  0.00000000000E+00  0.00000000000E+00  0.61214797485E+03  0.76443157646E+03  0.45785422568E+03 0.  0.
      99925    2    3    3    0    0 -0.45989495602E+02  0.79376787447E+02  0.26613500325E+03  0.38523744055E+03  0.26299113589E+03 0.  0.
         25    1    4    4    0    0 -0.61529590261E+02  0.32209511896E+02  0.15230016452E+03  0.20896456960E+03  0.12509000000E+03 0.  0.
         25    1    3    3    0    0  0.45989495602E+02 -0.79376787447E+02  0.34601297160E+03  0.37919413591E+03  0.12509000000E+03 0.  0.
         25    1    4    4    0    0  0.15540094659E+02  0.47167275551E+02  0.11383483873E+03  0.17627287095E+03  0.12509000000E+03 0.  0.
<mgrwt>
<rscale>  2 0.45785423E+03</rscale>
<asrwt>0</asrwt>
<pdfrwt beam="1">  1       21 0.10121908E+00 0.45785423E+03</pdfrwt>
<pdfrwt beam="2">  1       21 0.11197324E-01 0.45785423E+03</pdfrwt>
<totfact> 0.48438551E+04</totfact>
</mgrwt>
</event>
<event>
 7    0  0.4793433E-002  0.4362851E+03  0.7546771E-02  0.1031893E+00
         21   -1    0    0  502  501  0.00000000000E+00  0.00000000000E+00  0.76630736314E+02  0.76630736314E+02  0.00000000000E+00 0. -1.
         21   -1    0    0  501  502 -0.00000000000E+00 -0.00000000000E+00 -0.62098023856E+03  0.62098023856E+03  0.00000000000E+00 0. -1.
      99926    2    1    2    0    0  0.35527136788E-14  0.14210854715E-13 -0.54434950224E+03  0.69761097487E+03  0.43628510365E+03 0.  0.
      99925    2    3    3    0    0  0.30858027051E+02  0.87401410323E+02 -0.31899058345E+03  0.42370337231E+03  0.26301773898E+03 0.  0.
         25    1    4    4    0    0  0.16462067844E+02  0.86409233505E+02 -0.17181262781E+03  0.23001009215E+03  0.12509000000E+03 0.  0.
         25    1    3    3    0    0 -0.30858027051E+02 -0.87401410323E+02 -0.22535891879E+03  0.27390760256E+03  0.12509000000E+03 0.  0.
         25    1    4    4    0    0  0.14395959207E+02  0.99217681804E+00 -0.14717795564E+03  0.19369328017E+03  0.12509000000E+03 0.  0.
<mgrwt>
<rscale>  2 0.43628510E+03</rscale>
<asrwt>0</asrwt>
<pdfrwt beam="1">  1       21 0.11269226E-01 0.43628510E+03</pdfrwt>
<pdfrwt beam="2">  1       21 0.91320623E-01 0.43628510E+03</pdfrwt>
<totfact> 0.61619405E+04</totfact>
</mgrwt>
</event>
<event>
 7    0  0.4793433E-002  0.4560457E+03  0.7546771E-02  0.1025934E+00
         21   -1    0    0  502  501  0.00000000000E+00  0.00000000000E+00  0.41363161949E+03  0.41363161949E+03  0.00000000000E+00 0.  1.
         21   -1    0    0  501  502 -0.00000000000E+00 -0.00000000000E+00 -0.12570222310E+03  0.12570222310E+03  0.00000000000E+00 0.  1.
      99926    2    1    2    0    0 -0.35527136788E-14  0.00000000000E+00  0.28792939639E+03  0.53933384259E+03  0.45604567365E+03 0.  0.
      99925    2    3    3    0    0  0.27647001693E+02  0.88388168008E+02  0.10210463472E+03  0.29693917454E+03  0.26300321671E+03 0.  0.
         25    1    4    4    0    0 -0.22243765333E+02  0.31851357377E+02  0.65082576925E+02  0.14626190202E+03  0.12509000000E+03 0.  0.
         25    1    4    4    0    0  0.49890767027E+02  0.56536810631E+02  0.37022057791E+02  0.15067727252E+03  0.12509000000E+03 0.  0.
         25    1    3    3    0    0 -0.27647001693E+02 -0.88388168008E+02  0.18582476168E+03  0.24239466805E+03  0.12509000000E+03 0.  0.
<mgrwt>
<rscale>  2 0.45604567E+03</rscale>
<asrwt>0</asrwt>
<pdfrwt beam="1">  1       21 0.60828179E-01 0.45604567E+03</pdfrwt>
<pdfrwt beam="2">  1       21 0.18485621E-01 0.45604567E+03</pdfrwt>
<totfact> 0.62061700E+04</totfact>
</mgrwt>
</event>
<event>
 7    0  0.4793433E-002  0.4545541E+03  0.7546771E-02  0.1026373E+00
         21   -1    0    0  502  501  0.00000000000E+00  0.00000000000E+00  0.76888404383E+02  0.76888404383E+02  0.00000000000E+00 0. -1.
         21   -1    0    0  501  502 -0.00000000000E+00 -0.00000000000E+00 -0.67181598149E+03  0.67181598149E+03  0.00000000000E+00 0. -1.
      99926    2    1    2    0    0  0.00000000000E+00  0.00000000000E+00 -0.59492757710E+03  0.74870438587E+03  0.45455410615E+03 0.  0.
      99925    2    3    3    0    0  0.45812854217E+02  0.69415795186E+01 -0.54385278393E+03  0.60586480545E+03  0.26296256150E+03 0.  0.
         25    1    3    3    0    0 -0.45812854217E+02 -0.69415795186E+01 -0.51074793170E+02  0.14283958042E+03  0.12509000000E+03 0.  0.
         25    1    4    4    0    0  0.63328544022E+02 -0.30076772073E+01 -0.27864495170E+03  0.31194561676E+03  0.12509000000E+03 0.  0.
         25    1    4    4    0    0 -0.17515689805E+02  0.99492567258E+01 -0.26520783224E+03  0.29391918869E+03  0.12509000000E+03 0.  0.
<mgrwt>
<rscale>  2 0.45455411E+03</rscale>
<asrwt>0</asrwt>
<pdfrwt beam="1">  1       21 0.11307119E-01 0.45455411E+03</pdfrwt>
<pdfrwt beam="2">  1       21 0.98796458E-01 0.45455411E+03</pdfrwt>
<totfact> 0.50513910E+04</totfact>
</mgrwt>
</event>
<event>
 7    0  0.4793433E-002  0.4642549E+03  0.7546771E-02  0.1023554E+00
         21   -1    0    0  502  501  0.00000000000E+00  0.00000000000E+00  0.11140768026E+03  0.11140768026E+03  0.00000000000E+00 0. -1.
         21   -1    0    0  501  502 -0.00000000000E+00 -0.00000000000E+00 -0.48365751976E+03  0.48365751976E+03  0.00000000000E+00 0. -1.
      99926    2    1    2    0    0  0.00000000000E+00  0.00000000000E+00 -0.37224983950E+03  0.59506520002E+03  0.46425493995E+03 0.  0.
      99925    2    3    3    0    0  0.57553920549E+02  0.10050263033E+03 -0.27971475683E+03  0.40109746534E+03  0.26310758074E+03 0.  0.
         25    1    3    3    0    0 -0.57553920549E+02 -0.10050263033E+03 -0.92535082666E+02  0.19396773468E+03  0.12509000000E+03 0.  0.
         25    1    4    4    0    0  0.24017175930E+02  0.83527439583E+02 -0.18563084238E+03  0.24012491675E+03  0.12509000000E+03 0.  0.
         25    1    4    4    0    0  0.33536744619E+02  0.16975190746E+02 -0.94083914453E+02  0.16097254859E+03  0.12509000000E+03 0.  0.
<mgrwt>
<rscale>  2 0.46425494E+03</rscale>
<asrwt>0</asrwt>
<pdfrwt beam="1">  1       21 0.16383483E-01 0.46425494E+03</pdfrwt>
<pdfrwt beam="2">  1       21 0.71126105E-01 0.46425494E+03</pdfrwt>
<totfact> 0.54859234E+04</totfact>
</mgrwt>
</event>
<event>
 7    0  0.4793433E-002  0.4511970E+03  0.7546771E-02  0.1027366E+00
         21   -1    0    0  502  501  0.00000000000E+00  0.00000000000E+00  0.51721763865E+02  0.51721763865E+02  0.00000000000E+00 0.  1.
         21   -1    0    0  501  502 -0.00000000000E+00 -0.00000000000E+00 -0.98400918163E+03  0.98400918163E+03  0.00000000000E+00 0.  1.
      99926    2    1    2    0    0  0.00000000000E+00  0.00000000000E+00 -0.93228741776E+03  0.10357309455E+04  0.45119703249E+03 0.  0.
      99925    2    3    3    0    0 -0.22256825629E+02  0.78263939632E+02 -0.75741258029E+03  0.80584112968E+03  0.26284120484E+03 0.  0.
         25    1    3    3    0    0  0.22256825629E+02 -0.78263939632E+02 -0.17487483747E+03  0.22988981581E+03  0.12509000000E+03 0.  0.
         25    1    4    4    0    0 -0.49147481927E+02  0.53463013558E+02 -0.41279668985E+03  0.43740414270E+03  0.12509000000E+03 0.  0.
         25    1    4    4    0    0  0.26890656298E+02  0.24800926073E+02 -0.34461589044E+03  0.36843698698E+03  0.12509000000E+03 0.  0.
<mgrwt>
<rscale>  2 0.45119703E+03</rscale>
<asrwt>0</asrwt>
<pdfrwt beam="1">  1       21 0.76061413E-02 0.45119703E+03</pdfrwt>
<pdfrwt beam="2">  1       21 0.14470724E+00 0.45119703E+03</pdfrwt>
<totfact> 0.38948874E+04</totfact>
</mgrwt>
</event>
<event>
 7    0  0.4793433E-002  0.4573140E+03  0.7546771E-02  0.1025563E+00
         21   -1    0    0  502  501  0.00000000000E+00  0.00000000000E+00  0.12175871768E+03  0.12175871768E+03  0.00000000000E+00 0. -1.
         21   -1    0    0  501  502 -0.00000000000E+00 -0.00000000000E+00 -0.42940688057E+03  0.42940688057E+03  0.00000000000E+00 0. -1.
      99926    2    1    2    0    0 -0.14210854715E-13  0.00000000000E+00 -0.30764816289E+03  0.55116559825E+03  0.45731403276E+03 0.  0.
      99925    2    3    3    0    0  0.11369534280E+03  0.16248743251E+02 -0.18106421724E+03  0.33935989476E+03  0.26304036720E+03 0.  0.
         25    1    4    4    0    0  0.67334082194E+02  0.88086661721E+01 -0.13983421928E+03  0.19953092042E+03  0.12509000000E+03 0.  0.
         25    1    4    4    0    0  0.46361260609E+02  0.74400770793E+01 -0.41229997960E+02  0.13982897434E+03  0.12509000000E+03 0.  0.
         25    1    3    3    0    0 -0.11369534280E+03 -0.16248743251E+02 -0.12658394566E+03  0.21180570349E+03  0.12509000000E+03 0.  0.
<mgrwt>
<rscale>  2 0.45731403E+03</rscale>
<asrwt>0</asrwt>
<pdfrwt beam="1">  1       21 0.17905694E-01 0.45731403E+03</pdfrwt>
<pdfrwt beam="2">  1       21 0.63148071E-01 0.45731403E+03</pdfrwt>
<totfact> 0.60671136E+04</totfact>
</mgrwt>
</event>
<event>
 7    0  0.4793433E-002  0.4579823E+03  0.7546771E-02  0.1025368E+00
         21   -1    0    0  502  501  0.00000000000E+00  0.00000000000E+00  0.36088937490E+03  0.36088937490E+03  0.00000000000E+00 0. -1.
         21   -1    0    0  501  502 -0.00000000000E+00 -0.00000000000E+00 -0.14529921103E+03  0.14529921103E+03  0.00000000000E+00 0. -1.
      99926    2    1    2    0    0  0.00000000000E+00  0.00000000000E+00  0.21559016387E+03  0.50618858593E+03  0.45798227670E+03 0.  0.
      99925    2    3    3    0    0 -0.25609022264E+02  0.10789070024E+03  0.17277199292E+03  0.33362807746E+03  0.26298537471E+03 0.  0.
         25    1    3    3    0    0  0.25609022264E+02 -0.10789070024E+03  0.42818170950E+02  0.17256050847E+03  0.12509000000E+03 0.  0.
         25    1    4    4    0    0  0.23112023424E+02  0.34094336190E+02  0.89936221386E+02  0.15947608411E+03  0.12509000000E+03 0.  0.
         25    1    4    4    0    0 -0.48721045688E+02  0.73796364052E+02  0.82835771534E+02  0.17415199334E+03  0.12509000000E+03 0.  0.
<mgrwt>
<rscale>  2 0.45798228E+03</rscale>
<asrwt>0</asrwt>
<pdfrwt beam="1">  1       21 0.53071967E-01 0.45798228E+03</pdfrwt>
<pdfrwt beam="2">  1       21 0.21367531E-01 0.45798228E+03</pdfrwt>
<totfact> 0.63325706E+04</totfact>
</mgrwt>
</event>
<event>
 7    0  0.4793433E-002  0.4490224E+03  0.7546771E-02  0.1028014E+00
         21   -1    0    0  502  501  0.00000000000E+00  0.00000000000E+00  0.72167390830E+03  0.72167390830E+03  0.00000000000E+00 0.  1.
         21   -1    0    0  501  502 -0.00000000000E+00 -0.00000000000E+00 -0.69844960077E+02  0.69844960077E+02  0.00000000000E+00 0.  1.
      99926    2    1    2    0    0  0.00000000000E+00  0.00000000000E+00  0.65182894823E+03  0.79151886838E+03  0.44902242846E+03 0.  0.
      99925    2    3    3    0    0  0.24568606712E+02 -0.67807465784E+02  0.27179251808E+03  0.38497653948E+03  0.26293401114E+03 0.  0.
         25    1    3    3    0    0 -0.24568606712E+02  0.67807465784E+02  0.38003643014E+03  0.40654232890E+03  0.12509000000E+03 0.  0.
         25    1    4    4    0    0  0.25834062438E+02 -0.27125642875E+02  0.18839234566E+03  0.22922125401E+03  0.12509000000E+03 0.  0.
         25    1    4    4    0    0 -0.12654557252E+01 -0.40681822909E+02  0.83400172419E+02  0.15575528547E+03  0.12509000000E+03 0.  0.
<mgrwt>
<rscale>  2 0.44902243E+03</rscale>
<asrwt>0</asrwt>
<pdfrwt beam="1">  1       21 0.10612851E+00 0.44902243E+03</pdfrwt>
<pdfrwt beam="2">  1       21 0.10271318E-01 0.44902243E+03</pdfrwt>
<totfact> 0.50505876E+04</totfact>
</mgrwt>
</event>
<event>
 7    0  0.4793433E-002  0.4518616E+03  0.7546771E-02  0.1027168E+00
         21   -1    0    0  502  501  0.00000000000E+00  0.00000000000E+00  0.80231252582E+03  0.80231252582E+03  0.00000000000E+00 0.  1.
         21   -1    0    0  501  502 -0.00000000000E+00 -0.00000000000E+00 -0.63621997942E+02  0.63621997942E+02  0.00000000000E+00 0.  1.
      99926    2    1    2    0    0  0.00000000000E+00  0.00000000000E+00  0.73869052788E+03  0.86593452376E+03  0.45186159769E+03 0.  0.
      99925    2    3    3    0    0 -0.10382387542E+03 -0.36081952375E+02  0.48121469876E+03  0.55930345053E+03  0.26300467501E+03 0.  0.
         25    1    4    4    0    0 -0.41445299453E+02 -0.48105032066E+02  0.19127034831E+03  0.23719962310E+03  0.12509000000E+03 0.  0.
         25    1    3    3    0    0  0.10382387542E+03  0.36081952375E+02  0.25747582912E+03  0.30663107323E+03  0.12509000000E+03 0.  0.
         25    1    4    4    0    0 -0.62378575962E+02  0.12023079691E+02  0.28994435045E+03  0.32210382742E+03  0.12509000000E+03 0.  0.
<mgrwt>
<rscale>  2 0.45186160E+03</rscale>
<asrwt>0</asrwt>
<pdfrwt beam="1">  1       21 0.11798713E+00 0.45186160E+03</pdfrwt>
<pdfrwt beam="2">  1       21 0.93561766E-02 0.45186160E+03</pdfrwt>
<totfact> 0.45852904E+04</totfact>
</mgrwt>
</event>
<event>
 7    0  0.4793433E-002  0.4589553E+03  0.7546771E-02  0.1025085E+00
         21   -1    0    0  502  501  0.00000000000E+00  0.00000000000E+00  0.62189635598E+03  0.62189635598E+03  0.00000000000E+00 0. -1.
         21   -1    0    0  501  502 -0.00000000000E+00 -0.00000000000E+00 -0.84676490094E+02  0.84676490094E+02  0.00000000000E+00 0. -1.
      99926    2    1    2    0    0  0.00000000000E+00  0.00000000000E+00  0.53721986589E+03  0.70657284607E+03  0.45895533825E+03 0.  0.
      99925    2    3    3    0    0  0.16666516356E+02 -0.27695339584E+02  0.50979187250E+03  0.57449481034E+03  0.26289109768E+03 0.  0.
         25    1    3    3    0    0 -0.16666516356E+02  0.27695339584E+02  0.27427993387E+02  0.13207803573E+03  0.12509000000E+03 0.  0.
         25    1    4    4    0    0  0.33954736956E+02 -0.82984928259E+01  0.32353090321E+03  0.34862808632E+03  0.12509000000E+03 0.  0.
         25    1    4    4    0    0 -0.17288220600E+02 -0.19396846758E+02  0.18626096929E+03  0.22586672402E+03  0.12509000000E+03 0.  0.
<mgrwt>
<rscale>  2 0.45895534E+03</rscale>
<asrwt>0</asrwt>
<pdfrwt beam="1">  1       21 0.91455344E-01 0.45895534E+03</pdfrwt>
<pdfrwt beam="2">  1       21 0.12452425E-01 0.45895534E+03</pdfrwt>
<totfact> 0.50943449E+04</totfact>
</mgrwt>
</event>
<event>
 7    0  0.4793433E-002  0.4511920E+03  0.7546771E-02  0.1027367E+00
         21   -1    0    0  502  501  0.00000000000E+00  0.00000000000E+00  0.17822227135E+04  0.17822227135E+04  0.00000000000E+00 0.  1.
         21   -1    0    0  501  502 -0.00000000000E+00 -0.00000000000E+00 -0.28556230476E+02  0.28556230476E+02  0.00000000000E+00 0.  1.
      99926    2    1    2    0    0 -0.26645352591E-14  0.00000000000E+00  0.17536664830E+04  0.18107789440E+04  0.45119203258E+03 0.  0.
      99925    2    3    3    0    0 -0.75417466330E+01 -0.75357779877E+02  0.79420772052E+03  0.84024079533E+03  0.26363425019E+03 0.  0.
         25    1    3    3    0    0  0.75417466330E+01  0.75357779877E+02  0.95945876252E+03  0.97053814867E+03  0.12509000000E+03 0.  0.
         25    1    4    4    0    0 -0.34235138152E+02 -0.66592532707E+02  0.44221100758E+03  0.46562290904E+03  0.12509000000E+03 0.  0.
         25    1    4    4    0    0  0.26693391519E+02 -0.87652471698E+01  0.35199671293E+03  0.37461788628E+03  0.12509000000E+03 0.  0.
<mgrwt>
<rscale>  2 0.45119203E+03</rscale>
<asrwt>0</asrwt>
<pdfrwt beam="1">  1       21 0.26209150E+00 0.45119203E+03</pdfrwt>
<pdfrwt beam="2">  1       21 0.41994469E-02 0.45119203E+03</pdfrwt>
<totfact> 0.17566809E+04</totfact>
</mgrwt>
</event>
<event>
 7    0  0.4793433E-002  0.4528268E+03  0.7546771E-02  0.1026882E+00
         21   -1    0    0  502  501  0.00000000000E+00  0.00000000000E+00  0.34680687411E+03  0.34680687411E+03  0.00000000000E+00 0.  1.
         21   -1    0    0  501  502 -0.00000000000E+00 -0.00000000000E+00 -0.14781434669E+03  0.14781434669E+03  0.00000000000E+00 0.  1.
      99926    2    1    2    0    0 -0.17763568394E-14  0.00000000000E+00  0.19899252743E+03  0.49462122080E+03  0.45282681689E+03 0.  0.
      99925    2    3    3    0    0  0.93362441715E+01 -0.27993599383E+02  0.24266584734E+03  0.35888001838E+03  0.26274959004E+03 0.  0.
         25    1    3    3    0    0 -0.93362441715E+01  0.27993599383E+02 -0.43673319917E+02  0.13574120242E+03  0.12509000000E+03 0.  0.
         25    1    4    4    0    0  0.31876388614E+02 -0.94702479201E+01  0.82172407077E+02  0.15331536887E+03  0.12509000000E+03 0.  0.
         25    1    4    4    0    0 -0.22540144442E+02 -0.18523351463E+02  0.16049344027E+03  0.20556464951E+03  0.12509000000E+03 0.  0.
<mgrwt>
<rscale>  2 0.45282682E+03</rscale>
<asrwt>0</asrwt>
<pdfrwt beam="1">  1       21 0.51001011E-01 0.45282682E+03</pdfrwt>
<pdfrwt beam="2">  1       21 0.21737404E-01 0.45282682E+03</pdfrwt>
<totfact> 0.66795125E+04</totfact>
</mgrwt>
</event>
<event>
 7    0  0.4793433E-002  0.4527991E+03  0.7546771E-02  0.1026891E+00
         21   -1    0    0  502  501  0.00000000000E+00  0.00000000000E+00  0.11211372680E+04  0.11211372680E+04  0.00000000000E+00 0. -1.
         21   -1    0    0  501  502 -0.00000000000E+00 -0.00000000000E+00 -0.45718541602E+02  0.45718541602E+02  0.00000000000E+00 0. -1.
      99926    2    1    2    0    0  0.71054273576E-14  0.00000000000E+00  0.10754187264E+04  0.11668558096E+04  0.45279912027E+03 0.  0.
      99925    2    3    3    0    0  0.58973050742E+02 -0.85384350483E+02  0.57677722337E+03  0.64239497726E+03  0.26311790776E+03 0.  0.
         25    1    4    4    0    0  0.68531423947E+02 -0.37663908221E+02  0.27367942561E+03  0.31090683838E+03  0.12509000000E+03 0.  0.
         25    1    4    4    0    0 -0.95583732054E+01 -0.47720442262E+02  0.30309779777E+03  0.33148813888E+03  0.12509000000E+03 0.  0.
         25    1    3    3    0    0 -0.58973050742E+02  0.85384350483E+02  0.49864150302E+03  0.52446083233E+03  0.12509000000E+03 0.  0.
<mgrwt>
<rscale>  2 0.45279912E+03</rscale>
<asrwt>0</asrwt>
<pdfrwt beam="1">  1       21 0.16487311E+00 0.45279912E+03</pdfrwt>
<pdfrwt beam="2">  1       21 0.67233156E-02 0.45279912E+03</pdfrwt>
<totfact> 0.33800521E+04</totfact>
</mgrwt>
</event>
<event>
 7    0  0.4793433E-002  0.4533316E+03  0.7546771E-02  0.1026733E+00
         21   -1    0    0  502  501  0.00000000000E+00  0.00000000000E+00  0.98624922094E+02  0.98624922094E+02  0.00000000000E+00 0.  1.
         21   -1    0    0  501  502 -0.00000000000E+00 -0.00000000000E+00 -0.52093706121E+03  0.52093706121E+03  0.00000000000E+00 0.  1.
      99926    2    1    2    0    0 -0.14210854715E-13  0.00000000000E+00 -0.42231213912E+03  0.61956198331E+03  0.45333156554E+03 0.  0.
      99925    2    3    3    0    0  0.65870480436E+02 -0.86194880519E+02 -0.30139124297E+03  0.41453064706E+03  0.26311689111E+03 0.  0.
         25    1    4    4    0    0  0.31465782073E+02 -0.76829387808E+02 -0.12495591586E+03  0.19533135765E+03  0.12509000000E+03 0.  0.
         25    1    4    4    0    0  0.34404698362E+02 -0.93654927106E+01 -0.17643532711E+03  0.21919928940E+03  0.12509000000E+03 0.  0.
         25    1    3    3    0    0 -0.65870480436E+02  0.86194880519E+02 -0.12092089615E+03  0.20503133625E+03  0.12509000000E+03 0.  0.
<mgrwt>
<rscale>  2 0.45333157E+03</rscale>
<asrwt>0</asrwt>
<pdfrwt beam="1">  1       21 0.14503665E-01 0.45333157E+03</pdfrwt>
<pdfrwt beam="2">  1       21 0.76608392E-01 0.45333157E+03</pdfrwt>
<totfact> 0.58253750E+04</totfact>
</mgrwt>
</event>
<event>
 7    0  0.4793433E-002  0.4552044E+03  0.7546771E-02  0.1026181E+00
         21   -1    0    0  502  501  0.00000000000E+00  0.00000000000E+00  0.15894571662E+04  0.15894571662E+04  0.00000000000E+00 0.  1.
         21   -1    0    0  501  502 -0.00000000000E+00 -0.00000000000E+00 -0.32591478871E+02  0.32591478871E+02  0.00000000000E+00 0.  1.
      99926    2    1    2    0    0  0.00000000000E+00  0.00000000000E+00  0.15568656874E+04  0.16220486451E+04  0.45520439211E+03 0.  0.
      99925    2    3    3    0    0 -0.74600064815E+02  0.74822579160E+02  0.81894284740E+03  0.86617748290E+03  0.26159597960E+03 0.  0.
         25    1    4    4    0    0 -0.16574311593E+02  0.20606199251E+02  0.46999859957E+03  0.48707855111E+03  0.12509000000E+03 0.  0.
         25    1    4    4    0    0 -0.58025753221E+02  0.54216379909E+02  0.34894424784E+03  0.37909893179E+03  0.12509000000E+03 0.  0.
         25    1    3    3    0    0  0.74600064815E+02 -0.74822579160E+02  0.73792283996E+03  0.75587116220E+03  0.12509000000E+03 0.  0.
<mgrwt>
<rscale>  2 0.45520439E+03</rscale>
<asrwt>0</asrwt>
<pdfrwt beam="1">  1       21 0.23374365E+00 0.45520439E+03</pdfrwt>
<pdfrwt beam="2">  1       21 0.47928656E-02 0.45520439E+03</pdfrwt>
<totfact> 0.20902902E+04</totfact>
</mgrwt>
</event>
<event>
 7    0  0.4793433E-002  0.4494554E+03  0.7546771E-02  0.1027885E+00
         21   -1    0    0  502  501  0.00000000000E+00  0.00000000000E+00  0.96290047078E+02  0.96290047078E+02  0.00000000000E+00 0. -1.
         21   -1    0    0  501  502 -0.00000000000E+00 -0.00000000000E+00 -0.52448353419E+03  0.52448353419E+03  0.00000000000E+00 0. -1.
      99926    2    1    2    0    0  0.00000000000E+00  0.00000000000E+00 -0.42819348711E+03  0.62077358127E+03  0.44945542248E+03 0.  0.
      99925    2    3    3    0    0  0.53714538045E+02 -0.91846626742E+02 -0.29546549073E+03  0.40962130549E+03  0.26299943585E+03 0.  0.
         25    1    4    4    0    0  0.59318708974E+02 -0.26002771944E+02 -0.12729740208E+03  0.18986044891E+03  0.12509000000E+03 0.  0.
         25    1    4    4    0    0 -0.56041709296E+01 -0.65843854798E+02 -0.16816808865E+03  0.21976085659E+03  0.12509000000E+03 0.  0.
         25    1    3    3    0    0 -0.53714538045E+02  0.91846626742E+02 -0.13272799638E+03  0.21115227577E+03  0.12509000000E+03 0.  0.
<mgrwt>
<rscale>  2 0.44945542E+03</rscale>
<asrwt>0</asrwt>
<pdfrwt beam="1">  1       21 0.14160301E-01 0.44945542E+03</pdfrwt>
<pdfrwt beam="2">  1       21 0.77129929E-01 0.44945542E+03</pdfrwt>
<totfact> 0.60001532E+04</totfact>
</mgrwt>
</event>
<event>
 7    0  0.4793433E-002  0.4572263E+03  0.7546771E-02  0.1025589E+00
         21   -1    0    0  502  501  0.00000000000E+00  0.00000000000E+00  0.12162269720E+03  0.12162269720E+03  0.00000000000E+00 0. -1.
         21   -1    0    0  501  502 -0.00000000000E+00 -0.00000000000E+00 -0.42972220165E+03  0.42972220165E+03  0.00000000000E+00 0. -1.
      99926    2    1    2    0    0  0.00000000000E+00  0.00000000000E+00 -0.30809950445E+03  0.55134489884E+03  0.45722630375E+03 0.  0.
      99925    2    3    3    0    0 -0.71029038446E+02 -0.88908879370E+02 -0.21493205898E+03  0.35827083500E+03  0.26308228390E+03 0.  0.
         25    1    3    3    0    0  0.71029038446E+02  0.88908879370E+02 -0.93167445473E+02  0.19307406384E+03  0.12509000000E+03 0.  0.
         25    1    4    4    0    0 -0.23801278760E+02 -0.20556768959E+02 -0.59159438949E+02  0.14190288559E+03  0.12509000000E+03 0.  0.
         25    1    4    4    0    0 -0.47227759686E+02 -0.68352110411E+02 -0.15577262003E+03  0.21636794942E+03  0.12509000000E+03 0.  0.
<mgrwt>
<rscale>  2 0.45722630E+03</rscale>
<asrwt>0</asrwt>
<pdfrwt beam="1">  1       21 0.17885691E-01 0.45722630E+03</pdfrwt>
<pdfrwt beam="2">  1       21 0.63194441E-01 0.45722630E+03</pdfrwt>
<totfact> 0.60701458E+04</totfact>
</mgrwt>
</event>
<event>
 7    0  0.4793433E-002  0.4563385E+03  0.7546771E-02  0.1025849E+00
         21   -1    0    0  502  501  0.00000000000E+00  0.00000000000E+00  0.50277587958E+02  0.50277587958E+02  0.00000000000E+00 0. -1.
         21   -1    0    0  501  502 -0.00000000000E+00 -0.00000000000E+00 -0.10354753182E+04  0.10354753182E+04  0.00000000000E+00 0. -1.
      99926    2    1    2    0    0  0.00000000000E+00  0.00000000000E+00 -0.98519773019E+03  0.10857529061E+04  0.45633847695E+03 0.  0.
      99925    2    3    3    0    0 -0.77308053169E+02  0.78128385244E+02 -0.54401493881E+03  0.61419130549E+03  0.26305536760E+03 0.  0.
         25    1    4    4    0    0 -0.20909656336E+02 -0.73349386079E+00 -0.24330818289E+03  0.27437953951E+03  0.12509000000E+03 0.  0.
         25    1    4    4    0    0 -0.56398396833E+02  0.78861879105E+02 -0.30070675592E+03  0.33981176598E+03  0.12509000000E+03 0.  0.
         25    1    3    3    0    0  0.77308053169E+02 -0.78128385244E+02 -0.44118279138E+03  0.47156160062E+03  0.12509000000E+03 0.  0.
<mgrwt>
<rscale>  2 0.45633848E+03</rscale>
<asrwt>0</asrwt>
<pdfrwt beam="1">  1       21 0.73937637E-02 0.45633848E+03</pdfrwt>
<pdfrwt beam="2">  1       21 0.15227577E+00 0.45633848E+03</pdfrwt>
<totfact> 0.35618769E+04</totfact>
</mgrwt>
</event>
<event>
 7    0  0.4793433E-002  0.4573859E+03  0.7546771E-02  0.1025542E+00
         21   -1    0    0  502  501  0.00000000000E+00  0.00000000000E+00  0.25586677855E+03  0.25586677855E+03  0.00000000000E+00 0. -1.
         21   -1    0    0  501  502 -0.00000000000E+00 -0.00000000000E+00 -0.20440504478E+03  0.20440504478E+03  0.00000000000E+00 0. -1.
      99926    2    1    2    0    0  0.00000000000E+00  0.00000000000E+00  0.51461733773E+02  0.46027182332E+03  0.45738587790E+03 0.  0.
      99925    2    3    3    0    0 -0.10120181457E+03  0.43310248231E+02  0.67486943435E+02  0.29287439109E+03  0.26287513490E+03 0.  0.
         25    1    4    4    0    0 -0.55527435906E+02  0.60047733908E+02  0.49614074902E+02  0.15747409633E+03  0.12509000000E+03 0.  0.
         25    1    3    3    0    0  0.10120181457E+03 -0.43310248231E+02 -0.16025209661E+02  0.16739743223E+03  0.12509000000E+03 0.  0.
         25    1    4    4    0    0 -0.45674378660E+02 -0.16737485677E+02  0.17872868533E+02  0.13540029476E+03  0.12509000000E+03 0.  0.
<mgrwt>
<rscale>  2 0.45738588E+03</rscale>
<asrwt>0</asrwt>
<pdfrwt beam="1">  1       21 0.37627468E-01 0.45738588E+03</pdfrwt>
<pdfrwt beam="2">  1       21 0.30059565E-01 0.45738588E+03</pdfrwt>
<totfact> 0.66879047E+04</totfact>
</mgrwt>
</event>
<event>
 7    0  0.4793433E-002  0.4508823E+03  0.7546771E-02  0.1027459E+00
         21   -1    0    0  502  501  0.00000000000E+00  0.00000000000E+00  0.96313007688E+02  0.96313007688E+02  0.00000000000E+00 0.  1.
         21   -1    0    0  501  502 -0.00000000000E+00 -0.00000000000E+00 -0.52769313505E+03  0.52769313505E+03  0.00000000000E+00 0.  1.
      99926    2    1    2    0    0  0.00000000000E+00 -0.35527136788E-14 -0.43138012736E+03  0.62400614274E+03  0.45088230381E+03 0.  0.
      99925    2    3    3    0    0 -0.89801606172E+02 -0.31592311262E+02 -0.19787834687E+03  0.34252258692E+03  0.26287540735E+03 0.  0.
         25    1    4    4    0    0 -0.33583148656E+02 -0.26972174458E+02 -0.51732265076E+02  0.14205302326E+03  0.12509000000E+03 0.  0.
         25    1    3    3    0    0  0.89801606172E+02  0.31592311262E+02 -0.23350178050E+03  0.28148355582E+03  0.12509000000E+03 0.  0.
         25    1    4    4    0    0 -0.56218457516E+02 -0.46201368038E+01 -0.14614608179E+03  0.20046956365E+03  0.12509000000E+03 0.  0.
<mgrwt>
<rscale>  2 0.45088230E+03</rscale>
<asrwt>0</asrwt>
<pdfrwt beam="1">  1       21 0.14163678E-01 0.45088230E+03</pdfrwt>
<pdfrwt beam="2">  1       21 0.77601932E-01 0.45088230E+03</pdfrwt>
<totfact> 0.59123245E+04</totfact>
</mgrwt>
</event>
<event>
 7    0  0.4793433E-002  0.4602175E+03  0.7546771E-02  0.1024718E+00
         21   -1    0    0  502  501  0.00000000000E+00  0.00000000000E+00  0.65379488572E+03  0.65379488572E+03  0.00000000000E+00 0.  1.
         21   -1    0    0  501  502 -0.00000000000E+00 -0.00000000000E+00 -0.80988766777E+02  0.80988766777E+02  0.00000000000E+00 0.  1.
      99926    2    1    2    0    0 -0.71054273576E-14  0.00000000000E+00  0.57280611895E+03  0.73478365250E+03  0.46021752040E+03 0.  0.
      99925    2    3    3    0    0  0.57195874651E+02  0.10148585649E+03  0.38924082450E+03  0.48395607712E+03  0.26293405634E+03 0.  0.
         25    1    4    4    0    0  0.38037853140E+02  0.91436941777E+02  0.19567230253E+03  0.25247326724E+03  0.12509000000E+03 0.  0.
         25    1    3    3    0    0 -0.57195874651E+02 -0.10148585649E+03  0.18356529445E+03  0.25082757538E+03  0.12509000000E+03 0.  0.
         25    1    4    4    0    0  0.19158021511E+02  0.10048914708E+02  0.19356852196E+03  0.23148280988E+03  0.12509000000E+03 0.  0.
<mgrwt>
<rscale>  2 0.46021752E+03</rscale>
<asrwt>0</asrwt>
<pdfrwt beam="1">  1       21 0.96146304E-01 0.46021752E+03</pdfrwt>
<pdfrwt beam="2">  1       21 0.11910113E-01 0.46021752E+03</pdfrwt>
<totfact> 0.49012967E+04</totfact>
</mgrwt>
</event>
<event>
 7    0  0.4793433E-002  0.4444693E+03  0.7546771E-02  0.1029384E+00
         21   -1    0    0  502  501  0.00000000000E+00  0.00000000000E+00  0.14217632094E+04  0.14217632094E+04  0.00000000000E+00 0.  1.
         21   -1    0    0  501  502 -0.00000000000E+00 -0.00000000000E+00 -0.34737321532E+02  0.34737321532E+02  0.00000000000E+00 0.  1.
      99926    2    1    2    0    0  0.35527136788E-14  0.00000000000E+00  0.13870258878E+04  0.14565005309E+04  0.44446932738E+03 0.  0.
      99925    2    3    3    0    0 -0.24165357955E+02 -0.92968292610E+02  0.10003426236E+04  0.10388900390E+04  0.26340098844E+03 0.  0.
         25    1    4    4    0    0 -0.38570911460E+02 -0.18532962643E+02  0.41510903815E+03  0.43565377029E+03  0.12509000000E+03 0.  0.
         25    1    4    4    0    0  0.14405553504E+02 -0.74435329967E+02  0.58523358542E+03  0.60323626873E+03  0.12509000000E+03 0.  0.
         25    1    3    3    0    0  0.24165357955E+02  0.92968292610E+02  0.38668326427E+03  0.41761049187E+03  0.12509000000E+03 0.  0.
<mgrwt>
<rscale>  2 0.44446933E+03</rscale>
<asrwt>0</asrwt>
<pdfrwt beam="1">  1       21 0.20908279E+00 0.44446933E+03</pdfrwt>
<pdfrwt beam="2">  1       21 0.51084306E-02 0.44446933E+03</pdfrwt>
<totfact> 0.27007458E+04</totfact>
</mgrwt>
</event>
<event>
 7    0  0.4793433E-002  0.4531463E+03  0.7546771E-02  0.1026788E+00
         21   -1    0    0  502  501  0.00000000000E+00  0.00000000000E+00  0.98938812585E+02  0.98938812585E+02  0.00000000000E+00 0. -1.
         21   -1    0    0  501  502 -0.00000000000E+00 -0.00000000000E+00 -0.51885998222E+03  0.51885998222E+03  0.00000000000E+00 0. -1.
      99926    2    1    2    0    0  0.00000000000E+00  0.66613381478E-15 -0.41992116963E+03  0.61779879480E+03  0.45314629222E+03 0.  0.
      99925    2    3    3    0    0 -0.11130098203E+03 -0.10448143084E+01 -0.25773331514E+03  0.38468635738E+03  0.26299834900E+03 0.  0.
         25    1    3    3    0    0  0.11130098203E+03  0.10448143084E+01 -0.16218785449E+03  0.23311243743E+03  0.12509000000E+03 0.  0.
         25    1    4    4    0    0 -0.95608992584E+02 -0.13865162061E+02 -0.12859176551E+03  0.20375640465E+03  0.12509000000E+03 0.  0.
         25    1    4    4    0    0 -0.15691989449E+02  0.12820347752E+02 -0.12914154964E+03  0.18092995272E+03  0.12509000000E+03 0.  0.
<mgrwt>
<rscale>  2 0.45314629E+03</rscale>
<asrwt>0</asrwt>
<pdfrwt beam="1">  1       21 0.14549825E-01 0.45314629E+03</pdfrwt>
<pdfrwt beam="2">  1       21 0.76302938E-01 0.45314629E+03</pdfrwt>
<totfact> 0.58446763E+04</totfact>
</mgrwt>
</event>
<event>
 7    0  0.4793433E-002  0.4601214E+03  0.7546771E-02  0.1024746E+00
         21   -1    0    0  502  501  0.00000000000E+00  0.00000000000E+00  0.19285615924E+04  0.19285615924E+04  0.00000000000E+00 0. -1.
         21   -1    0    0  501  502 -0.00000000000E+00 -0.00000000000E+00 -0.27444254937E+02  0.27444254937E+02  0.00000000000E+00 0. -1.
      99926    2    1    2    0    0  0.00000000000E+00  0.35527136788E-14  0.19011173374E+04  0.19560058473E+04  0.46012144485E+03 0.  0.
      99925    2    3    3    0    0  0.67616491954E+02 -0.21822550877E+02  0.78356409205E+03  0.82923125669E+03  0.26192284551E+03 0.  0.
         25    1    4    4    0    0  0.32416355384E+02  0.27431862648E+02  0.36183846732E+03  0.38519853546E+03  0.12509000000E+03 0.  0.
         25    1    3    3    0    0 -0.67616491954E+02  0.21822550877E+02  0.11175532454E+04  0.11267745906E+04  0.12509000000E+03 0.  0.
         25    1    4    4    0    0  0.35200136569E+02 -0.49254413525E+02  0.42172562473E+03  0.44403272123E+03  0.12509000000E+03 0.  0.
<mgrwt>
<rscale>  2 0.46012144E+03</rscale>
<asrwt>0</asrwt>
<pdfrwt beam="1">  1       21 0.28361191E+00 0.46012144E+03</pdfrwt>
<pdfrwt beam="2">  1       21 0.40359212E-02 0.46012144E+03</pdfrwt>
<totfact> 0.13881691E+04</totfact>
</mgrwt>
</event>
<event>
 7    0  0.4793433E-002  0.4599651E+03  0.7546771E-02  0.1024791E+00
         21   -1    0    0  502  501  0.00000000000E+00  0.00000000000E+00  0.23509488880E+02  0.23509488880E+02  0.00000000000E+00 0. -1.
         21   -1    0    0  501  502 -0.00000000000E+00 -0.00000000000E+00 -0.22498133679E+04  0.22498133679E+04  0.00000000000E+00 0. -1.
      99926    2    1    2    0    0 -0.88817841970E-15  0.00000000000E+00 -0.22263038790E+04  0.22733228568E+04  0.45996505239E+03 0.  0.
      99925    2    3    3    0    0 -0.70402017623E+01  0.86180572005E+02 -0.10011590522E+04  0.10387767822E+04  0.26317503689E+03 0.  0.
         25    1    4    4    0    0 -0.20776174460E+02  0.81352801285E+02 -0.51655225336E+03  0.53807403417E+03  0.12509000000E+03 0.  0.
         25    1    4    4    0    0  0.13735972698E+02  0.48277707194E+01 -0.48460679885E+03  0.50070274805E+03  0.12509000000E+03 0.  0.
         25    1    3    3    0    0  0.70402017623E+01 -0.86180572005E+02 -0.12251448268E+04  0.12345460745E+04  0.12509000000E+03 0.  0.
<mgrwt>
<rscale>  2 0.45996505E+03</rscale>
<asrwt>0</asrwt>
<pdfrwt beam="1">  1       21 0.34572796E-02 0.45996505E+03</pdfrwt>
<pdfrwt beam="2">  1       21 0.33085473E+00 0.45996505E+03</pdfrwt>
<totfact> 0.93717580E+03</totfact>
</mgrwt>
</event>
<event>
 7    0  0.4793433E-002  0.4487002E+03  0.7546771E-02  0.1028110E+00
         21   -1    0    0  502  501  0.00000000000E+00  0.00000000000E+00  0.67307571791E+03  0.67307571791E+03  0.00000000000E+00 0. -1.
         21   -1    0    0  501  502 -0.00000000000E+00 -0.00000000000E+00 -0.74780534293E+02  0.74780534293E+02  0.00000000000E+00 0. -1.
      99926    2    1    2    0    0  0.00000000000E+00  0.00000000000E+00  0.59829518361E+03  0.74785625220E+03  0.44870017519E+03 0.  0.
      99925    2    3    3    0    0  0.10492331897E+02 -0.13161028935E+02  0.55489435642E+03  0.61438550030E+03  0.26320808211E+03 0.  0.
         25    1    3    3    0    0 -0.10492331897E+02  0.13161028935E+02  0.43400827199E+02  0.13347075190E+03  0.12509000000E+03 0.  0.
         25    1    4    4    0    0  0.37356871039E+02  0.18716610428E+02  0.27506499283E+03  0.30504771053E+03  0.12509000000E+03 0.  0.
         25    1    4    4    0    0 -0.26864539142E+02 -0.31877639363E+02  0.27982936359E+03  0.30933778977E+03  0.12509000000E+03 0.  0.
<mgrwt>
<rscale>  2 0.44870018E+03</rscale>
<asrwt>0</asrwt>
<pdfrwt beam="1">  1       21 0.98981720E-01 0.44870018E+03</pdfrwt>
<pdfrwt beam="2">  1       21 0.10997138E-01 0.44870018E+03</pdfrwt>
<totfact> 0.52954245E+04</totfact>
</mgrwt>
</event>
<event>
 7    0  0.4793433E-002  0.4489603E+03  0.7546771E-02  0.1028033E+00
         21   -1    0    0  502  501  0.00000000000E+00  0.00000000000E+00  0.28242587367E+03  0.28242587367E+03  0.00000000000E+00 0. -1.
         21   -1    0    0  501  502 -0.00000000000E+00 -0.00000000000E+00 -0.17842325967E+03  0.17842325967E+03  0.00000000000E+00 0. -1.
      99926    2    1    2    0    0  0.00000000000E+00  0.14210854715E-13  0.10400261400E+03  0.46084913334E+03  0.44896033231E+03 0.  0.
      99925    2    3    3    0    0 -0.43281298494E+02  0.64897628948E+02 -0.10778968036E+02  0.27401419893E+03  0.26245499047E+03 0.  0.
         25    1    4    4    0    0 -0.54117701101E+02  0.57278523723E+02 -0.99321288494E+00  0.14784468007E+03  0.12509000000E+03 0.  0.
         25    1    3    3    0    0  0.43281298494E+02 -0.64897628948E+02  0.11478158204E+03  0.18683493442E+03  0.12509000000E+03 0.  0.
         25    1    4    4    0    0  0.10836402608E+02  0.76191052256E+01 -0.97857551507E+01  0.12616951886E+03  0.12509000000E+03 0.  0.
<mgrwt>
<rscale>  2 0.44896033E+03</rscale>
<asrwt>0</asrwt>
<pdfrwt beam="1">  1       21 0.41533217E-01 0.44896033E+03</pdfrwt>
<pdfrwt beam="2">  1       21 0.26238715E-01 0.44896033E+03</pdfrwt>
<totfact> 0.71486484E+04</totfact>
</mgrwt>
</event>
<event>
 7    0  0.4793433E-002  0.4547886E+03  0.7546771E-02  0.1026304E+00
         21   -1    0    0  502  501  0.00000000000E+00  0.00000000000E+00  0.33922689415E+02  0.33922689415E+02  0.00000000000E+00 0. -1.
         21   -1    0    0  501  502 -0.00000000000E+00 -0.00000000000E+00 -0.15242944859E+04  0.15242944859E+04  0.00000000000E+00 0. -1.
      99926    2    1    2    0    0  0.00000000000E+00  0.00000000000E+00 -0.14903717965E+04  0.15582171754E+04  0.45478860330E+03 0.  0.
      99925    2    3    3    0    0 -0.68976835571E+02 -0.52217953307E+02 -0.11870301021E+04  0.12188822226E+04  0.26296176672E+03 0.  0.
         25    1    4    4    0    0 -0.63104773068E+02 -0.43014722554E+02 -0.52624408458E+03  0.54627174867E+03  0.12509000000E+03 0.  0.
         25    1    3    3    0    0  0.68976835571E+02  0.52217953307E+02 -0.30334169444E+03  0.33933495278E+03  0.12509000000E+03 0.  0.
         25    1    4    4    0    0 -0.58720625031E+01 -0.92032307522E+01 -0.66078601750E+03  0.67261047390E+03  0.12509000000E+03 0.  0.
<mgrwt>
<rscale>  2 0.45478860E+03</rscale>
<asrwt>0</asrwt>
<pdfrwt beam="1">  1       21 0.49886311E-02 0.45478860E+03</pdfrwt>
<pdfrwt beam="2">  1       21 0.22416094E+00 0.45478860E+03</pdfrwt>
<totfact> 0.22424526E+04</totfact>
</mgrwt>
</event>
<event>
 7    0  0.4793433E-002  0.4553543E+03  0.7546771E-02  0.1026137E+00
         21   -1    0    0  502  501  0.00000000000E+00  0.00000000000E+00  0.45299973895E+03  0.45299973895E+03  0.00000000000E+00 0. -1.
         21   -1    0    0  501  502 -0.00000000000E+00 -0.00000000000E+00 -0.11443029925E+03  0.11443029925E+03  0.00000000000E+00 0. -1.
      99926    2    1    2    0    0 -0.17763568394E-14 -0.14210854715E-13  0.33856943970E+03  0.56743003820E+03  0.45535434856E+03 0.  0.
      99925    2    3    3    0    0 -0.12729732108E+02 -0.11259766639E+03  0.20574050142E+03  0.35264801962E+03  0.26304218533E+03 0.  0.
         25    1    4    4    0    0 -0.34478797066E+02 -0.32262222524E+02  0.11999422532E+03  0.17965455925E+03  0.12509000000E+03 0.  0.
         25    1    4    4    0    0  0.21749064958E+02 -0.80335443869E+02  0.85746276100E+02  0.17299346038E+03  0.12509000000E+03 0.  0.
         25    1    3    3    0    0  0.12729732108E+02  0.11259766639E+03  0.13282893829E+03  0.21478201858E+03  0.12509000000E+03 0.  0.
<mgrwt>
<rscale>  2 0.45535435E+03</rscale>
<asrwt>0</asrwt>
<pdfrwt beam="1">  1       21 0.66617608E-01 0.45535435E+03</pdfrwt>
<pdfrwt beam="2">  1       21 0.16827985E-01 0.45535435E+03</pdfrwt>
<totfact> 0.60559318E+04</totfact>
</mgrwt>
</event>
<event>
 7    0  0.4793433E-002  0.4608353E+03  0.7546771E-02  0.1024539E+00
         21   -1    0    0  502  501  0.00000000000E+00  0.00000000000E+00  0.12895970852E+03  0.12895970852E+03  0.00000000000E+00 0.  1.
         21   -1    0    0  501  502 -0.00000000000E+00 -0.00000000000E+00 -0.41169680857E+03  0.41169680857E+03  0.00000000000E+00 0.  1.
      99926    2    1    2    0    0 -0.35527136788E-14 -0.66613381478E-15 -0.28273710004E+03  0.54065651709E+03  0.46083533039E+03 0.  0.
      99925    2    3    3    0    0  0.30451447354E+02  0.12607517964E+01 -0.31161241674E+03  0.40870890569E+03  0.26270095390E+03 0.  0.
         25    1    4    4    0    0 -0.43073537903E+01  0.88394671694E+01 -0.10053517432E+03  0.16078407524E+03  0.12509000000E+03 0.  0.
         25    1    4    4    0    0  0.34758801144E+02 -0.75787153730E+01 -0.21107724242E+03  0.24792483044E+03  0.12509000000E+03 0.  0.
         25    1    3    3    0    0 -0.30451447354E+02 -0.12607517964E+01  0.28875316695E+02  0.13194761140E+03  0.12509000000E+03 0.  0.
<mgrwt>
<rscale>  2 0.46083533E+03</rscale>
<asrwt>0</asrwt>
<pdfrwt beam="1">  1       21 0.18964663E-01 0.46083533E+03</pdfrwt>
<pdfrwt beam="2">  1       21 0.60543648E-01 0.46083533E+03</pdfrwt>
<totfact> 0.59682756E+04</totfact>
</mgrwt>
</event>
<event>
 7    0  0.4793433E-002  0.4564904E+03  0.7546771E-02  0.1025804E+00
         21   -1    0    0  502  501  0.00000000000E+00  0.00000000000E+00  0.42444413197E+02  0.42444413197E+02  0.00000000000E+00 0.  1.
         21   -1    0    0  501  502 -0.00000000000E+00 -0.00000000000E+00 -0.12273903019E+04  0.12273903019E+04  0.00000000000E+00 0.  1.
      99926    2    1    2    0    0  0.00000000000E+00  0.00000000000E+00 -0.11849458888E+04  0.12698347151E+04  0.45649035534E+03 0.  0.
      99925    2    3    3    0    0 -0.20848173059E+02  0.10725227427E+03 -0.64971846978E+03  0.70942986615E+03  0.26309494172E+03 0.  0.
         25    1    4    4    0    0 -0.64331072741E+01  0.28612281155E+02 -0.38567856169E+03  0.40651630785E+03  0.12509000000E+03 0.  0.
         25    1    4    4    0    0 -0.14415065784E+02  0.78639993115E+02 -0.26403990809E+03  0.30291355830E+03  0.12509000000E+03 0.  0.
         25    1    3    3    0    0  0.20848173059E+02 -0.10725227427E+03 -0.53522741897E+03  0.56040484900E+03  0.12509000000E+03 0.  0.
<mgrwt>
<rscale>  2 0.45649036E+03</rscale>
<asrwt>0</asrwt>
<pdfrwt beam="1">  1       21 0.62418257E-02 0.45649036E+03</pdfrwt>
<pdfrwt beam="2">  1       21 0.18049857E+00 0.45649036E+03</pdfrwt>
<totfact> 0.29658002E+04</totfact>
</mgrwt>
</event>
<event>
 7    0  0.4793433E-002  0.4556991E+03  0.7546771E-02  0.1026036E+00
         21   -1    0    0  502  501  0.00000000000E+00  0.00000000000E+00  0.12143735627E+04  0.12143735627E+04  0.00000000000E+00 0. -1.
         21   -1    0    0  501  502 -0.00000000000E+00 -0.00000000000E+00 -0.42750771871E+02  0.42750771871E+02  0.00000000000E+00 0. -1.
      99926    2    1    2    0    0  0.00000000000E+00  0.00000000000E+00  0.11716227909E+04  0.12571243346E+04  0.45569905485E+03 0.  0.
      99925    2    3    3    0    0  0.20938579280E+02  0.11059057312E+03  0.78411647524E+03  0.83465853514E+03  0.26295916904E+03 0.  0.
         25    1    4    4    0    0 -0.41166097455E+01  0.58027729533E+02  0.50195437334E+03  0.52056686879E+03  0.12509000000E+03 0.  0.
         25    1    3    3    0    0 -0.20938579280E+02 -0.11059057312E+03  0.38750631563E+03  0.42246579946E+03  0.12509000000E+03 0.  0.
         25    1    4    4    0    0  0.25055189025E+02  0.52562843589E+02  0.28216210190E+03  0.31409166635E+03  0.12509000000E+03 0.  0.
<mgrwt>
<rscale>  2 0.45569905E+03</rscale>
<asrwt>0</asrwt>
<pdfrwt beam="1">  1       21 0.17858432E+00 0.45569905E+03</pdfrwt>
<pdfrwt beam="2">  1       21 0.62868790E-02 0.45569905E+03</pdfrwt>
<totfact> 0.30220969E+04</totfact>
</mgrwt>
</event>
<event>
 7    0  0.4793433E-002  0.4524559E+03  0.7546771E-02  0.1026992E+00
         21   -1    0    0  502  501  0.00000000000E+00  0.00000000000E+00  0.28319330982E+03  0.28319330982E+03  0.00000000000E+00 0. -1.
         21   -1    0    0  501  502 -0.00000000000E+00 -0.00000000000E+00 -0.18072136085E+03  0.18072136085E+03  0.00000000000E+00 0. -1.
      99926    2    1    2    0    0  0.00000000000E+00  0.00000000000E+00  0.10247194897E+03  0.46391467067E+03  0.45245587778E+03 0.  0.
      99925    2    3    3    0    0  0.13411993383E+02  0.10722089132E+03  0.89574846984E+02  0.29811345100E+03  0.26300527629E+03 0.  0.
         25    1    4    4    0    0 -0.44157394945E+00  0.58448219567E+02  0.36712859368E+01  0.13812087387E+03  0.12509000000E+03 0.  0.
         25    1    3    3    0    0 -0.13411993383E+02 -0.10722089132E+03  0.12897101986E+02  0.16580121966E+03  0.12509000000E+03 0.  0.
         25    1    4    4    0    0  0.13853567332E+02  0.48772671753E+02  0.85903561047E+02  0.15999257713E+03  0.12509000000E+03 0.  0.
<mgrwt>
<rscale>  2 0.45245588E+03</rscale>
<asrwt>0</asrwt>
<pdfrwt beam="1">  1       21 0.41646075E-01 0.45245588E+03</pdfrwt>
<pdfrwt beam="2">  1       21 0.26576671E-01 0.45245588E+03</pdfrwt>
<totfact> 0.69278904E+04</totfact>
</mgrwt>
</event>
<event>
 7    0  0.4793433E-002  0.4513087E+03  0.7546771E-02  0.1027333E+00
         21   -1    0    0  502  501  0.00000000000E+00  0.00000000000E+00  0.80887332593E+03  0.80887332593E+03  0.00000000000E+00 0. -1.
         21   -1    0    0  501  502 -0.00000000000E+00 -0.00000000000E+00 -0.62951612035E+02  0.62951612035E+02  0.00000000000E+00 0. -1.
      99926    2    1    2    0    0  0.00000000000E+00  0.71054273576E-14  0.74592171389E+03  0.87182493796E+03  0.45130867396E+03 0.  0.
      99925    2    3    3    0    0  0.84329099278E+02 -0.62289189338E+02  0.40973836055E+03  0.49811636801E+03  0.26314074537E+03 0.  0.
         25    1    4    4    0    0  0.67424046235E+02 -0.35961608648E+02  0.27495326667E+03  0.31158633837E+03  0.12509000000E+03 0.  0.
         25    1    4    4    0    0  0.16905053043E+02 -0.26327580690E+02  0.13478509388E+03  0.18653002964E+03  0.12509000000E+03 0.  0.
         25    1    3    3    0    0 -0.84329099278E+02  0.62289189338E+02  0.33618335335E+03  0.37370856996E+03  0.12509000000E+03 0.  0.
<mgrwt>
<rscale>  2 0.45130867E+03</rscale>
<asrwt>0</asrwt>
<pdfrwt beam="1">  1       21 0.11895195E+00 0.45130867E+03</pdfrwt>
<pdfrwt beam="2">  1       21 0.92575905E-02 0.45130867E+03</pdfrwt>
<totfact> 0.45783838E+04</totfact>
</mgrwt>
</event>
<event>
 7    0  0.4793433E-002  0.4466767E+03  0.7546771E-02  0.1028718E+00
         21   -1    0    0  502  501  0.00000000000E+00  0.00000000000E+00  0.22589218758E+04  0.22589218758E+04  0.00000000000E+00 0. -1.
         21   -1    0    0  501  502 -0.00000000000E+00 -0.00000000000E+00 -0.22081342137E+02  0.22081342137E+02  0.00000000000E+00 0. -1.
      99926    2    1    2    0    0 -0.44408920985E-14  0.00000000000E+00  0.22368405337E+04  0.22810032180E+04  0.44667673681E+03 0.  0.
      99925    2    3    3    0    0  0.75115957985E+01 -0.51878811819E+02  0.18842078539E+04  0.19031869264E+04  0.26293232035E+03 0.  0.
         25    1    4    4    0    0 -0.32924496110E+02 -0.16096757595E+02  0.82057655796E+03  0.83086492501E+03  0.12509000000E+03 0.  0.
         25    1    4    4    0    0  0.40436091908E+02 -0.35782054224E+02  0.10636312959E+04  0.10723220014E+04  0.12509000000E+03 0.  0.
         25    1    3    3    0    0 -0.75115957985E+01  0.51878811819E+02  0.35263267983E+03  0.37781629156E+03  0.12509000000E+03 0.  0.
<mgrwt>
<rscale>  2 0.44667674E+03</rscale>
<asrwt>0</asrwt>
<pdfrwt beam="1">  1       21 0.33219423E+00 0.44667674E+03</pdfrwt>
<pdfrwt beam="2">  1       21 0.32472578E-02 0.44667674E+03</pdfrwt>
<totfact> 0.10289922E+04</totfact>
</mgrwt>
</event>
<event>
 7    0  0.4793433E-002  0.4627153E+03  0.7546771E-02  0.1023997E+00
         21   -1    0    0  502  501  0.00000000000E+00  0.00000000000E+00  0.76792490823E+03  0.76792490823E+03  0.00000000000E+00 0.  1.
         21   -1    0    0  501  502 -0.00000000000E+00 -0.00000000000E+00 -0.69702605123E+02  0.69702605123E+02  0.00000000000E+00 0.  1.
      99926    2    1    2    0    0  0.00000000000E+00  0.00000000000E+00  0.69822230311E+03  0.83762751335E+03  0.46271531914E+03 0.  0.
      99925    2    3    3    0    0  0.75065738532E+02  0.37490670762E+02  0.59235239987E+03  0.65351787208E+03  0.26299016714E+03 0.  0.
         25    1    4    4    0    0  0.18846059990E+02  0.15743605023E+02  0.19853736614E+03  0.23593988414E+03  0.12509000000E+03 0.  0.
         25    1    3    3    0    0 -0.75065738532E+02 -0.37490670762E+02  0.10586990324E+03  0.18410964127E+03  0.12509000000E+03 0.  0.
         25    1    4    4    0    0  0.56219678543E+02  0.21747065740E+02  0.39381503373E+03  0.41757798794E+03  0.12509000000E+03 0.  0.
<mgrwt>
<rscale>  2 0.46271532E+03</rscale>
<asrwt>0</asrwt>
<pdfrwt beam="1">  1       21 0.11293013E+00 0.46271532E+03</pdfrwt>
<pdfrwt beam="2">  1       21 0.10250384E-01 0.46271532E+03</pdfrwt>
<totfact> 0.43315900E+04</totfact>
</mgrwt>
</event>
<event>
 7    0  0.4793433E-002  0.4537328E+03  0.7546771E-02  0.1026615E+00
         21   -1    0    0  502  501  0.00000000000E+00  0.00000000000E+00  0.15984772127E+04  0.15984772127E+04  0.00000000000E+00 0. -1.
         21   -1    0    0  501  502 -0.00000000000E+00 -0.00000000000E+00 -0.32198365755E+02  0.32198365755E+02  0.00000000000E+00 0. -1.
      99926    2    1    2    0    0  0.00000000000E+00  0.14210854715E-13  0.15662788469E+04  0.16306755784E+04  0.45373275811E+03 0.  0.
      99925    2    3    3    0    0 -0.17178048590E+02 -0.87397056209E+02  0.12303816860E+04  0.12613413915E+04  0.26307733084E+03 0.  0.
         25    1    3    3    0    0  0.17178048590E+02  0.87397056209E+02  0.33589716096E+03  0.36933418692E+03  0.12509000000E+03 0.  0.
         25    1    4    4    0    0 -0.16302822233E+02 -0.16116614663E+02  0.71524265373E+03  0.72646065902E+03  0.12509000000E+03 0.  0.
         25    1    4    4    0    0 -0.87522635737E+00 -0.71280441546E+02  0.51513903223E+03  0.53488073249E+03  0.12509000000E+03 0.  0.
<mgrwt>
<rscale>  2 0.45373276E+03</rscale>
<asrwt>0</asrwt>
<pdfrwt beam="1">  1       21 0.23507013E+00 0.45373276E+03</pdfrwt>
<pdfrwt beam="2">  1       21 0.47350549E-02 0.45373276E+03</pdfrwt>
<totfact> 0.20950770E+04</totfact>
</mgrwt>
</event>
<event>
 7    0  0.4793433E-002  0.4610920E+03  0.7546771E-02  0.1024465E+00
         21   -1    0    0  502  501  0.00000000000E+00  0.00000000000E+00  0.11545462612E+04  0.11545462612E+04  0.00000000000E+00 0. -1.
         21   -1    0    0  501  502 -0.00000000000E+00 -0.00000000000E+00 -0.46036656842E+02  0.46036656842E+02  0.00000000000E+00 0. -1.
      99926    2    1    2    0    0  0.00000000000E+00  0.71054273576E-14  0.11085096043E+04  0.12005829180E+04  0.46109196494E+03 0.  0.
      99925    2    3    3    0    0  0.10098638065E+03 -0.44901008473E+02  0.80713235318E+03  0.85606861460E+03  0.26301423483E+03 0.  0.
         25    1    4    4    0    0  0.51725035253E+02  0.14569014070E+02  0.33602246613E+03  0.36255529411E+03  0.12509000000E+03 0.  0.
         25    1    4    4    0    0  0.49261345401E+02 -0.59470022543E+02  0.47110988704E+03  0.49351332049E+03  0.12509000000E+03 0.  0.
         25    1    3    3    0    0 -0.10098638065E+03  0.44901008473E+02  0.30137725114E+03  0.34451430339E+03  0.12509000000E+03 0.  0.
<mgrwt>
<rscale>  2 0.46109196E+03</rscale>
<asrwt>0</asrwt>
<pdfrwt beam="1">  1       21 0.16978620E+00 0.46109196E+03</pdfrwt>
<pdfrwt beam="2">  1       21 0.67700973E-02 0.46109196E+03</pdfrwt>
<totfact> 0.30656595E+04</totfact>
</mgrwt>
</event>
<event>
 7    0  0.4793433E-002  0.4546567E+03  0.7546771E-02  0.1026342E+00
         21   -1    0    0  502  501  0.00000000000E+00  0.00000000000E+00  0.70441767720E+03  0.70441767720E+03  0.00000000000E+00 0.  1.
         21   -1    0    0  501  502 -0.00000000000E+00 -0.00000000000E+00 -0.73362963286E+02  0.73362963286E+02  0.00000000000E+00 0.  1.
      99926    2    1    2    0    0  0.00000000000E+00  0.00000000000E+00  0.63105471391E+03  0.77778064048E+03  0.45465665371E+03 0.  0.
      99925    2    3    3    0    0  0.72070492492E+02 -0.61066897912E+02  0.50101315290E+03  0.57411022633E+03  0.26394137739E+03 0.  0.
         25    1    4    4    0    0 -0.64499890874E+01 -0.24382474990E+02  0.24647888158E+03  0.27755261593E+03  0.12509000000E+03 0.  0.
         25    1    3    3    0    0 -0.72070492492E+02  0.61066897912E+02  0.13004156101E+03  0.20367041415E+03  0.12509000000E+03 0.  0.
         25    1    4    4    0    0  0.78520481580E+02 -0.36684422922E+02  0.25453427132E+03  0.29655761040E+03  0.12509000000E+03 0.  0.
<mgrwt>
<rscale>  2 0.45465665E+03</rscale>
<asrwt>0</asrwt>
<pdfrwt beam="1">  1       21 0.10359083E+00 0.45465665E+03</pdfrwt>
<pdfrwt beam="2">  1       21 0.10788671E-01 0.45465665E+03</pdfrwt>
<totfact> 0.48990243E+04</totfact>
</mgrwt>
</event>
<event>
 7    0  0.4793433E-002  0.4530055E+03  0.7546771E-02  0.1026830E+00
         21   -1    0    0  502  501  0.00000000000E+00  0.00000000000E+00  0.16393352177E+03  0.16393352177E+03  0.00000000000E+00 0.  1.
         21   -1    0    0  501  502 -0.00000000000E+00 -0.00000000000E+00 -0.31295304619E+03  0.31295304619E+03  0.00000000000E+00 0.  1.
      99926    2    1    2    0    0 -0.26645352591E-14  0.00000000000E+00 -0.14901952442E+03  0.47688656796E+03  0.45300549671E+03 0.  0.
      99925    2    3    3    0    0  0.69752843748E+01 -0.41795681312E+02  0.14537891615E+02  0.26666271107E+03  0.26287281642E+03 0.  0.
         25    1    3    3    0    0 -0.69752843748E+01  0.41795681312E+02 -0.16355741603E+03  0.21022385689E+03  0.12509000000E+03 0.  0.
         25    1    4    4    0    0 -0.31622976810E+02 -0.33793805109E+02  0.22523522829E+02  0.13526585344E+03  0.12509000000E+03 0.  0.
         25    1    4    4    0    0  0.38598261185E+02 -0.80018762033E+01 -0.79856312133E+01  0.13139685763E+03  0.12509000000E+03 0.  0.
<mgrwt>
<rscale>  2 0.45300550E+03</rscale>
<asrwt>0</asrwt>
<pdfrwt beam="1">  1       21 0.24107871E-01 0.45300550E+03</pdfrwt>
<pdfrwt beam="2">  1       21 0.46022506E-01 0.45300550E+03</pdfrwt>
<totfact> 0.67997490E+04</totfact>
</mgrwt>
</event>
<event>
 7    0  0.4793433E-002  0.4514556E+03  0.7546771E-02  0.1027289E+00
         21   -1    0    0  502  501  0.00000000000E+00  0.00000000000E+00  0.67216774938E+03  0.67216774938E+03  0.00000000000E+00 0.  1.
         21   -1    0    0  501  502 -0.00000000000E+00 -0.00000000000E+00 -0.75804036248E+02  0.75804036248E+02  0.00000000000E+00 0.  1.
      99926    2    1    2    0    0  0.00000000000E+00  0.00000000000E+00  0.59636371313E+03  0.74797178563E+03  0.45145555014E+03 0.  0.
      99925    2    3    3    0    0  0.65444819947E+02  0.33589813165E+02  0.24122499910E+03  0.36432831271E+03  0.26293405874E+03 0.  0.
         25    1    4    4    0    0  0.48944198621E+02 -0.81521308073E+01  0.15791020393E+03  0.20747320892E+03  0.12509000000E+03 0.  0.
         25    1    4    4    0    0  0.16500621326E+02  0.41741943972E+02  0.83314795174E+02  0.15685510379E+03  0.12509000000E+03 0.  0.
         25    1    3    3    0    0 -0.65444819947E+02 -0.33589813165E+02  0.35513871404E+03  0.38364347292E+03  0.12509000000E+03 0.  0.
<mgrwt>
<rscale>  2 0.45145555E+03</rscale>
<asrwt>0</asrwt>
<pdfrwt beam="1">  1       21 0.98848195E-01 0.45145555E+03</pdfrwt>
<pdfrwt beam="2">  1       21 0.11147653E-01 0.45145555E+03</pdfrwt>
<totfact> 0.51802726E+04</totfact>
</mgrwt>
</event>
<event>
 7    0  0.4793433E-002  0.4582211E+03  0.7546771E-02  0.1025298E+00
         21   -1    0    0  502  501  0.00000000000E+00  0.00000000000E+00  0.50296223162E+02  0.50296223162E+02  0.00000000000E+00 0. -1.
         21   -1    0    0  501  502 -0.00000000000E+00 -0.00000000000E+00 -0.10436497697E+04  0.10436497697E+04  0.00000000000E+00 0. -1.
      99926    2    1    2    0    0  0.00000000000E+00 -0.14210854715E-13 -0.99335354657E+03  0.10939459929E+04  0.45822108953E+03 0.  0.
      99925    2    3    3    0    0  0.57822804791E+02  0.90176926916E+02 -0.73492463206E+03  0.78750127217E+03  0.26185622767E+03 0.  0.
         25    1    4    4    0    0 -0.13766139116E+01  0.22940942708E+02 -0.28796206194E+03  0.31479809265E+03  0.12509000000E+03 0.  0.
         25    1    3    3    0    0 -0.57822804791E+02 -0.90176926916E+02 -0.25842891452E+03  0.30644472072E+03  0.12509000000E+03 0.  0.
         25    1    4    4    0    0  0.59199418702E+02  0.67235984208E+02 -0.44696257012E+03  0.47270317952E+03  0.12509000000E+03 0.  0.
<mgrwt>
<rscale>  2 0.45822109E+03</rscale>
<asrwt>0</asrwt>
<pdfrwt beam="1">  1       21 0.73965027E-02 0.45822109E+03</pdfrwt>
<pdfrwt beam="2">  1       21 0.15347792E+00 0.45822109E+03</pdfrwt>
<totfact> 0.34821576E+04</totfact>
</mgrwt>
</event>
<event>
 7    0  0.4793433E-002  0.4521849E+03  0.7546771E-02  0.1027072E+00
         21   -1    0    0  502  501  0.00000000000E+00  0.00000000000E+00  0.14318716396E+03  0.14318716396E+03  0.00000000000E+00 0. -1.
         21   -1    0    0  501  502 -0.00000000000E+00 -0.00000000000E+00 -0.35699992785E+03  0.35699992785E+03  0.00000000000E+00 0. -1.
      99926    2    1    2    0    0  0.35527136788E-14 -0.71054273576E-14 -0.21381276389E+03  0.50018709180E+03  0.45218494978E+03 0.  0.
      99925    2    3    3    0    0  0.21500538062E+02 -0.55082352714E+02 -0.23815582930E+03  0.35970068089E+03  0.26300198115E+03 0.  0.
         25    1    4    4    0    0  0.38140307404E+01 -0.48119723463E+02 -0.76336283820E+02  0.15428801296E+03  0.12509000000E+03 0.  0.
         25    1    3    3    0    0 -0.21500538062E+02  0.55082352714E+02  0.24343065405E+02  0.14048641091E+03  0.12509000000E+03 0.  0.
         25    1    4    4    0    0  0.17686507322E+02 -0.69626292517E+01 -0.16181954548E+03  0.20541266793E+03  0.12509000000E+03 0.  0.
<mgrwt>
<rscale>  2 0.45218495E+03</rscale>
<asrwt>0</asrwt>
<pdfrwt beam="1">  1       21 0.21056936E-01 0.45218495E+03</pdfrwt>
<pdfrwt beam="2">  1       21 0.52499989E-01 0.45218495E+03</pdfrwt>
<totfact> 0.66736344E+04</totfact>
</mgrwt>
</event>
<event>
 7    0  0.4793433E-002  0.4556245E+03  0.7546771E-02  0.1026058E+00
         21   -1    0    0  502  501  0.00000000000E+00  0.00000000000E+00  0.21610181433E+03  0.21610181433E+03  0.00000000000E+00 0.  1.
         21   -1    0    0  501  502 -0.00000000000E+00 -0.00000000000E+00 -0.24015727174E+03  0.24015727174E+03  0.00000000000E+00 0.  1.
      99926    2    1    2    0    0  0.00000000000E+00 -0.71054273576E-14 -0.24055457415E+02  0.45625908607E+03  0.45562450394E+03 0.  0.
      99925    2    3    3    0    0  0.92347392064E+02  0.60345682661E+02 -0.42613447035E+02  0.28844505413E+03  0.26308744012E+03 0.  0.
         25    1    4    4    0    0  0.36052685690E+02  0.69916547876E+02 -0.22836597416E+02  0.14952303533E+03  0.12509000000E+03 0.  0.
         25    1    3    3    0    0 -0.92347392064E+02 -0.60345682661E+02  0.18557989620E+02  0.16781403194E+03  0.12509000000E+03 0.  0.
         25    1    4    4    0    0  0.56294706374E+02 -0.95708652155E+01 -0.19776849620E+02  0.13892201880E+03  0.12509000000E+03 0.  0.
<mgrwt>
<rscale>  2 0.45562450E+03</rscale>
<asrwt>0</asrwt>
<pdfrwt beam="1">  1       21 0.31779679E-01 0.45562450E+03</pdfrwt>
<pdfrwt beam="2">  1       21 0.35317246E-01 0.45562450E+03</pdfrwt>
<totfact> 0.68113649E+04</totfact>
</mgrwt>
</event>
<event>
 7    0  0.4793433E-002  0.4523028E+03  0.7546771E-02  0.1027038E+00
         21   -1    0    0  502  501  0.00000000000E+00  0.00000000000E+00  0.99930214731E+02  0.99930214731E+02  0.00000000000E+00 0.  1.
         21   -1    0    0  501  502 -0.00000000000E+00 -0.00000000000E+00 -0.51180171485E+03  0.51180171485E+03  0.00000000000E+00 0.  1.
      99926    2    1    2    0    0  0.14210854715E-13  0.17763568394E-14 -0.41187150012E+03  0.61173192958E+03  0.45230279798E+03 0.  0.
      99925    2    3    3    0    0  0.10249772120E+03  0.10648272561E+02 -0.31444722454E+03  0.42263363204E+03  0.26291245948E+03 0.  0.
         25    1    3    3    0    0 -0.10249772120E+03 -0.10648272561E+02 -0.97424275581E+02  0.18909829754E+03  0.12509000000E+03 0.  0.
         25    1    4    4    0    0  0.90880673257E+02  0.47203908566E+00 -0.14981793361E+03  0.21529617025E+03  0.12509000000E+03 0.  0.
         25    1    4    4    0    0  0.11617047945E+02  0.10176233476E+02 -0.16462929093E+03  0.20733746179E+03  0.12509000000E+03 0.  0.
<mgrwt>
<rscale>  2 0.45230280E+03</rscale>
<asrwt>0</asrwt>
<pdfrwt beam="1">  1       21 0.14695620E-01 0.45230280E+03</pdfrwt>
<pdfrwt beam="2">  1       21 0.75264956E-01 0.45230280E+03</pdfrwt>
<totfact> 0.59213297E+04</totfact>
</mgrwt>
</event>
<event>
 7    0  0.4793433E-002  0.4584103E+03  0.7546771E-02  0.1025243E+00
         21   -1    0    0  502  501  0.00000000000E+00  0.00000000000E+00  0.11555016944E+03  0.11555016944E+03  0.00000000000E+00 0.  1.
         21   -1    0    0  501  502 -0.00000000000E+00 -0.00000000000E+00 -0.45465093329E+03  0.45465093329E+03  0.00000000000E+00 0.  1.
      99926    2    1    2    0    0  0.00000000000E+00  0.00000000000E+00 -0.33910076385E+03  0.57020110273E+03  0.45841026332E+03 0.  0.
      99925    2    3    3    0    0 -0.75776633273E+02 -0.85313715306E+02 -0.18411720875E+03  0.34066256867E+03  0.26292833808E+03 0.  0.
         25    1    4    4    0    0 -0.66279264442E+02 -0.19063475665E+02 -0.11200202259E+03  0.18151671594E+03  0.12509000000E+03 0.  0.
         25    1    4    4    0    0 -0.94973688305E+01 -0.66250239641E+02 -0.72115186161E+02  0.15914585273E+03  0.12509000000E+03 0.  0.
         25    1    3    3    0    0  0.75776633273E+02  0.85313715306E+02 -0.15498355509E+03  0.22953853406E+03  0.12509000000E+03 0.  0.
<mgrwt>
<rscale>  2 0.45841026E+03</rscale>
<asrwt>0</asrwt>
<pdfrwt beam="1">  1       21 0.16992672E-01 0.45841026E+03</pdfrwt>
<pdfrwt beam="2">  1       21 0.66860430E-01 0.45841026E+03</pdfrwt>
<totfact> 0.58945230E+04</totfact>
</mgrwt>
</event>
<event>
 7    0  0.4793433E-002  0.4542756E+03  0.7546771E-02  0.1026455E+00
         21   -1    0    0  502  501  0.00000000000E+00  0.00000000000E+00  0.24746903404E+03  0.24746903404E+03  0.00000000000E+00 0.  1.
         21   -1    0    0  501  502 -0.00000000000E+00 -0.00000000000E+00 -0.20847689079E+03  0.20847689079E+03  0.00000000000E+00 0.  1.
      99926    2    1    2    0    0 -0.14210854715E-13  0.00000000000E+00  0.38992143250E+02  0.45594592484E+03  0.45427557621E+03 0.  0.
      99925    2    3    3    0    0  0.85206541524E+02 -0.27692595497E+02 -0.43748530309E+02  0.28124457474E+03  0.26297821650E+03 0.  0.
         25    1    3    3    0    0 -0.85206541524E+02  0.27692595497E+02  0.82740673559E+02  0.17470135009E+03  0.12509000000E+03 0.  0.
         25    1    4    4    0    0  0.22384494214E+02  0.21065776752E+02 -0.30867573991E+02  0.13245809811E+03  0.12509000000E+03 0.  0.
         25    1    4    4    0    0  0.62822047310E+02 -0.48758372249E+02 -0.12880956318E+02  0.14878647663E+03  0.12509000000E+03 0.  0.
<mgrwt>
<rscale>  2 0.45427558E+03</rscale>
<asrwt>0</asrwt>
<pdfrwt beam="1">  1       21 0.36392505E-01 0.45427558E+03</pdfrwt>
<pdfrwt beam="2">  1       21 0.30658366E-01 0.45427558E+03</pdfrwt>
<totfact> 0.68873802E+04</totfact>
</mgrwt>
</event>
<event>
 7    0  0.4793433E-002  0.4594296E+03  0.7546771E-02  0.1024947E+00
         21   -1    0    0  502  501  0.00000000000E+00  0.00000000000E+00  0.23981464248E+03  0.23981464248E+03  0.00000000000E+00 0.  1.
         21   -1    0    0  501  502 -0.00000000000E+00 -0.00000000000E+00 -0.22004029962E+03  0.22004029962E+03  0.00000000000E+00 0.  1.
      99926    2    1    2    0    0  0.31086244690E-14  0.00000000000E+00  0.19774342861E+02  0.45985494210E+03  0.45942958453E+03 0.  0.
      99925    2    3    3    0    0  0.38708825992E+01  0.48296251315E+01 -0.10534861981E+03  0.28281942900E+03  0.26239319487E+03 0.  0.
         25    1    4    4    0    0 -0.32281299023E+02 -0.17247309273E+02 -0.49202505444E+02  0.13931240643E+03  0.12509000000E+03 0.  0.
         25    1    3    3    0    0 -0.38708825992E+01 -0.48296251315E+01  0.12512296267E+03  0.17703551310E+03  0.12509000000E+03 0.  0.
         25    1    4    4    0    0  0.36152181622E+02  0.22076934405E+02 -0.56146114367E+02  0.14350702257E+03  0.12509000000E+03 0.  0.
<mgrwt>
<rscale>  2 0.45942958E+03</rscale>
<asrwt>0</asrwt>
<pdfrwt beam="1">  1       21 0.35266859E-01 0.45942958E+03</pdfrwt>
<pdfrwt beam="2">  1       21 0.32358868E-01 0.45942958E+03</pdfrwt>
<totfact> 0.65833874E+04</totfact>
</mgrwt>
</event>
<event>
 7    0  0.4793433E-002  0.4543475E+03  0.7546771E-02  0.1026433E+00
         21   -1    0    0  502  501  0.00000000000E+00  0.00000000000E+00  0.53639469905E+02  0.53639469905E+02  0.00000000000E+00 0. -1.
         21   -1    0    0  501  502 -0.00000000000E+00 -0.00000000000E+00 -0.96212572096E+03  0.96212572096E+03  0.00000000000E+00 0. -1.
      99926    2    1    2    0    0  0.00000000000E+00  0.00000000000E+00 -0.90848625106E+03  0.10157651909E+04  0.45434750425E+03 0.  0.
      99925    2    3    3    0    0  0.75817203576E+02 -0.82810730479E+02 -0.58712551811E+03  0.65309992617E+03  0.26309175985E+03 0.  0.
         25    1    3    3    0    0 -0.75817203576E+02  0.82810730479E+02 -0.32136073294E+03  0.36266526470E+03  0.12509000000E+03 0.  0.
         25    1    4    4    0    0  0.65609196819E+02 -0.35208871330E+02 -0.23714833522E+03  0.27826439285E+03  0.12509000000E+03 0.  0.
         25    1    4    4    0    0  0.10208006758E+02 -0.47601859150E+02 -0.34997718289E+03  0.37483553332E+03  0.12509000000E+03 0.  0.
<mgrwt>
<rscale>  2 0.45434750E+03</rscale>
<asrwt>0</asrwt>
<pdfrwt beam="1">  1       21 0.78881578E-02 0.45434750E+03</pdfrwt>
<pdfrwt beam="2">  1       21 0.14148907E+00 0.45434750E+03</pdfrwt>
<totfact> 0.38756208E+04</totfact>
</mgrwt>
</event>
<event>
 7    0  0.4793433E-002  0.4530263E+03  0.7546771E-02  0.1026823E+00
         21   -1    0    0  502  501  0.00000000000E+00  0.00000000000E+00  0.66735931817E+02  0.66735931817E+02  0.00000000000E+00 0. -1.
         21   -1    0    0  501  502 -0.00000000000E+00 -0.00000000000E+00 -0.76882417454E+03  0.76882417454E+03  0.00000000000E+00 0. -1.
      99926    2    1    2    0    0  0.71054273576E-14  0.14210854715E-13 -0.70208824272E+03  0.83556010636E+03  0.45302625836E+03 0.  0.
      99925    2    3    3    0    0  0.55734957404E+02  0.82858556846E+02 -0.53366104221E+03  0.60320874335E+03  0.26285881031E+03 0.  0.
         25    1    3    3    0    0 -0.55734957404E+02 -0.82858556846E+02 -0.16842720051E+03  0.23235136301E+03  0.12509000000E+03 0.  0.
         25    1    4    4    0    0  0.23462778685E+02  0.80333662569E+02 -0.25618641991E+03  0.29712453479E+03  0.12509000000E+03 0.  0.
         25    1    4    4    0    0  0.32272178719E+02  0.25248942763E+01 -0.27747462230E+03  0.30608420856E+03  0.12509000000E+03 0.  0.
<mgrwt>
<rscale>  2 0.45302626E+03</rscale>
<asrwt>0</asrwt>
<pdfrwt beam="1">  1       21 0.98141082E-02 0.45302626E+03</pdfrwt>
<pdfrwt beam="2">  1       21 0.11306237E+00 0.45302626E+03</pdfrwt>
<totfact> 0.46813114E+04</totfact>
</mgrwt>
</event>
<event>
 7    0  0.4793433E-002  0.4528842E+03  0.7546771E-02  0.1026865E+00
         21   -1    0    0  502  501  0.00000000000E+00  0.00000000000E+00  0.43558321897E+03  0.43558321897E+03  0.00000000000E+00 0.  1.
         21   -1    0    0  501  502 -0.00000000000E+00 -0.00000000000E+00 -0.11771809309E+03  0.11771809309E+03  0.00000000000E+00 0.  1.
      99926    2    1    2    0    0  0.00000000000E+00  0.00000000000E+00  0.31786512588E+03  0.55330131206E+03  0.45288420560E+03 0.  0.
      99925    2    3    3    0    0 -0.43780819414E+02  0.87016382042E+02  0.13411203253E+03  0.31060537409E+03  0.26268050985E+03 0.  0.
         25    1    3    3    0    0  0.43780819414E+02 -0.87016382042E+02  0.18375309335E+03  0.24269593797E+03  0.12509000000E+03 0.  0.
         25    1    4    4    0    0 -0.42942466239E+02  0.16973557122E+02  0.88975360218E+02  0.16030059224E+03  0.12509000000E+03 0.  0.
         25    1    4    4    0    0 -0.83835317466E+00  0.70042824920E+02  0.45136672317E+02  0.15030478185E+03  0.12509000000E+03 0.  0.
<mgrwt>
<rscale>  2 0.45288421E+03</rscale>
<asrwt>0</asrwt>
<pdfrwt beam="1">  1       21 0.64056355E-01 0.45288421E+03</pdfrwt>
<pdfrwt beam="2">  1       21 0.17311484E-01 0.45288421E+03</pdfrwt>
<totfact> 0.62691677E+04</totfact>
</mgrwt>
</event>
<event>
 7    0  0.4793433E-002  0.4560860E+03  0.7546771E-02  0.1025923E+00
         21   -1    0    0  502  501  0.00000000000E+00  0.00000000000E+00  0.39481732017E+03  0.39481732017E+03  0.00000000000E+00 0. -1.
         21   -1    0    0  501  502 -0.00000000000E+00 -0.00000000000E+00 -0.13171563534E+03  0.13171563534E+03  0.00000000000E+00 0. -1.
      99926    2    1    2    0    0  0.00000000000E+00 -0.71054273576E-14  0.26310168483E+03  0.52653295552E+03  0.45608601895E+03 0.  0.
      99925    2    3    3    0    0  0.93987882509E+02  0.45654034564E+02  0.21861559335E+03  0.35758168040E+03  0.26297122954E+03 0.  0.
         25    1    4    4    0    0  0.50014600686E+01  0.29416850436E+02  0.98824138087E+02  0.16218533861E+03  0.12509000000E+03 0.  0.
         25    1    3    3    0    0 -0.93987882509E+02 -0.45654034564E+02  0.44486091478E+02  0.16895127512E+03  0.12509000000E+03 0.  0.
         25    1    4    4    0    0  0.88986422441E+02  0.16237184128E+02  0.11979145527E+03  0.19539634178E+03  0.12509000000E+03 0.  0.
<mgrwt>
<rscale>  2 0.45608602E+03</rscale>
<asrwt>0</asrwt>
<pdfrwt beam="1">  1       21 0.58061370E-01 0.45608602E+03</pdfrwt>
<pdfrwt beam="2">  1       21 0.19369946E-01 0.45608602E+03</pdfrwt>
<totfact> 0.62898603E+04</totfact>
</mgrwt>
</event>
<event>
 7    0  0.4793433E-002  0.4478641E+03  0.7546771E-02  0.1028361E+00
         21   -1    0    0  502  501  0.00000000000E+00  0.00000000000E+00  0.60042913514E+03  0.60042913514E+03  0.00000000000E+00 0.  1.
         21   -1    0    0  501  502 -0.00000000000E+00 -0.00000000000E+00 -0.83516218454E+02  0.83516218454E+02  0.00000000000E+00 0.  1.
      99926    2    1    2    0    0  0.00000000000E+00  0.00000000000E+00  0.51691291669E+03  0.68394535360E+03  0.44786413483E+03 0.  0.
      99925    2    3    3    0    0 -0.65824891098E+02 -0.75113760587E+02  0.27124292420E+03  0.39072828958E+03  0.26290849936E+03 0.  0.
         25    1    4    4    0    0 -0.48054357574E+02 -0.73271526782E+02  0.17226468443E+03  0.23021852124E+03  0.12509000000E+03 0.  0.
         25    1    3    3    0    0  0.65824891098E+02  0.75113760587E+02  0.24566999250E+03  0.29321706402E+03  0.12509000000E+03 0.  0.
         25    1    4    4    0    0 -0.17770533525E+02 -0.18422338051E+01  0.98978239765E+02  0.16050976835E+03  0.12509000000E+03 0.  0.
<mgrwt>
<rscale>  2 0.44786413E+03</rscale>
<asrwt>0</asrwt>
<pdfrwt beam="1">  1       21 0.88298400E-01 0.44786413E+03</pdfrwt>
<pdfrwt beam="2">  1       21 0.12281797E-01 0.44786413E+03</pdfrwt>
<totfact> 0.56914354E+04</totfact>
</mgrwt>
</event>
<event>
 7    0  0.4793433E-002  0.4563142E+03  0.7546771E-02  0.1025856E+00
         21   -1    0    0  502  501  0.00000000000E+00  0.00000000000E+00  0.55648610878E+02  0.55648610878E+02  0.00000000000E+00 0. -1.
         21   -1    0    0  501  502 -0.00000000000E+00 -0.00000000000E+00 -0.93543493195E+03  0.93543493195E+03  0.00000000000E+00 0. -1.
      99926    2    1    2    0    0 -0.35527136788E-14  0.00000000000E+00 -0.87978632107E+03  0.99108354282E+03  0.45631416603E+03 0.  0.
      99925    2    3    3    0    0  0.31221227944E+02  0.96609628406E+02 -0.66576153605E+03  0.72319867562E+03  0.26357108369E+03 0.  0.
         25    1    4    4    0    0  0.43065128039E+02  0.49847642318E+02 -0.42128856939E+03  0.44437704654E+03  0.12509000000E+03 0.  0.
         25    1    3    3    0    0 -0.31221227944E+02 -0.96609628406E+02 -0.21402478502E+03  0.26788486720E+03  0.12509000000E+03 0.  0.
         25    1    4    4    0    0 -0.11843900094E+02  0.46761986087E+02 -0.24447296666E+03  0.27882162908E+03  0.12509000000E+03 0.  0.
<mgrwt>
<rscale>  2 0.45631417E+03</rscale>
<asrwt>0</asrwt>
<pdfrwt beam="1">  1       21 0.81836197E-02 0.45631417E+03</pdfrwt>
<pdfrwt beam="2">  1       21 0.13756395E+00 0.45631417E+03</pdfrwt>
<totfact> 0.39112342E+04</totfact>
</mgrwt>
</event>
<event>
 7    0  0.4793433E-002  0.4402312E+03  0.7546771E-02  0.1030676E+00
         21   -1    0    0  502  501  0.00000000000E+00  0.00000000000E+00  0.45186473825E+02  0.45186473825E+02  0.00000000000E+00 0. -1.
         21   -1    0    0  501  502 -0.00000000000E+00 -0.00000000000E+00 -0.10722428656E+04  0.10722428656E+04  0.00000000000E+00 0. -1.
      99926    2    1    2    0    0  0.00000000000E+00  0.00000000000E+00 -0.10270563918E+04  0.11174293394E+04  0.44023118553E+03 0.  0.
      99925    2    3    3    0    0  0.69007130858E+02  0.32710531033E+02 -0.81415384185E+03  0.85895890240E+03  0.26292956255E+03 0.  0.
         25    1    3    3    0    0 -0.69007130858E+02 -0.32710531033E+02 -0.21290254991E+03  0.25847043701E+03  0.12509000000E+03 0.  0.
         25    1    4    4    0    0  0.38783227891E+02 -0.87071295991E+00 -0.51820590722E+03  0.53449954844E+03  0.12509000000E+03 0.  0.
         25    1    4    4    0    0  0.30223902967E+02  0.33581243993E+02 -0.29594793463E+03  0.32445935395E+03  0.12509000000E+03 0.  0.
<mgrwt>
<rscale>  2 0.44023119E+03</rscale>
<asrwt>0</asrwt>
<pdfrwt beam="1">  1       21 0.66450702E-02 0.44023119E+03</pdfrwt>
<pdfrwt beam="2">  1       21 0.15768276E+00 0.44023119E+03</pdfrwt>
<totfact> 0.39212859E+04</totfact>
</mgrwt>
</event>
<event>
 7    0  0.4793433E-002  0.4537098E+03  0.7546771E-02  0.1026621E+00
         21   -1    0    0  502  501  0.00000000000E+00  0.00000000000E+00  0.31689711430E+03  0.31689711430E+03  0.00000000000E+00 0. -1.
         21   -1    0    0  501  502 -0.00000000000E+00 -0.00000000000E+00 -0.16239703370E+03  0.16239703370E+03  0.00000000000E+00 0. -1.
      99926    2    1    2    0    0  0.00000000000E+00  0.35527136788E-14  0.15450008060E+03  0.47929414800E+03  0.45370982511E+03 0.  0.
      99925    2    3    3    0    0 -0.18215335310E+02  0.25873387477E+02 -0.16036730014E+02  0.26544480268E+03  0.26306374881E+03 0.  0.
         25    1    3    3    0    0  0.18215335310E+02 -0.25873387477E+02  0.17053681062E+03  0.21384934532E+03  0.12509000000E+03 0.  0.
         25    1    4    4    0    0  0.16060372017E+02  0.43286048837E+02 -0.18118001961E+02  0.13456369372E+03  0.12509000000E+03 0.  0.
         25    1    4    4    0    0 -0.34275707327E+02 -0.17412661359E+02  0.20812719476E+01  0.13088110896E+03  0.12509000000E+03 0.  0.
<mgrwt>
<rscale>  2 0.45370983E+03</rscale>
<asrwt>0</asrwt>
<pdfrwt beam="1">  1       21 0.46602517E-01 0.45370983E+03</pdfrwt>
<pdfrwt beam="2">  1       21 0.23881917E-01 0.45370983E+03</pdfrwt>
<totfact> 0.67439500E+04</totfact>
</mgrwt>
</event>
<event>
 7    0  0.4793433E-002  0.4549931E+03  0.7546771E-02  0.1026243E+00
         21   -1    0    0  502  501  0.00000000000E+00  0.00000000000E+00  0.39605631686E+03  0.39605631686E+03  0.00000000000E+00 0.  1.
         21   -1    0    0  501  502 -0.00000000000E+00 -0.00000000000E+00 -0.13067505205E+03  0.13067505205E+03  0.00000000000E+00 0.  1.
      99926    2    1    2    0    0  0.00000000000E+00 -0.71054273576E-14  0.26538126481E+03  0.52673136891E+03  0.45499309806E+03 0.  0.
      99925    2    3    3    0    0  0.58054925857E+02 -0.48069674480E+02  0.71328693705E+02  0.28386314029E+03  0.26421474570E+03 0.  0.
         25    1    3    3    0    0 -0.58054925857E+02  0.48069674480E+02  0.19405257111E+03  0.24286822862E+03  0.12509000000E+03 0.  0.
         25    1    4    4    0    0  0.40447168559E+02 -0.62524634433E+02  0.20855062098E+02  0.14706374492E+03  0.12509000000E+03 0.  0.
         25    1    4    4    0    0  0.17607757298E+02  0.14454959953E+02  0.50473631608E+02  0.13679939536E+03  0.12509000000E+03 0.  0.
<mgrwt>
<rscale>  2 0.45499310E+03</rscale>
<asrwt>0</asrwt>
<pdfrwt beam="1">  1       21 0.58243576E-01 0.45499310E+03</pdfrwt>
<pdfrwt beam="2">  1       21 0.19216920E-01 0.45499310E+03</pdfrwt>
<totfact> 0.63431815E+04</totfact>
</mgrwt>
</event>
<event>
 7    0  0.4793433E-002  0.4662845E+03  0.7546771E-02  0.1022974E+00
         21   -1    0    0  502  501  0.00000000000E+00  0.00000000000E+00  0.28717807138E+03  0.28717807138E+03  0.00000000000E+00 0. -1.
         21   -1    0    0  501  502 -0.00000000000E+00 -0.00000000000E+00 -0.18927386559E+03  0.18927386559E+03  0.00000000000E+00 0. -1.
      99926    2    1    2    0    0  0.00000000000E+00  0.00000000000E+00  0.97904205793E+02  0.47645193697E+03  0.46628447833E+03 0.  0.
      99925    2    3    3    0    0 -0.14076199566E+01 -0.10883824916E+03  0.12061907793E+03  0.30908641068E+03  0.26294049029E+03 0.  0.
         25    1    4    4    0    0 -0.16064290060E+02 -0.82369117518E+02  0.94331462174E+02  0.17773200554E+03  0.12509000000E+03 0.  0.
         25    1    4    4    0    0  0.14656670103E+02 -0.26469131641E+02  0.26287615758E+02  0.13135440514E+03  0.12509000000E+03 0.  0.
         25    1    3    3    0    0  0.14076199566E+01  0.10883824916E+03 -0.22714872139E+02  0.16736552629E+03  0.12509000000E+03 0.  0.
<mgrwt>
<rscale>  2 0.46628448E+03</rscale>
<asrwt>0</asrwt>
<pdfrwt beam="1">  1       21 0.42232070E-01 0.46628448E+03</pdfrwt>
<pdfrwt beam="2">  1       21 0.27834392E-01 0.46628448E+03</pdfrwt>
<totfact> 0.61284055E+04</totfact>
</mgrwt>
</event>
<event>
 7    0  0.4793433E-002  0.4409691E+03  0.7546771E-02  0.1030450E+00
         21   -1    0    0  502  501  0.00000000000E+00  0.00000000000E+00  0.49497823430E+02  0.49497823430E+02  0.00000000000E+00 0.  1.
         21   -1    0    0  501  502 -0.00000000000E+00 -0.00000000000E+00 -0.98213261741E+03  0.98213261741E+03  0.00000000000E+00 0.  1.
      99926    2    1    2    0    0  0.00000000000E+00  0.71054273576E-14 -0.93263479398E+03  0.10316304408E+04  0.44096905507E+03 0.  0.
      99925    2    3    3    0    0  0.40485883745E+02 -0.53847152093E+02 -0.76596231391E+03  0.81261937655E+03  0.26289420350E+03 0.  0.
         25    1    3    3    0    0 -0.40485883745E+02  0.53847152093E+02 -0.16667248007E+03  0.21901106429E+03  0.12509000000E+03 0.  0.
         25    1    4    4    0    0  0.55815092389E+02 -0.33252271110E+02 -0.45897961686E+03  0.48013626697E+03  0.12509000000E+03 0.  0.
         25    1    4    4    0    0 -0.15329208644E+02 -0.20594880983E+02 -0.30698269706E+03  0.33248310958E+03  0.12509000000E+03 0.  0.
<mgrwt>
<rscale>  2 0.44096906E+03</rscale>
<asrwt>0</asrwt>
<pdfrwt beam="1">  1       21 0.72790927E-02 0.44096906E+03</pdfrwt>
<pdfrwt beam="2">  1       21 0.14443125E+00 0.44096906E+03</pdfrwt>
<totfact> 0.42418009E+04</totfact>
</mgrwt>
</event>
<event>
 7    0  0.4793433E-002  0.4541627E+03  0.7546771E-02  0.1026488E+00
         21   -1    0    0  502  501  0.00000000000E+00  0.00000000000E+00  0.11281333254E+03  0.11281333254E+03  0.00000000000E+00 0.  1.
         21   -1    0    0  501  502 -0.00000000000E+00 -0.00000000000E+00 -0.45709074709E+03  0.45709074709E+03  0.00000000000E+00 0.  1.
      99926    2    1    2    0    0  0.00000000000E+00  0.00000000000E+00 -0.34427741454E+03  0.56990407963E+03  0.45416266009E+03 0.  0.
      99925    2    3    3    0    0 -0.85695121986E+02 -0.72649174935E+02 -0.21694571772E+03  0.35899550781E+03  0.26304139150E+03 0.  0.
         25    1    4    4    0    0 -0.42128503523E+02  0.15680004945E+01 -0.78888258228E+02  0.15377950065E+03  0.12509000000E+03 0.  0.
         25    1    4    4    0    0 -0.43566618463E+02 -0.74217175430E+02 -0.13805745950E+03  0.20521600716E+03  0.12509000000E+03 0.  0.
         25    1    3    3    0    0  0.85695121986E+02  0.72649174935E+02 -0.12733169682E+03  0.21090857182E+03  0.12509000000E+03 0.  0.
<mgrwt>
<rscale>  2 0.45416266E+03</rscale>
<asrwt>0</asrwt>
<pdfrwt beam="1">  1       21 0.16590196E-01 0.45416266E+03</pdfrwt>
<pdfrwt beam="2">  1       21 0.67219227E-01 0.45416266E+03</pdfrwt>
<totfact> 0.60972811E+04</totfact>
</mgrwt>
</event>
<event>
 7    0  0.4793433E-002  0.4500823E+03  0.7546771E-02  0.1027698E+00
         21   -1    0    0  502  501  0.00000000000E+00  0.00000000000E+00  0.16341514109E+03  0.16341514109E+03  0.00000000000E+00 0.  1.
         21   -1    0    0  501  502 -0.00000000000E+00 -0.00000000000E+00 -0.30990710832E+03  0.30990710832E+03  0.00000000000E+00 0.  1.
      99926    2    1    2    0    0 -0.44408920985E-15  0.00000000000E+00 -0.14649196723E+03  0.47332224941E+03  0.45008227617E+03 0.  0.
      99925    2    3    3    0    0 -0.30946107673E+01 -0.50069663456E+02 -0.19381315763E+03  0.33048195056E+03  0.26294149874E+03 0.  0.
         25    1    4    4    0    0  0.26126402923E+02  0.46923017698E+01 -0.86846231298E+02  0.15457807935E+03  0.12509000000E+03 0.  0.
         25    1    4    4    0    0 -0.29221013690E+02 -0.54761965226E+02 -0.10696692633E+03  0.17590387120E+03  0.12509000000E+03 0.  0.
         25    1    3    3    0    0  0.30946107673E+01  0.50069663456E+02  0.47321190402E+02  0.14284029885E+03  0.12509000000E+03 0.  0.
<mgrwt>
<rscale>  2 0.45008228E+03</rscale>
<asrwt>0</asrwt>
<pdfrwt beam="1">  1       21 0.24031639E-01 0.45008228E+03</pdfrwt>
<pdfrwt beam="2">  1       21 0.45574574E-01 0.45008228E+03</pdfrwt>
<totfact> 0.69877123E+04</totfact>
</mgrwt>
</event>
<event>
 7    0  0.4793433E-002  0.4536613E+03  0.7546771E-02  0.1026636E+00
         21   -1    0    0  502  501  0.00000000000E+00  0.00000000000E+00  0.35874396917E+03  0.35874396917E+03  0.00000000000E+00 0. -1.
         21   -1    0    0  501  502 -0.00000000000E+00 -0.00000000000E+00 -0.14342305167E+03  0.14342305167E+03  0.00000000000E+00 0. -1.
      99926    2    1    2    0    0  0.00000000000E+00  0.00000000000E+00  0.21532091750E+03  0.50216702084E+03  0.45366134870E+03 0.  0.
      99925    2    3    3    0    0 -0.29087822584E+02 -0.45766819213E+02  0.27292153985E+02  0.26991063842E+03  0.26299465375E+03 0.  0.
         25    1    4    4    0    0  0.12368666728E+02 -0.37622848069E+02 -0.13039256625E+02  0.13185595522E+03  0.12509000000E+03 0.  0.
         25    1    4    4    0    0 -0.41456489312E+02 -0.81439711445E+01  0.40331410610E+02  0.13805468320E+03  0.12509000000E+03 0.  0.
         25    1    3    3    0    0  0.29087822584E+02  0.45766819213E+02  0.18802876351E+03  0.23225638241E+03  0.12509000000E+03 0.  0.
<mgrwt>
<rscale>  2 0.45366135E+03</rscale>
<asrwt>0</asrwt>
<pdfrwt beam="1">  1       21 0.52756466E-01 0.45366135E+03</pdfrwt>
<pdfrwt beam="2">  1       21 0.21091625E-01 0.45366135E+03</pdfrwt>
<totfact> 0.65815249E+04</totfact>
</mgrwt>
</event>
<event>
 7    0  0.4793433E-002  0.4575973E+03  0.7546771E-02  0.1025480E+00
         21   -1    0    0  502  501  0.00000000000E+00  0.00000000000E+00  0.88349222035E+02  0.88349222035E+02  0.00000000000E+00 0.  1.
         21   -1    0    0  501  502 -0.00000000000E+00 -0.00000000000E+00 -0.59252149204E+03  0.59252149204E+03  0.00000000000E+00 0.  1.
      99926    2    1    2    0    0 -0.35527136788E-14  0.00000000000E+00 -0.50417227000E+03  0.68087071407E+03  0.45759725900E+03 0.  0.
      99925    2    3    3    0    0  0.27836877590E+02  0.99414550520E+02 -0.23930792003E+03  0.37029258124E+03  0.26304024506E+03 0.  0.
         25    1    4    4    0    0 -0.18381660379E+01  0.88352854651E+02 -0.12028319214E+03  0.19474383223E+03  0.12509000000E+03 0.  0.
         25    1    3    3    0    0 -0.27836877590E+02 -0.99414550520E+02 -0.26486434997E+03  0.31057813284E+03  0.12509000000E+03 0.  0.
         25    1    4    4    0    0  0.29675043628E+02  0.11061695869E+02 -0.11902472789E+03  0.17554874901E+03  0.12509000000E+03 0.  0.
<mgrwt>
<rscale>  2 0.45759726E+03</rscale>
<asrwt>0</asrwt>
<pdfrwt beam="1">  1       21 0.12992532E-01 0.45759726E+03</pdfrwt>
<pdfrwt beam="2">  1       21 0.87135515E-01 0.45759726E+03</pdfrwt>
<totfact> 0.52864440E+04</totfact>
</mgrwt>
</event>
<event>
 7    0  0.4793433E-002  0.4563211E+03  0.7546771E-02  0.1025854E+00
         21   -1    0    0  502  501  0.00000000000E+00  0.00000000000E+00  0.11349651016E+03  0.11349651016E+03  0.00000000000E+00 0.  1.
         21   -1    0    0  501  502 -0.00000000000E+00 -0.00000000000E+00 -0.45866825020E+03  0.45866825020E+03  0.00000000000E+00 0.  1.
      99926    2    1    2    0    0  0.00000000000E+00  0.13322676296E-14 -0.34517174003E+03  0.57216476036E+03  0.45632114007E+03 0.  0.
      99925    2    3    3    0    0  0.66679826514E+02 -0.36581110633E+01 -0.10050034046E+03  0.28937299437E+03  0.26301488627E+03 0.  0.
         25    1    3    3    0    0 -0.66679826514E+02  0.36581110633E+01 -0.24467139957E+03  0.28279176598E+03  0.12509000000E+03 0.  0.
         25    1    4    4    0    0  0.37203265446E+02 -0.35210794455E+02 -0.26465461953E+02  0.13773820016E+03  0.12509000000E+03 0.  0.
         25    1    4    4    0    0  0.29476561068E+02  0.31552683391E+02 -0.74034878508E+02  0.15163479422E+03  0.12509000000E+03 0.  0.
<mgrwt>
<rscale>  2 0.45632114E+03</rscale>
<asrwt>0</asrwt>
<pdfrwt beam="1">  1       21 0.16690663E-01 0.45632114E+03</pdfrwt>
<pdfrwt beam="2">  1       21 0.67451213E-01 0.45632114E+03</pdfrwt>
<totfact> 0.59798020E+04</totfact>
</mgrwt>
</event>
<event>
 7    0  0.4793433E-002  0.4480299E+03  0.7546771E-02  0.1028311E+00
         21   -1    0    0  502  501  0.00000000000E+00  0.00000000000E+00  0.25303658043E+03  0.25303658043E+03  0.00000000000E+00 0. -1.
         21   -1    0    0  501  502 -0.00000000000E+00 -0.00000000000E+00 -0.19832187190E+03  0.19832187190E+03  0.00000000000E+00 0. -1.
      99926    2    1    2    0    0 -0.88817841970E-15  0.00000000000E+00  0.54714708526E+02  0.45135845233E+03  0.44802985744E+03 0.  0.
      99925    2    3    3    0    0 -0.60603313696E+01 -0.10008386913E+03 -0.16793906927E+01  0.28141342886E+03  0.26293951608E+03 0.  0.
         25    1    4    4    0    0  0.17676352563E+02 -0.37744570168E+02 -0.33675358465E+02  0.13608322411E+03  0.12509000000E+03 0.  0.
         25    1    3    3    0    0  0.60603313696E+01  0.10008386913E+03  0.56394099218E+02  0.16994502347E+03  0.12509000000E+03 0.  0.
         25    1    4    4    0    0 -0.23736683933E+02 -0.62339298958E+02  0.31995967772E+02  0.14533020475E+03  0.12509000000E+03 0.  0.
<mgrwt>
<rscale>  2 0.44802986E+03</rscale>
<asrwt>0</asrwt>
<pdfrwt beam="1">  1       21 0.37211262E-01 0.44802986E+03</pdfrwt>
<pdfrwt beam="2">  1       21 0.29164981E-01 0.44802986E+03</pdfrwt>
<totfact> 0.72776983E+04</totfact>
</mgrwt>
</event>
<event>
 7    0  0.4793433E-002  0.4552853E+03  0.7546771E-02  0.1026158E+00
         21   -1    0    0  502  501  0.00000000000E+00  0.00000000000E+00  0.33564292622E+03  0.33564292622E+03  0.00000000000E+00 0. -1.
         21   -1    0    0  501  502 -0.00000000000E+00 -0.00000000000E+00 -0.15439379770E+03  0.15439379770E+03  0.00000000000E+00 0. -1.
      99926    2    1    2    0    0  0.00000000000E+00  0.14210854715E-13  0.18124912852E+03  0.49003672393E+03  0.45528534372E+03 0.  0.
      99925    2    3    3    0    0 -0.56482294170E+02 -0.85010395681E+02  0.16689160027E+03  0.32795444962E+03  0.26321910617E+03 0.  0.
         25    1    4    4    0    0 -0.68128931006E+02 -0.54952923275E+02  0.81003170490E+02  0.17283054344E+03  0.12509000000E+03 0.  0.
         25    1    3    3    0    0  0.56482294170E+02  0.85010395681E+02  0.14357528247E+02  0.16208227431E+03  0.12509000000E+03 0.  0.
         25    1    4    4    0    0  0.11646636836E+02 -0.30057472406E+02  0.85888429784E+02  0.15512390618E+03  0.12509000000E+03 0.  0.
<mgrwt>
<rscale>  2 0.45528534E+03</rscale>
<asrwt>0</asrwt>
<pdfrwt beam="1">  1       21 0.49359254E-01 0.45528534E+03</pdfrwt>
<pdfrwt beam="2">  1       21 0.22704970E-01 0.45528534E+03</pdfrwt>
<totfact> 0.65827196E+04</totfact>
</mgrwt>
</event>
<event>
 7    0  0.4793433E-002  0.4676489E+03  0.7546771E-02  0.1022586E+00
         21   -1    0    0  502  501  0.00000000000E+00  0.00000000000E+00  0.52071993807E+03  0.52071993807E+03  0.00000000000E+00 0.  1.
         21   -1    0    0  501  502 -0.00000000000E+00 -0.00000000000E+00 -0.10499670811E+03  0.10499670811E+03  0.00000000000E+00 0.  1.
      99926    2    1    2    0    0  0.00000000000E+00  0.00000000000E+00  0.41572322996E+03  0.62571664618E+03  0.46764892534E+03 0.  0.
      99925    2    3    3    0    0 -0.88786333270E+02 -0.12403046481E+02  0.37470325050E+03  0.46644645012E+03  0.26293139097E+03 0.  0.
         25    1    4    4    0    0 -0.14557231233E+02 -0.20699171025E+02  0.13374327504E+03  0.18486519516E+03  0.12509000000E+03 0.  0.
         25    1    4    4    0    0 -0.74229102037E+02  0.82961245442E+01  0.24095997546E+03  0.28158125496E+03  0.12509000000E+03 0.  0.
         25    1    3    3    0    0  0.88786333270E+02  0.12403046481E+02  0.41019979460E+02  0.15927019606E+03  0.12509000000E+03 0.  0.
<mgrwt>
<rscale>  2 0.46764893E+03</rscale>
<asrwt>0</asrwt>
<pdfrwt beam="1">  1       21 0.76576460E-01 0.46764893E+03</pdfrwt>
<pdfrwt beam="2">  1       21 0.15440693E-01 0.46764893E+03</pdfrwt>
<totfact> 0.51756556E+04</totfact>
</mgrwt>
</event>
<event>
 7    0  0.4793433E-002  0.4481911E+03  0.7546771E-02  0.1028263E+00
         21   -1    0    0  502  501  0.00000000000E+00  0.00000000000E+00  0.88391971457E+02  0.88391971457E+02  0.00000000000E+00 0. -1.
         21   -1    0    0  501  502 -0.00000000000E+00 -0.00000000000E+00 -0.56813778801E+03  0.56813778801E+03  0.00000000000E+00 0. -1.
      99926    2    1    2    0    0  0.00000000000E+00 -0.14210854715E-13 -0.47974581655E+03  0.65652975947E+03  0.44819111612E+03 0.  0.
      99925    2    3    3    0    0 -0.26707995557E+01 -0.10503502971E+03 -0.27828224326E+03  0.39715634121E+03  0.26315900481E+03 0.  0.
         25    1    3    3    0    0  0.26707995557E+01  0.10503502971E+03 -0.20146357329E+03  0.25937341826E+03  0.12509000000E+03 0.  0.
         25    1    4    4    0    0 -0.87132562127E+00 -0.86895675417E+02 -0.18727188113E+03  0.24139155573E+03  0.12509000000E+03 0.  0.
         25    1    4    4    0    0 -0.17994739345E+01 -0.18139354290E+02 -0.91010362132E+02  0.15576478548E+03  0.12509000000E+03 0.  0.
<mgrwt>
<rscale>  2 0.44819112E+03</rscale>
<asrwt>0</asrwt>
<pdfrwt beam="1">  1       21 0.12998819E-01 0.44819112E+03</pdfrwt>
<pdfrwt beam="2">  1       21 0.83549679E-01 0.44819112E+03</pdfrwt>
<totfact> 0.58399996E+04</totfact>
</mgrwt>
</event>
<event>
 7    0  0.4793433E-002  0.4480375E+03  0.7546771E-02  0.1028309E+00
         21   -1    0    0  502  501  0.00000000000E+00  0.00000000000E+00  0.76028450974E+03  0.76028450974E+03  0.00000000000E+00 0. -1.
         21   -1    0    0  501  502 -0.00000000000E+00 -0.00000000000E+00 -0.66007385999E+02  0.66007385999E+02  0.00000000000E+00 0. -1.
      99926    2    1    2    0    0  0.00000000000E+00  0.00000000000E+00  0.69427712375E+03  0.82629189574E+03  0.44803746765E+03 0.  0.
      99925    2    3    3    0    0 -0.72789244562E+02 -0.23922096978E+02  0.30298576980E+03  0.40840797332E+03  0.26291853324E+03 0.  0.
         25    1    4    4    0    0 -0.39508497667E+01 -0.32792528477E+02  0.12320589938E+03  0.17865654446E+03  0.12509000000E+03 0.  0.
         25    1    4    4    0    0 -0.68838394795E+02  0.88704314991E+01  0.17977987042E+03  0.22975142885E+03  0.12509000000E+03 0.  0.
         25    1    3    3    0    0  0.72789244562E+02  0.23922096978E+02  0.39129135395E+03  0.41788392243E+03  0.12509000000E+03 0.  0.
<mgrwt>
<rscale>  2 0.44803747E+03</rscale>
<asrwt>0</asrwt>
<pdfrwt beam="1">  1       21 0.11180654E+00 0.44803747E+03</pdfrwt>
<pdfrwt beam="2">  1       21 0.97069689E-02 0.44803747E+03</pdfrwt>
<totfact> 0.49149791E+04</totfact>
</mgrwt>
</event>
<event>
 7    0  0.4793433E-002  0.4617934E+03  0.7546771E-02  0.1024262E+00
         21   -1    0    0  502  501  0.00000000000E+00  0.00000000000E+00  0.23728086412E+03  0.23728086412E+03  0.00000000000E+00 0.  1.
         21   -1    0    0  501  502 -0.00000000000E+00 -0.00000000000E+00 -0.22468434463E+03  0.22468434463E+03  0.00000000000E+00 0.  1.
      99926    2    1    2    0    0 -0.71054273576E-14  0.00000000000E+00  0.12596519490E+02  0.46196520874E+03  0.46179344061E+03 0.  0.
      99925    2    3    3    0    0  0.33572415750E+02  0.11434274985E+03  0.13995188858E+02  0.28919126418E+03  0.26312421102E+03 0.  0.
         25    1    4    4    0    0  0.13483796822E+02  0.18393019373E+02 -0.13636993844E+02  0.12788116218E+03  0.12509000000E+03 0.  0.
         25    1    4    4    0    0  0.20088618928E+02  0.95949730477E+02  0.27632182702E+02  0.16131010201E+03  0.12509000000E+03 0.  0.
         25    1    3    3    0    0 -0.33572415750E+02 -0.11434274985E+03 -0.13986693675E+01  0.17277394456E+03  0.12509000000E+03 0.  0.
<mgrwt>
<rscale>  2 0.46179344E+03</rscale>
<asrwt>0</asrwt>
<pdfrwt beam="1">  1       21 0.34894245E-01 0.46179344E+03</pdfrwt>
<pdfrwt beam="2">  1       21 0.33041815E-01 0.46179344E+03</pdfrwt>
<totfact> 0.64472322E+04</totfact>
</mgrwt>
</event>
<event>
 7    0  0.4793433E-002  0.4521947E+03  0.7546771E-02  0.1027070E+00
         21   -1    0    0  502  501  0.00000000000E+00  0.00000000000E+00  0.27896183095E+03  0.27896183095E+03  0.00000000000E+00 0.  1.
         21   -1    0    0  501  502 -0.00000000000E+00 -0.00000000000E+00 -0.18325092613E+03  0.18325092613E+03  0.00000000000E+00 0.  1.
      99926    2    1    2    0    0 -0.71054273576E-14  0.71054273576E-14  0.95710904816E+02  0.46221275708E+03  0.45219470973E+03 0.  0.
      99925    2    3    3    0    0 -0.48168823396E+02  0.49013475084E+02 -0.28276864118E+02  0.27315448238E+03  0.26285211415E+03 0.  0.
         25    1    4    4    0    0 -0.37764741680E+02  0.25268836303E+02 -0.52612251933E+02  0.14310921339E+03  0.12509000000E+03 0.  0.
         25    1    3    3    0    0  0.48168823396E+02 -0.49013475084E+02  0.12398776893E+03  0.18905827470E+03  0.12509000000E+03 0.  0.
         25    1    4    4    0    0 -0.10404081716E+02  0.23744638781E+02  0.24335387815E+02  0.13004526899E+03  0.12509000000E+03 0.  0.
<mgrwt>
<rscale>  2 0.45219471E+03</rscale>
<asrwt>0</asrwt>
<pdfrwt beam="1">  1       21 0.41023799E-01 0.45219471E+03</pdfrwt>
<pdfrwt beam="2">  1       21 0.26948665E-01 0.45219471E+03</pdfrwt>
<totfact> 0.69554834E+04</totfact>
</mgrwt>
</event>
<event>
 7    0  0.4793433E-002  0.4691921E+03  0.7546771E-02  0.1022148E+00
         21   -1    0    0  502  501  0.00000000000E+00  0.00000000000E+00  0.92043152815E+03  0.92043152815E+03  0.00000000000E+00 0.  1.
         21   -1    0    0  501  502 -0.00000000000E+00 -0.00000000000E+00 -0.59792938865E+02  0.59792938865E+02  0.00000000000E+00 0.  1.
      99926    2    1    2    0    0  0.00000000000E+00 -0.71054273576E-14  0.86063858928E+03  0.98022446701E+03  0.46919209751E+03 0.  0.
      99925    2    3    3    0    0  0.81006204975E+02 -0.39689811469E+02  0.71878538627E+03  0.77068419479E+03  0.26299127401E+03 0.  0.
         25    1    4    4    0    0  0.34635614006E+02 -0.58876794974E+02  0.34157611779E+03  0.37011870405E+03  0.12509000000E+03 0.  0.
         25    1    4    4    0    0  0.46370590969E+02  0.19186983506E+02  0.37720926848E+03  0.40056549074E+03  0.12509000000E+03 0.  0.
         25    1    3    3    0    0 -0.81006204975E+02  0.39689811469E+02  0.14185320301E+03  0.20954027223E+03  0.12509000000E+03 0.  0.
<mgrwt>
<rscale>  2 0.46919210E+03</rscale>
<asrwt>0</asrwt>
<pdfrwt beam="1">  1       21 0.13535757E+00 0.46919210E+03</pdfrwt>
<pdfrwt beam="2">  1       21 0.87930798E-02 0.46919210E+03</pdfrwt>
<totfact> 0.35800491E+04</totfact>
</mgrwt>
</event>
<event>
 7    0  0.4793433E-002  0.4542736E+03  0.7546771E-02  0.1026455E+00
         21   -1    0    0  502  501  0.00000000000E+00  0.00000000000E+00  0.81064717096E+02  0.81064717096E+02  0.00000000000E+00 0.  1.
         21   -1    0    0  501  502 -0.00000000000E+00 -0.00000000000E+00 -0.63641894783E+03  0.63641894783E+03  0.00000000000E+00 0.  1.
      99926    2    1    2    0    0  0.00000000000E+00  0.00000000000E+00 -0.55535423074E+03  0.71748366493E+03  0.45427358259E+03 0.  0.
      99925    2    3    3    0    0 -0.21627955550E+02  0.54377383311E+02 -0.50142470040E+03  0.56922520608E+03  0.26299417635E+03 0.  0.
         25    1    4    4    0    0 -0.34635831367E+01  0.67254230722E+02 -0.27817403626E+03  0.31235145350E+03  0.12509000000E+03 0.  0.
         25    1    4    4    0    0 -0.18164372414E+02 -0.12876847411E+02 -0.22325066414E+03  0.25687375258E+03  0.12509000000E+03 0.  0.
         25    1    3    3    0    0  0.21627955550E+02 -0.54377383311E+02 -0.53929530340E+02  0.14825845885E+03  0.12509000000E+03 0.  0.
<mgrwt>
<rscale>  2 0.45427358E+03</rscale>
<asrwt>0</asrwt>
<pdfrwt beam="1">  1       21 0.11921282E-01 0.45427358E+03</pdfrwt>
<pdfrwt beam="2">  1       21 0.93591021E-01 0.45427358E+03</pdfrwt>
<totfact> 0.52261990E+04</totfact>
</mgrwt>
</event>
<event>
 7    0  0.4793433E-002  0.4568299E+03  0.7546771E-02  0.1025705E+00
         21   -1    0    0  502  501  0.00000000000E+00  0.00000000000E+00  0.10120318236E+03  0.10120318236E+03  0.00000000000E+00 0.  1.
         21   -1    0    0  501  502 -0.00000000000E+00 -0.00000000000E+00 -0.51553116646E+03  0.51553116646E+03  0.00000000000E+00 0.  1.
      99926    2    1    2    0    0  0.00000000000E+00  0.35527136788E-14 -0.41432798410E+03  0.61673434881E+03  0.45682992305E+03 0.  0.
      99925    2    3    3    0    0  0.35369418192E+02 -0.16018686561E+02 -0.11667494646E+03  0.29153835718E+03  0.26433686181E+03 0.  0.
         25    1    3    3    0    0 -0.35369418192E+02  0.16018686561E+02 -0.29765303764E+03  0.32519599164E+03  0.12509000000E+03 0.  0.
         25    1    4    4    0    0  0.23531394781E+02  0.33450808500E+02 -0.66770795990E+02  0.14757550754E+03  0.12509000000E+03 0.  0.
         25    1    4    4    0    0  0.11838023411E+02 -0.49469495061E+02 -0.49904150474E+02  0.14396284963E+03  0.12509000000E+03 0.  0.
<mgrwt>
<rscale>  2 0.45682992E+03</rscale>
<asrwt>0</asrwt>
<pdfrwt beam="1">  1       21 0.14882821E-01 0.45682992E+03</pdfrwt>
<pdfrwt beam="2">  1       21 0.75813406E-01 0.45682992E+03</pdfrwt>
<totfact> 0.56834062E+04</totfact>
</mgrwt>
</event>
<event>
 7    0  0.4793433E-002  0.4476510E+03  0.7546771E-02  0.1028425E+00
         21   -1    0    0  502  501  0.00000000000E+00  0.00000000000E+00  0.21641443017E+03  0.21641443017E+03  0.00000000000E+00 0.  1.
         21   -1    0    0  501  502 -0.00000000000E+00 -0.00000000000E+00 -0.23149040939E+03  0.23149040939E+03  0.00000000000E+00 0.  1.
      99926    2    1    2    0    0  0.71054273576E-14  0.00000000000E+00 -0.15075979224E+02  0.44790483956E+03  0.44765104730E+03 0.  0.
      99925    2    3    3    0    0  0.49754220989E+02 -0.28876874940E+02  0.79640930957E+02  0.28078764240E+03  0.26303928571E+03 0.  0.
         25    1    3    3    0    0 -0.49754220989E+02  0.28876874940E+02 -0.94716910181E+02  0.16711719716E+03  0.12509000000E+03 0.  0.
         25    1    4    4    0    0  0.44203614920E+02 -0.76434190414E+01  0.77357764581E+02  0.15376642438E+03  0.12509000000E+03 0.  0.
         25    1    4    4    0    0  0.55506060691E+01 -0.21233455899E+02  0.22831663764E+01  0.12702121801E+03  0.12509000000E+03 0.  0.
<mgrwt>
<rscale>  2 0.44765105E+03</rscale>
<asrwt>0</asrwt>
<pdfrwt beam="1">  1       21 0.31825652E-01 0.44765105E+03</pdfrwt>
<pdfrwt beam="2">  1       21 0.34042707E-01 0.44765105E+03</pdfrwt>
<totfact> 0.73271828E+04</totfact>
</mgrwt>
</event>
<event>
 7    0  0.4793433E-002  0.4565293E+03  0.7546771E-02  0.1025793E+00
         21   -1    0    0  502  501  0.00000000000E+00  0.00000000000E+00  0.91947006541E+03  0.91947006541E+03  0.00000000000E+00 0. -1.
         21   -1    0    0  501  502 -0.00000000000E+00 -0.00000000000E+00 -0.56668244975E+02  0.56668244975E+02  0.00000000000E+00 0. -1.
      99926    2    1    2    0    0  0.00000000000E+00  0.00000000000E+00  0.86280182043E+03  0.97613831038E+03  0.45652931960E+03 0.  0.
      99925    2    3    3    0    0 -0.58187686033E+02 -0.92828944766E+02  0.47054174818E+03  0.55008843985E+03  0.26302991292E+03 0.  0.
         25    1    4    4    0    0 -0.33645443976E+02 -0.29674615914E+02  0.29921023047E+03  0.32739405744E+03  0.12509000000E+03 0.  0.
         25    1    4    4    0    0 -0.24542242057E+02 -0.63154328851E+02  0.17133151771E+03  0.22269438241E+03  0.12509000000E+03 0.  0.
         25    1    3    3    0    0  0.58187686033E+02  0.92828944766E+02  0.39226007226E+03  0.42604987053E+03  0.12509000000E+03 0.  0.
<mgrwt>
<rscale>  2 0.45652932E+03</rscale>
<asrwt>0</asrwt>
<pdfrwt beam="1">  1       21 0.13521618E+00 0.45652932E+03</pdfrwt>
<pdfrwt beam="2">  1       21 0.83335660E-02 0.45652932E+03</pdfrwt>
<totfact> 0.39624230E+04</totfact>
</mgrwt>
</event>
<event>
 7    0  0.4793433E-002  0.4455221E+03  0.7546771E-02  0.1029066E+00
         21   -1    0    0  502  501  0.00000000000E+00  0.00000000000E+00  0.48174369695E+02  0.48174369695E+02  0.00000000000E+00 0.  1.
         21   -1    0    0  501  502 -0.00000000000E+00 -0.00000000000E+00 -0.10300598791E+04  0.10300598791E+04  0.00000000000E+00 0.  1.
      99926    2    1    2    0    0 -0.71054273576E-14 -0.71054273576E-14 -0.98188550937E+03  0.10782342488E+04  0.44552210011E+03 0.  0.
      99925    2    3    3    0    0  0.45444301120E+02  0.36857942098E+02 -0.83148212662E+03  0.87404713349E+03  0.26300603087E+03 0.  0.
         25    1    4    4    0    0 -0.20442637082E+01  0.50333900994E+02 -0.40406452708E+03  0.42597339207E+03  0.12509000000E+03 0.  0.
         25    1    4    4    0    0  0.47488564828E+02 -0.13475958895E+02 -0.42741759954E+03  0.44807374143E+03  0.12509000000E+03 0.  0.
         25    1    3    3    0    0 -0.45444301120E+02 -0.36857942098E+02 -0.15040338275E+03  0.20418711527E+03  0.12509000000E+03 0.  0.
<mgrwt>
<rscale>  2 0.44552210E+03</rscale>
<asrwt>0</asrwt>
<pdfrwt beam="1">  1       21 0.70844665E-02 0.44552210E+03</pdfrwt>
<pdfrwt beam="2">  1       21 0.15147939E+00 0.44552210E+03</pdfrwt>
<totfact> 0.39068439E+04</totfact>
</mgrwt>
</event>
<event>
 7    0  0.4793433E-002  0.4563889E+03  0.7546771E-02  0.1025834E+00
         21   -1    0    0  502  501  0.00000000000E+00  0.00000000000E+00  0.27613815853E+03  0.27613815853E+03  0.00000000000E+00 0. -1.
         21   -1    0    0  501  502 -0.00000000000E+00 -0.00000000000E+00 -0.18857487131E+03  0.18857487131E+03  0.00000000000E+00 0. -1.
      99926    2    1    2    0    0  0.00000000000E+00  0.44408920985E-15  0.87563287214E+02  0.46471302984E+03  0.45638894688E+03 0.  0.
      99925    2    3    3    0    0 -0.11259115339E+03 -0.25423687950E+01  0.76322082014E+02  0.29602069375E+03  0.26290675051E+03 0.  0.
         25    1    4    4    0    0 -0.21396504548E+02  0.35424524871E+01  0.59437052927E+02  0.14018070744E+03  0.12509000000E+03 0.  0.
         25    1    3    3    0    0  0.11259115339E+03  0.25423687950E+01  0.11241205199E+02  0.16869233609E+03  0.12509000000E+03 0.  0.
         25    1    4    4    0    0 -0.91194648842E+02 -0.60848212820E+01  0.16885029087E+02  0.15583998631E+03  0.12509000000E+03 0.  0.
<mgrwt>
<rscale>  2 0.45638895E+03</rscale>
<asrwt>0</asrwt>
<pdfrwt beam="1">  1       21 0.40608553E-01 0.45638895E+03</pdfrwt>
<pdfrwt beam="2">  1       21 0.27731599E-01 0.45638895E+03</pdfrwt>
<totfact> 0.67087705E+04</totfact>
</mgrwt>
</event>
<event>
 7    0  0.4793433E-002  0.4627450E+03  0.7546771E-02  0.1023988E+00
         21   -1    0    0  502  501  0.00000000000E+00  0.00000000000E+00  0.12745138720E+03  0.12745138720E+03  0.00000000000E+00 0. -1.
         21   -1    0    0  501  502 -0.00000000000E+00 -0.00000000000E+00 -0.42002868331E+03  0.42002868331E+03  0.00000000000E+00 0. -1.
      99926    2    1    2    0    0  0.00000000000E+00  0.35527136788E-14 -0.29257729611E+03  0.54748007051E+03  0.46274501986E+03 0.  0.
      99925    2    3    3    0    0  0.11749196201E+03 -0.68764090848E+01 -0.21197186195E+03  0.35775292365E+03  0.26306546330E+03 0.  0.
         25    1    4    4    0    0  0.46276400906E+02 -0.38714732447E+02 -0.12331725471E+03  0.18572826710E+03  0.12509000000E+03 0.  0.
         25    1    4    4    0    0  0.71215561100E+02  0.31838323362E+02 -0.88654607239E+02  0.17202465655E+03  0.12509000000E+03 0.  0.
         25    1    3    3    0    0 -0.11749196201E+03  0.68764090848E+01 -0.80605434158E+02  0.18972714685E+03  0.12509000000E+03 0.  0.
<mgrwt>
<rscale>  2 0.46274502E+03</rscale>
<asrwt>0</asrwt>
<pdfrwt beam="1">  1       21 0.18742851E-01 0.46274502E+03</pdfrwt>
<pdfrwt beam="2">  1       21 0.61768923E-01 0.46274502E+03</pdfrwt>
<totfact> 0.58372938E+04</totfact>
</mgrwt>
</event>
<event>
 7    0  0.4793433E-002  0.4558384E+03  0.7546771E-02  0.1025995E+00
         21   -1    0    0  502  501  0.00000000000E+00  0.00000000000E+00  0.58521409544E+03  0.58521409544E+03  0.00000000000E+00 0. -1.
         21   -1    0    0  501  502 -0.00000000000E+00 -0.00000000000E+00 -0.88766082633E+02  0.88766082633E+02  0.00000000000E+00 0. -1.
      99926    2    1    2    0    0  0.00000000000E+00  0.00000000000E+00  0.49644801280E+03  0.67398017807E+03  0.45583840450E+03 0.  0.
      99925    2    3    3    0    0  0.37885410667E+02 -0.32698971127E+02  0.46352678266E+03  0.53528683811E+03  0.26300264972E+03 0.  0.
         25    1    3    3    0    0 -0.37885410667E+02  0.32698971127E+02  0.32921230141E+02  0.13869333996E+03  0.12509000000E+03 0.  0.
         25    1    4    4    0    0 -0.70424368917E+01  0.64836794556E+01  0.26484167912E+03  0.29305333493E+03  0.12509000000E+03 0.  0.
         25    1    4    4    0    0  0.44927847558E+02 -0.39182650582E+02  0.19868510354E+03  0.24223350318E+03  0.12509000000E+03 0.  0.
<mgrwt>
<rscale>  2 0.45583840E+03</rscale>
<asrwt>0</asrwt>
<pdfrwt beam="1">  1       21 0.86060895E-01 0.45583840E+03</pdfrwt>
<pdfrwt beam="2">  1       21 0.13053836E-01 0.45583840E+03</pdfrwt>
<totfact> 0.53981281E+04</totfact>
</mgrwt>
</event>
<event>
 7    0  0.4793433E-002  0.4374832E+03  0.7546771E-02  0.1031522E+00
         21   -1    0    0  502  501  0.00000000000E+00  0.00000000000E+00  0.13576613049E+03  0.13576613049E+03  0.00000000000E+00 0.  1.
         21   -1    0    0  501  502 -0.00000000000E+00 -0.00000000000E+00 -0.35242882971E+03  0.35242882971E+03  0.00000000000E+00 0.  1.
      99926    2    1    2    0    0  0.00000000000E+00 -0.14210854715E-13 -0.21666269923E+03  0.48819496020E+03  0.43748324988E+03 0.  0.
      99925    2    3    3    0    0  0.74940481078E+01 -0.94970709201E+02 -0.12545644951E+03  0.30642124249E+03  0.26282895724E+03 0.  0.
         25    1    4    4    0    0 -0.59213625890E+01 -0.94964872545E+01 -0.74457800745E+02  0.14600245887E+03  0.12509000000E+03 0.  0.
         25    1    4    4    0    0  0.13415410697E+02 -0.85474221946E+02 -0.50998648769E+02  0.16041878362E+03  0.12509000000E+03 0.  0.
         25    1    3    3    0    0 -0.74940481078E+01  0.94970709201E+02 -0.91206249713E+02  0.18177371771E+03  0.12509000000E+03 0.  0.
<mgrwt>
<rscale>  2 0.43748325E+03</rscale>
<asrwt>0</asrwt>
<pdfrwt beam="1">  1       21 0.19965608E-01 0.43748325E+03</pdfrwt>
<pdfrwt beam="2">  1       21 0.51827768E-01 0.43748325E+03</pdfrwt>
<totfact> 0.76160029E+04</totfact>
</mgrwt>
</event>
<event>
 7    0  0.4793433E-002  0.4516115E+03  0.7546771E-02  0.1027243E+00
         21   -1    0    0  502  501  0.00000000000E+00  0.00000000000E+00  0.43681993434E+03  0.43681993434E+03  0.00000000000E+00 0.  1.
         21   -1    0    0  501  502 -0.00000000000E+00 -0.00000000000E+00 -0.11672597086E+03  0.11672597086E+03  0.00000000000E+00 0.  1.
      99926    2    1    2    0    0  0.00000000000E+00  0.00000000000E+00  0.32009396349E+03  0.55354590520E+03  0.45161147428E+03 0.  0.
      99925    2    3    3    0    0  0.87387804055E+01 -0.38051788269E+02  0.32864996066E+03  0.42222561712E+03  0.26218194110E+03 0.  0.
         25    1    3    3    0    0 -0.87387804055E+01  0.38051788269E+02 -0.85559971721E+01  0.13132028808E+03  0.12509000000E+03 0.  0.
         25    1    4    4    0    0  0.10728333326E+02 -0.21937379858E+02  0.10364210004E+03  0.16427275724E+03  0.12509000000E+03 0.  0.
         25    1    4    4    0    0 -0.19895529206E+01 -0.16114408411E+02  0.22500786062E+03  0.25795285988E+03  0.12509000000E+03 0.  0.
<mgrwt>
<rscale>  2 0.45161147E+03</rscale>
<asrwt>0</asrwt>
<pdfrwt beam="1">  1       21 0.64238225E-01 0.45161147E+03</pdfrwt>
<pdfrwt beam="2">  1       21 0.17165584E-01 0.45161147E+03</pdfrwt>
<totfact> 0.63313048E+04</totfact>
</mgrwt>
</event>
<event>
 7    0  0.4793433E-002  0.4487123E+03  0.7546771E-02  0.1028107E+00
         21   -1    0    0  502  501  0.00000000000E+00  0.00000000000E+00  0.10432710386E+03  0.10432710386E+03  0.00000000000E+00 0. -1.
         21   -1    0    0  501  502 -0.00000000000E+00 -0.00000000000E+00 -0.48247935742E+03  0.48247935742E+03  0.00000000000E+00 0. -1.
      99926    2    1    2    0    0  0.00000000000E+00  0.71054273576E-14 -0.37815225356E+03  0.58680646127E+03  0.44871226428E+03 0.  0.
      99925    2    3    3    0    0 -0.88043406404E+02  0.49515969848E+02 -0.28590023997E+03  0.40143813929E+03  0.26307823890E+03 0.  0.
         25    1    4    4    0    0 -0.28939111613E+02  0.50107563648E+02 -0.18260088746E+03  0.22877681770E+03  0.12509000000E+03 0.  0.
         25    1    3    3    0    0  0.88043406404E+02 -0.49515969848E+02 -0.92252013594E+02  0.18536832198E+03  0.12509000000E+03 0.  0.
         25    1    4    4    0    0 -0.59104294791E+02 -0.59159380008E+00 -0.10329935251E+03  0.17266132159E+03  0.12509000000E+03 0.  0.
<mgrwt>
<rscale>  2 0.44871226E+03</rscale>
<asrwt>0</asrwt>
<pdfrwt beam="1">  1       21 0.15342221E-01 0.44871226E+03</pdfrwt>
<pdfrwt beam="2">  1       21 0.70952847E-01 0.44871226E+03</pdfrwt>
<totfact> 0.62548907E+04</totfact>
</mgrwt>
</event>
<event>
 7    0  0.4793433E-002  0.4564902E+03  0.7546771E-02  0.1025804E+00
         21   -1    0    0  502  501  0.00000000000E+00  0.00000000000E+00  0.19411250628E+03  0.19411250628E+03  0.00000000000E+00 0.  1.
         21   -1    0    0  501  502 -0.00000000000E+00 -0.00000000000E+00 -0.26837952438E+03  0.26837952438E+03  0.00000000000E+00 0.  1.
      99926    2    1    2    0    0  0.00000000000E+00 -0.17763568394E-14 -0.74267018092E+02  0.46249203066E+03  0.45649018440E+03 0.  0.
      99925    2    3    3    0    0 -0.88150266169E+02  0.12208725507E+02 -0.11987842172E+03  0.30234387849E+03  0.26290960892E+03 0.  0.
         25    1    4    4    0    0 -0.55686170260E+02 -0.32050601581E+02 -0.68217088064E+02  0.15629865586E+03  0.12509000000E+03 0.  0.
         25    1    4    4    0    0 -0.32464095909E+02  0.44259327088E+02 -0.51661333653E+02  0.14604522263E+03  0.12509000000E+03 0.  0.
         25    1    3    3    0    0  0.88150266169E+02 -0.12208725507E+02  0.45611403624E+02  0.16014815217E+03  0.12509000000E+03 0.  0.
<mgrwt>
<rscale>  2 0.45649018E+03</rscale>
<asrwt>0</asrwt>
<pdfrwt beam="1">  1       21 0.28545957E-01 0.45649018E+03</pdfrwt>
<pdfrwt beam="2">  1       21 0.39467577E-01 0.45649018E+03</pdfrwt>
<totfact> 0.67197096E+04</totfact>
</mgrwt>
</event>
<event>
 7    0  0.4793433E-002  0.4520125E+03  0.7546771E-02  0.1027124E+00
         21   -1    0    0  502  501  0.00000000000E+00  0.00000000000E+00  0.87244214563E+02  0.87244214563E+02  0.00000000000E+00 0.  1.
         21   -1    0    0  501  502 -0.00000000000E+00 -0.00000000000E+00 -0.58546955305E+03  0.58546955305E+03  0.00000000000E+00 0.  1.
      99926    2    1    2    0    0  0.14210854715E-13  0.71054273576E-14 -0.49822533849E+03  0.67271376761E+03  0.45201252773E+03 0.  0.
      99925    2    3    3    0    0 -0.98460040014E+02 -0.44081394050E+02 -0.28020595620E+03  0.39918587519E+03  0.26305215506E+03 0.  0.
         25    1    4    4    0    0 -0.76773330576E+02 -0.55325826802E+02 -0.15309531014E+03  0.21918205558E+03  0.12509000000E+03 0.  0.
         25    1    3    3    0    0  0.98460040014E+02  0.44081394050E+02 -0.21801938229E+03  0.27352789243E+03  0.12509000000E+03 0.  0.
         25    1    4    4    0    0 -0.21686709438E+02  0.11244432752E+02 -0.12711064605E+03  0.18000381961E+03  0.12509000000E+03 0.  0.
<mgrwt>
<rscale>  2 0.45201253E+03</rscale>
<asrwt>0</asrwt>
<pdfrwt beam="1">  1       21 0.12830032E-01 0.45201253E+03</pdfrwt>
<pdfrwt beam="2">  1       21 0.86098462E-01 0.45201253E+03</pdfrwt>
<totfact> 0.55709696E+04</totfact>
</mgrwt>
</event>
<event>
 7    0  0.4793433E-002  0.4430918E+03  0.7546771E-02  0.1029802E+00
         21   -1    0    0  502  501  0.00000000000E+00  0.00000000000E+00  0.11107652966E+03  0.11107652966E+03  0.00000000000E+00 0.  1.
         21   -1    0    0  501  502 -0.00000000000E+00 -0.00000000000E+00 -0.44188086017E+03  0.44188086017E+03  0.00000000000E+00 0.  1.
      99926    2    1    2    0    0  0.00000000000E+00 -0.26645352591E-14 -0.33080433050E+03  0.55295738983E+03  0.44309183009E+03 0.  0.
      99925    2    3    3    0    0 -0.90460434686E+02 -0.74090931160E+01 -0.26748202369E+03  0.38593880540E+03  0.26299076717E+03 0.  0.
         25    1    4    4    0    0 -0.32609009466E+02  0.34928100724E+02 -0.12290541967E+03  0.18175964900E+03  0.12509000000E+03 0.  0.
         25    1    4    4    0    0 -0.57851425220E+02 -0.42337193840E+02 -0.14457660401E+03  0.20417915641E+03  0.12509000000E+03 0.  0.
         25    1    3    3    0    0  0.90460434686E+02  0.74090931160E+01 -0.63322306815E+02  0.16701858443E+03  0.12509000000E+03 0.  0.
<mgrwt>
<rscale>  2 0.44309183E+03</rscale>
<asrwt>0</asrwt>
<pdfrwt beam="1">  1       21 0.16334784E-01 0.44309183E+03</pdfrwt>
<pdfrwt beam="2">  1       21 0.64982478E-01 0.44309183E+03</pdfrwt>
<totfact> 0.67840228E+04</totfact>
</mgrwt>
</event>
<event>
 7    0  0.4793433E-002  0.4523307E+03  0.7546771E-02  0.1027029E+00
         21   -1    0    0  502  501  0.00000000000E+00  0.00000000000E+00  0.14108637945E+03  0.14108637945E+03  0.00000000000E+00 0. -1.
         21   -1    0    0  501  502 -0.00000000000E+00 -0.00000000000E+00 -0.36254933928E+03  0.36254933928E+03  0.00000000000E+00 0. -1.
      99926    2    1    2    0    0  0.00000000000E+00  0.14210854715E-13 -0.22146295983E+03  0.50363571873E+03  0.45233073586E+03 0.  0.
      99925    2    3    3    0    0  0.77348852984E+01 -0.10379891940E+03 -0.18295353549E+03  0.33640973994E+03  0.26242231777E+03 0.  0.
         25    1    4    4    0    0  0.22990673158E+02 -0.20713644946E+02 -0.10668971729E+03  0.16729563657E+03  0.12509000000E+03 0.  0.
         25    1    4    4    0    0 -0.15255787860E+02 -0.83085274453E+02 -0.76263818202E+02  0.16911410338E+03  0.12509000000E+03 0.  0.
         25    1    3    3    0    0 -0.77348852984E+01  0.10379891940E+03 -0.38509424343E+02  0.16722597879E+03  0.12509000000E+03 0.  0.
<mgrwt>
<rscale>  2 0.45233074E+03</rscale>
<asrwt>0</asrwt>
<pdfrwt beam="1">  1       21 0.20747997E-01 0.45233074E+03</pdfrwt>
<pdfrwt beam="2">  1       21 0.53316078E-01 0.45233074E+03</pdfrwt>
<totfact> 0.66411921E+04</totfact>
</mgrwt>
</event>
<event>
 7    0  0.4793433E-002  0.4424673E+03  0.7546771E-02  0.1029992E+00
         21   -1    0    0  502  501  0.00000000000E+00  0.00000000000E+00  0.13375080614E+03  0.13375080614E+03  0.00000000000E+00 0. -1.
         21   -1    0    0  501  502 -0.00000000000E+00 -0.00000000000E+00 -0.36593662552E+03  0.36593662552E+03  0.00000000000E+00 0. -1.
      99926    2    1    2    0    0  0.00000000000E+00 -0.35527136788E-14 -0.23218581938E+03  0.49968743166E+03  0.44246725826E+03 0.  0.
      99925    2    3    3    0    0 -0.99062760880E+02 -0.19191839660E+02 -0.15139183588E+03  0.31980710151E+03  0.26301204707E+03 0.  0.
         25    1    3    3    0    0  0.99062760880E+02  0.19191839660E+02 -0.80793983502E+02  0.17988033014E+03  0.12509000000E+03 0.  0.
         25    1    4    4    0    0 -0.77531410473E+02 -0.40586700206E+02 -0.74516554749E+02  0.16987826487E+03  0.12509000000E+03 0.  0.
         25    1    4    4    0    0 -0.21531350406E+02  0.21394860546E+02 -0.76875281133E+02  0.14992883664E+03  0.12509000000E+03 0.  0.
<mgrwt>
<rscale>  2 0.44246726E+03</rscale>
<asrwt>0</asrwt>
<pdfrwt beam="1">  1       21 0.19669236E-01 0.44246726E+03</pdfrwt>
<pdfrwt beam="2">  1       21 0.53814210E-01 0.44246726E+03</pdfrwt>
<totfact> 0.72212760E+04</totfact>
</mgrwt>
</event>
<event>
 7    0  0.4793433E-002  0.4567166E+03  0.7546771E-02  0.1025738E+00
         21   -1    0    0  502  501  0.00000000000E+00  0.00000000000E+00  0.21702262670E+03  0.21702262670E+03  0.00000000000E+00 0.  1.
         21   -1    0    0  501  502 -0.00000000000E+00 -0.00000000000E+00 -0.24028609149E+03  0.24028609149E+03  0.00000000000E+00 0.  1.
      99926    2    1    2    0    0  0.71054273576E-14  0.00000000000E+00 -0.23263464783E+02  0.45730871819E+03  0.45671662433E+03 0.  0.
      99925    2    3    3    0    0 -0.47456242834E+02 -0.65354511580E+02  0.66918906693E+02  0.28322920937E+03  0.26309188090E+03 0.  0.
         25    1    3    3    0    0  0.47456242834E+02  0.65354511580E+02 -0.90182371476E+02  0.17407950882E+03  0.12509000000E+03 0.  0.
         25    1    4    4    0    0  0.61965896123E+00 -0.64259643874E+02  0.25204384870E+02  0.14287216288E+03  0.12509000000E+03 0.  0.
         25    1    4    4    0    0 -0.48075901795E+02 -0.10948677057E+01  0.41714521823E+02  0.14035704649E+03  0.12509000000E+03 0.  0.
<mgrwt>
<rscale>  2 0.45671662E+03</rscale>
<asrwt>0</asrwt>
<pdfrwt beam="1">  1       21 0.31915092E-01 0.45671662E+03</pdfrwt>
<pdfrwt beam="2">  1       21 0.35336190E-01 0.45671662E+03</pdfrwt>
<totfact> 0.67448450E+04</totfact>
</mgrwt>
</event>
<event>
 7    0  0.4793433E-002  0.4553239E+03  0.7546771E-02  0.1026146E+00
         21   -1    0    0  502  501  0.00000000000E+00  0.00000000000E+00  0.37251979310E+03  0.37251979310E+03  0.00000000000E+00 0. -1.
         21   -1    0    0  501  502 -0.00000000000E+00 -0.00000000000E+00 -0.13913347524E+03  0.13913347524E+03  0.00000000000E+00 0. -1.
      99926    2    1    2    0    0  0.35527136788E-14 -0.71054273576E-14  0.23338631786E+03  0.51165326834E+03  0.45532394363E+03 0.  0.
      99925    2    3    3    0    0 -0.15471757652E+02  0.63829427939E+02  0.25081113949E+03  0.36929911959E+03  0.26298676941E+03 0.  0.
         25    1    4    4    0    0  0.24411314953E+02  0.68623294623E+01  0.10944561044E+03  0.16813343989E+03  0.12509000000E+03 0.  0.
         25    1    3    3    0    0  0.15471757652E+02 -0.63829427939E+02 -0.17424821633E+02  0.14235414874E+03  0.12509000000E+03 0.  0.
         25    1    4    4    0    0 -0.39883072605E+02  0.56967098476E+02  0.14136552905E+03  0.20116567971E+03  0.12509000000E+03 0.  0.
<mgrwt>
<rscale>  2 0.45532394E+03</rscale>
<asrwt>0</asrwt>
<pdfrwt beam="1">  1       21 0.54782322E-01 0.45532394E+03</pdfrwt>
<pdfrwt beam="2">  1       21 0.20460805E-01 0.45532394E+03</pdfrwt>
<totfact> 0.64294048E+04</totfact>
</mgrwt>
</event>
<event>
 7    0  0.4793433E-002  0.4417858E+03  0.7546771E-02  0.1030200E+00
         21   -1    0    0  502  501  0.00000000000E+00  0.00000000000E+00  0.14255111534E+03  0.14255111534E+03  0.00000000000E+00 0.  1.
         21   -1    0    0  501  502 -0.00000000000E+00 -0.00000000000E+00 -0.34228889716E+03  0.34228889716E+03  0.00000000000E+00 0.  1.
      99926    2    1    2    0    0  0.00000000000E+00 -0.71054273576E-14 -0.19973778182E+03  0.48484001250E+03  0.44178575829E+03 0.  0.
      99925    2    3    3    0    0 -0.87167454940E+02 -0.48352314215E+02 -0.10672636509E+03  0.29981368131E+03  0.26184272952E+03 0.  0.
         25    1    4    4    0    0 -0.59030384691E+02  0.11147514019E+02 -0.49807381349E+02  0.14743519499E+03  0.12509000000E+03 0.  0.
         25    1    4    4    0    0 -0.28137070249E+02 -0.59499828233E+02 -0.56918983739E+02  0.15237848632E+03  0.12509000000E+03 0.  0.
         25    1    3    3    0    0  0.87167454940E+02  0.48352314215E+02 -0.93011416736E+02  0.18502633119E+03  0.12509000000E+03 0.  0.
<mgrwt>
<rscale>  2 0.44178576E+03</rscale>
<asrwt>0</asrwt>
<pdfrwt beam="1">  1       21 0.20963399E-01 0.44178576E+03</pdfrwt>
<pdfrwt beam="2">  1       21 0.50336602E-01 0.44178576E+03</pdfrwt>
<totfact> 0.73791842E+04</totfact>
</mgrwt>
</event>
<event>
 7    0  0.4793433E-002  0.4531944E+03  0.7546771E-02  0.1026774E+00
         21   -1    0    0  502  501  0.00000000000E+00  0.00000000000E+00  0.85791544695E+03  0.85791544695E+03  0.00000000000E+00 0. -1.
         21   -1    0    0  501  502 -0.00000000000E+00 -0.00000000000E+00 -0.59850072341E+02  0.59850072341E+02  0.00000000000E+00 0. -1.
      99926    2    1    2    0    0  0.00000000000E+00 -0.14210854715E-13  0.79806537461E+03  0.91776551930E+03  0.45319444641E+03 0.  0.
      99925    2    3    3    0    0 -0.36821097681E+02  0.10479393078E+03  0.52287140809E+03  0.59571460955E+03  0.26295213531E+03 0.  0.
         25    1    4    4    0    0 -0.53496276662E+00  0.50696701936E+02  0.18011432105E+03  0.22507580617E+03  0.12509000000E+03 0.  0.
         25    1    3    3    0    0  0.36821097681E+02 -0.10479393078E+03  0.27519396652E+03  0.32205090975E+03  0.12509000000E+03 0.  0.
         25    1    4    4    0    0 -0.36286134914E+02  0.54097228841E+02  0.34275708704E+03  0.37063880338E+03  0.12509000000E+03 0.  0.
<mgrwt>
<rscale>  2 0.45319445E+03</rscale>
<asrwt>0</asrwt>
<pdfrwt beam="1">  1       21 0.12616403E+00 0.45319445E+03</pdfrwt>
<pdfrwt beam="2">  1       21 0.88014818E-02 0.45319445E+03</pdfrwt>
<totfact> 0.43079736E+04</totfact>
</mgrwt>
</event>
<event>
 7    0  0.4793433E-002  0.4652871E+03  0.7546771E-02  0.1023259E+00
         21   -1    0    0  502  501  0.00000000000E+00  0.00000000000E+00  0.52573750775E+02  0.52573750775E+02  0.00000000000E+00 0. -1.
         21   -1    0    0  501  502 -0.00000000000E+00 -0.00000000000E+00 -0.10294686595E+04  0.10294686595E+04  0.00000000000E+00 0. -1.
      99926    2    1    2    0    0  0.00000000000E+00  0.00000000000E+00 -0.97689490876E+03  0.10820424103E+04  0.46528713172E+03 0.  0.
      99925    2    3    3    0    0  0.41282087329E+02  0.87008281041E+02 -0.78554146465E+03  0.83397326597E+03  0.26298548240E+03 0.  0.
         25    1    4    4    0    0  0.24579766592E+02  0.60775475773E+02 -0.51944148552E+03  0.53829804789E+03  0.12509000000E+03 0.  0.
         25    1    4    4    0    0  0.16702320736E+02  0.26232805267E+02 -0.26609997913E+03  0.29567521807E+03  0.12509000000E+03 0.  0.
         25    1    3    3    0    0 -0.41282087329E+02 -0.87008281041E+02 -0.19135344411E+03  0.24806914434E+03  0.12509000000E+03 0.  0.
<mgrwt>
<rscale>  2 0.46528713E+03</rscale>
<asrwt>0</asrwt>
<pdfrwt beam="1">  1       21 0.77314346E-02 0.46528713E+03</pdfrwt>
<pdfrwt beam="2">  1       21 0.15139244E+00 0.46528713E+03</pdfrwt>
<totfact> 0.33363610E+04</totfact>
</mgrwt>
</event>
<event>
 7    0  0.4793433E-002  0.4526356E+03  0.7546771E-02  0.1026939E+00
         21   -1    0    0  502  501  0.00000000000E+00  0.00000000000E+00  0.27519896671E+03  0.27519896671E+03  0.00000000000E+00 0.  1.
         21   -1    0    0  501  502 -0.00000000000E+00 -0.00000000000E+00 -0.18611898878E+03  0.18611898878E+03  0.00000000000E+00 0.  1.
      99926    2    1    2    0    0  0.00000000000E+00  0.00000000000E+00  0.89079977932E+02  0.46131795550E+03  0.45263563006E+03 0.  0.
      99925    2    3    3    0    0  0.54623231721E+02  0.94430455086E+02  0.75969336035E+02  0.29482409578E+03  0.26315223568E+03 0.  0.
         25    1    4    4    0    0  0.28730619710E+02  0.23401998537E+02  0.71106458943E+02  0.14858243048E+03  0.12509000000E+03 0.  0.
         25    1    3    3    0    0 -0.54623231721E+02 -0.94430455086E+02  0.13110641897E+02  0.16649385971E+03  0.12509000000E+03 0.  0.
         25    1    4    4    0    0  0.25892612010E+02  0.71028456550E+02  0.48628770924E+01  0.14624166530E+03  0.12509000000E+03 0.  0.
<mgrwt>
<rscale>  2 0.45263563E+03</rscale>
<asrwt>0</asrwt>
<pdfrwt beam="1">  1       21 0.40470436E-01 0.45263563E+03</pdfrwt>
<pdfrwt beam="2">  1       21 0.27370440E-01 0.45263563E+03</pdfrwt>
<totfact> 0.69379254E+04</totfact>
</mgrwt>
</event>
<event>
 7    0  0.4793433E-002  0.4643302E+03  0.7546771E-02  0.1023533E+00
         21   -1    0    0  502  501  0.00000000000E+00  0.00000000000E+00  0.92263185386E+03  0.92263185386E+03  0.00000000000E+00 0.  1.
         21   -1    0    0  501  502 -0.00000000000E+00 -0.00000000000E+00 -0.58420521817E+02  0.58420521817E+02  0.00000000000E+00 0.  1.
      99926    2    1    2    0    0  0.00000000000E+00  0.00000000000E+00  0.86421133204E+03  0.98105237568E+03  0.46433020297E+03 0.  0.
      99925    2    3    3    0    0  0.38481733483E+02  0.11518734724E+03  0.52479840903E+03  0.59947982795E+03  0.26308501519E+03 0.  0.
         25    1    4    4    0    0  0.43702966279E+02  0.85758981307E+02  0.33355110045E+03  0.36901002269E+03  0.12509000000E+03 0.  0.
         25    1    4    4    0    0 -0.52212327957E+01  0.29428365932E+02  0.19124730858E+03  0.23046980525E+03  0.12509000000E+03 0.  0.
         25    1    3    3    0    0 -0.38481733483E+02 -0.11518734724E+03  0.33941292301E+03  0.38157254773E+03  0.12509000000E+03 0.  0.
<mgrwt>
<rscale>  2 0.46433020E+03</rscale>
<asrwt>0</asrwt>
<pdfrwt beam="1">  1       21 0.13568115E+00 0.46433020E+03</pdfrwt>
<pdfrwt beam="2">  1       21 0.85912538E-02 0.46433020E+03</pdfrwt>
<totfact> 0.37125574E+04</totfact>
</mgrwt>
</event>
<event>
 7    0  0.4793433E-002  0.4567154E+03  0.7546771E-02  0.1025738E+00
         21   -1    0    0  502  501  0.00000000000E+00  0.00000000000E+00  0.58126732639E+03  0.58126732639E+03  0.00000000000E+00 0.  1.
         21   -1    0    0  501  502 -0.00000000000E+00 -0.00000000000E+00 -0.89712989230E+02  0.89712989230E+02  0.00000000000E+00 0.  1.
      99926    2    1    2    0    0  0.00000000000E+00 -0.35527136788E-14  0.49155433716E+03  0.67098031562E+03  0.45671535727E+03 0.  0.
      99925    2    3    3    0    0  0.71743409984E+02  0.28025985785E+02  0.18374855489E+03  0.32991656725E+03  0.26296166482E+03 0.  0.
         25    1    4    4    0    0  0.20768191308E+02 -0.16903856546E+02  0.60007641559E+02  0.14129926851E+03  0.12509000000E+03 0.  0.
         25    1    4    4    0    0  0.50975218676E+02  0.44929842331E+02  0.12374091334E+03  0.18861729874E+03  0.12509000000E+03 0.  0.
         25    1    3    3    0    0 -0.71743409984E+02 -0.28025985785E+02  0.30780578227E+03  0.34106374837E+03  0.12509000000E+03 0.  0.
<mgrwt>
<rscale>  2 0.45671536E+03</rscale>
<asrwt>0</asrwt>
<pdfrwt beam="1">  1       21 0.85480487E-01 0.45671536E+03</pdfrwt>
<pdfrwt beam="2">  1       21 0.13193087E-01 0.45671536E+03</pdfrwt>
<totfact> 0.53776311E+04</totfact>
</mgrwt>
</event>
<event>
 7    0  0.4793433E-002  0.4188803E+03  0.7546771E-02  0.1037431E+00
         21   -1    0    0  502  501  0.00000000000E+00  0.00000000000E+00  0.24893028183E+03  0.24893028183E+03  0.00000000000E+00 0. -1.
         21   -1    0    0  501  502 -0.00000000000E+00 -0.00000000000E+00 -0.17621473170E+03  0.17621473170E+03  0.00000000000E+00 0. -1.
      99926    2    1    2    0    0  0.00000000000E+00  0.00000000000E+00  0.72715550123E+02  0.42514501353E+03  0.41888033052E+03 0.  0.
      99925    2    3    3    0    0  0.58719383221E+01  0.74294395449E+02  0.49229516355E+02  0.27765522156E+03  0.26289682372E+03 0.  0.
         25    1    4    4    0    0  0.18468396482E+01  0.26168853702E+02  0.63668287047E+02  0.14279138138E+03  0.12509000000E+03 0.  0.
         25    1    3    3    0    0 -0.58719383221E+01 -0.74294395449E+02  0.23486033768E+02  0.14748979198E+03  0.12509000000E+03 0.  0.
         25    1    4    4    0    0  0.40250986739E+01  0.48125541747E+02 -0.14438770692E+02  0.13486384018E+03  0.12509000000E+03 0.  0.
<mgrwt>
<rscale>  2 0.41888033E+03</rscale>
<asrwt>0</asrwt>
<pdfrwt beam="1">  1       21 0.36607395E-01 0.41888033E+03</pdfrwt>
<pdfrwt beam="2">  1       21 0.25913931E-01 0.41888033E+03</pdfrwt>
<totfact> 0.95467346E+04</totfact>
</mgrwt>
</event>
<event>
 7    0  0.4793433E-002  0.4532154E+03  0.7546771E-02  0.1026768E+00
         21   -1    0    0  502  501  0.00000000000E+00  0.00000000000E+00  0.43455076105E+03  0.43455076105E+03  0.00000000000E+00 0.  1.
         21   -1    0    0  501  502 -0.00000000000E+00 -0.00000000000E+00 -0.11817041516E+03  0.11817041516E+03  0.00000000000E+00 0.  1.
      99926    2    1    2    0    0 -0.11102230246E-15  0.00000000000E+00  0.31638034589E+03  0.55272117621E+03  0.45321537414E+03 0.  0.
      99925    2    3    3    0    0 -0.77713461850E+00 -0.15716232045E+02  0.64819398743E+02  0.27133528083E+03  0.26300889012E+03 0.  0.
         25    1    3    3    0    0  0.77713461850E+00  0.15716232045E+02  0.25156094715E+03  0.28138589538E+03  0.12509000000E+03 0.  0.
         25    1    4    4    0    0 -0.16449675438E+02  0.29190140561E+02  0.27265891884E+02  0.13233893262E+03  0.12509000000E+03 0.  0.
         25    1    4    4    0    0  0.15672540819E+02 -0.44906372607E+02  0.37553506859E+02  0.13899634820E+03  0.12509000000E+03 0.  0.
<mgrwt>
<rscale>  2 0.45321537E+03</rscale>
<asrwt>0</asrwt>
<pdfrwt beam="1">  1       21 0.63904523E-01 0.45321537E+03</pdfrwt>
<pdfrwt beam="2">  1       21 0.17378002E-01 0.45321537E+03</pdfrwt>
<totfact> 0.62565734E+04</totfact>
</mgrwt>
</event>
<event>
 7    0  0.4793433E-002  0.4516631E+03  0.7546771E-02  0.1027227E+00
         21   -1    0    0  502  501  0.00000000000E+00  0.00000000000E+00  0.78130365738E+03  0.78130365738E+03  0.00000000000E+00 0. -1.
         21   -1    0    0  501  502 -0.00000000000E+00 -0.00000000000E+00 -0.65275385971E+02  0.65275385971E+02  0.00000000000E+00 0. -1.
      99926    2    1    2    0    0  0.00000000000E+00  0.14210854715E-13  0.71602827141E+03  0.84657904335E+03  0.45166313906E+03 0.  0.
      99925    2    3    3    0    0 -0.53294663336E+02  0.93188121343E+02  0.49757047906E+03  0.57290832472E+03  0.26291295099E+03 0.  0.
         25    1    4    4    0    0 -0.13173503145E+02  0.79957977823E+02  0.30436084897E+03  0.33889504849E+03  0.12509000000E+03 0.  0.
         25    1    4    4    0    0 -0.40121160191E+02  0.13230143519E+02  0.19320963009E+03  0.23401327623E+03  0.12509000000E+03 0.  0.
         25    1    3    3    0    0  0.53294663336E+02 -0.93188121343E+02  0.21845779235E+03  0.27367071863E+03  0.12509000000E+03 0.  0.
<mgrwt>
<rscale>  2 0.45166314E+03</rscale>
<asrwt>0</asrwt>
<pdfrwt beam="1">  1       21 0.11489759E+00 0.45166314E+03</pdfrwt>
<pdfrwt beam="2">  1       21 0.95993219E-02 0.45166314E+03</pdfrwt>
<totfact> 0.46806063E+04</totfact>
</mgrwt>
</event>
<event>
 7    0  0.4793433E-002  0.4588916E+03  0.7546771E-02  0.1025103E+00
         21   -1    0    0  502  501  0.00000000000E+00  0.00000000000E+00  0.17758601941E+03  0.17758601941E+03  0.00000000000E+00 0.  1.
         21   -1    0    0  501  502 -0.00000000000E+00 -0.00000000000E+00 -0.29644998281E+03  0.29644998281E+03  0.00000000000E+00 0.  1.
      99926    2    1    2    0    0  0.00000000000E+00  0.00000000000E+00 -0.11886396339E+03  0.47403600222E+03  0.45889158808E+03 0.  0.
      99925    2    3    3    0    0  0.11425707189E+03 -0.23683727216E+02 -0.71395801797E+02  0.29650760484E+03  0.26306615480E+03 0.  0.
         25    1    3    3    0    0 -0.11425707189E+03  0.23683727216E+02 -0.47468161594E+02  0.17752839738E+03  0.12509000000E+03 0.  0.
         25    1    4    4    0    0  0.99484856200E+02 -0.16591415717E+01 -0.43080458803E+02  0.16553979399E+03  0.12509000000E+03 0.  0.
         25    1    4    4    0    0  0.14772215691E+02 -0.22024585644E+02 -0.28315342994E+02  0.13096781085E+03  0.12509000000E+03 0.  0.
<mgrwt>
<rscale>  2 0.45889159E+03</rscale>
<asrwt>0</asrwt>
<pdfrwt beam="1">  1       21 0.26115592E-01 0.45889159E+03</pdfrwt>
<pdfrwt beam="2">  1       21 0.43595585E-01 0.45889159E+03</pdfrwt>
<totfact> 0.65103408E+04</totfact>
</mgrwt>
</event>
<event>
 7    0  0.4793433E-002  0.4612974E+03  0.7546771E-02  0.1024406E+00
         21   -1    0    0  502  501  0.00000000000E+00  0.00000000000E+00  0.63746694720E+02  0.63746694720E+02  0.00000000000E+00 0.  1.
         21   -1    0    0  501  502 -0.00000000000E+00 -0.00000000000E+00 -0.83453476112E+03  0.83453476112E+03  0.00000000000E+00 0.  1.
      99926    2    1    2    0    0  0.00000000000E+00 -0.35527136788E-14 -0.77078806640E+03  0.89828145584E+03  0.46129744266E+03 0.  0.
      99925    2    3    3    0    0 -0.60740242695E+02 -0.25182382990E+02 -0.67540436599E+03  0.72778486379E+03  0.26301372754E+03 0.  0.
         25    1    4    4    0    0 -0.33663439676E+02 -0.49354927337E+02 -0.39465061535E+03  0.41828907746E+03  0.12509000000E+03 0.  0.
         25    1    4    4    0    0 -0.27076803019E+02  0.24172544347E+02 -0.28075375064E+03  0.30949578634E+03  0.12509000000E+03 0.  0.
         25    1    3    3    0    0  0.60740242695E+02  0.25182382990E+02 -0.95383700411E+02  0.17049659205E+03  0.12509000000E+03 0.  0.
<mgrwt>
<rscale>  2 0.46129744E+03</rscale>
<asrwt>0</asrwt>
<pdfrwt beam="1">  1       21 0.93745147E-02 0.46129744E+03</pdfrwt>
<pdfrwt beam="2">  1       21 0.12272569E+00 0.46129744E+03</pdfrwt>
<totfact> 0.41236881E+04</totfact>
</mgrwt>
</event>
<event>
 7    0  0.4793433E-002  0.4577059E+03  0.7546771E-02  0.1025449E+00
         21   -1    0    0  502  501  0.00000000000E+00  0.00000000000E+00  0.14466675772E+04  0.14466675772E+04  0.00000000000E+00 0.  1.
         21   -1    0    0  501  502 -0.00000000000E+00 -0.00000000000E+00 -0.36202973380E+02  0.36202973380E+02  0.00000000000E+00 0.  1.
      99926    2    1    2    0    0  0.00000000000E+00  0.00000000000E+00  0.14104646038E+04  0.14828705506E+04  0.45770587843E+03 0.  0.
      99925    2    3    3    0    0  0.93282418203E+01 -0.20683822112E+02  0.12529781115E+04  0.12804740587E+04  0.26295404597E+03 0.  0.
         25    1    4    4    0    0 -0.10522724310E+01  0.14267456906E+02  0.77017205451E+03  0.78039552103E+03  0.12509000000E+03 0.  0.
         25    1    4    4    0    0  0.10380514251E+02 -0.34951279017E+02  0.48280605704E+03  0.50007853762E+03  0.12509000000E+03 0.  0.
         25    1    3    3    0    0 -0.93282418203E+01  0.20683822112E+02  0.15748649227E+03  0.20239649192E+03  0.12509000000E+03 0.  0.
<mgrwt>
<rscale>  2 0.45770588E+03</rscale>
<asrwt>0</asrwt>
<pdfrwt beam="1">  1       21 0.21274519E+00 0.45770588E+03</pdfrwt>
<pdfrwt beam="2">  1       21 0.53239676E-02 0.45770588E+03</pdfrwt>
<totfact> 0.23700019E+04</totfact>
</mgrwt>
</event>
<event>
 7    0  0.4793433E-002  0.4527722E+03  0.7546771E-02  0.1026899E+00
         21   -1    0    0  502  501  0.00000000000E+00  0.00000000000E+00  0.82933332487E+03  0.82933332487E+03  0.00000000000E+00 0. -1.
         21   -1    0    0  501  502 -0.00000000000E+00 -0.00000000000E+00 -0.61797432301E+02  0.61797432301E+02  0.00000000000E+00 0. -1.
      99926    2    1    2    0    0  0.00000000000E+00  0.00000000000E+00  0.76753589257E+03  0.89113075717E+03  0.45277221646E+03 0.  0.
      99925    2    3    3    0    0  0.78678895234E+02 -0.41179294069E+02  0.35406372768E+03  0.45011733101E+03  0.26335980256E+03 0.  0.
         25    1    4    4    0    0  0.76201088234E+02 -0.79564628029E+01  0.16248581399E+03  0.21890422334E+03  0.12509000000E+03 0.  0.
         25    1    4    4    0    0  0.24778069998E+01 -0.33222831266E+02  0.19157791368E+03  0.23121310766E+03  0.12509000000E+03 0.  0.
         25    1    3    3    0    0 -0.78678895234E+02  0.41179294069E+02  0.41347216489E+03  0.44101342616E+03  0.12509000000E+03 0.  0.
<mgrwt>
<rscale>  2 0.45277222E+03</rscale>
<asrwt>0</asrwt>
<pdfrwt beam="1">  1       21 0.12196078E+00 0.45277222E+03</pdfrwt>
<pdfrwt beam="2">  1       21 0.90878582E-02 0.45277222E+03</pdfrwt>
<totfact> 0.44388679E+04</totfact>
</mgrwt>
</event>
<event>
 7    0  0.4793433E-002  0.4630083E+03  0.7546771E-02  0.1023912E+00
         21   -1    0    0  502  501  0.00000000000E+00  0.00000000000E+00  0.12765387863E+03  0.12765387863E+03  0.00000000000E+00 0. -1.
         21   -1    0    0  501  502 -0.00000000000E+00 -0.00000000000E+00 -0.41983968277E+03  0.41983968277E+03  0.00000000000E+00 0. -1.
      99926    2    1    2    0    0 -0.71054273576E-14  0.00000000000E+00 -0.29218580414E+03  0.54749356140E+03  0.46300826735E+03 0.  0.
      99925    2    3    3    0    0 -0.59643088239E+02 -0.10181142396E+03 -0.21179679685E+03  0.35767057908E+03  0.26295911461E+03 0.  0.
         25    1    4    4    0    0 -0.57315206214E+02 -0.47224693957E+02 -0.72119223600E+02  0.16236962492E+03  0.12509000000E+03 0.  0.
         25    1    4    4    0    0 -0.23278820249E+01 -0.54586730006E+02 -0.13967757325E+03  0.19530095416E+03  0.12509000000E+03 0.  0.
         25    1    3    3    0    0  0.59643088239E+02  0.10181142396E+03 -0.80389007296E+02  0.18982298232E+03  0.12509000000E+03 0.  0.
<mgrwt>
<rscale>  2 0.46300827E+03</rscale>
<asrwt>0</asrwt>
<pdfrwt beam="1">  1       21 0.18772629E-01 0.46300827E+03</pdfrwt>
<pdfrwt beam="2">  1       21 0.61741129E-01 0.46300827E+03</pdfrwt>
<totfact> 0.58252353E+04</totfact>
</mgrwt>
</event>
<event>
 7    0  0.4793433E-002  0.4545608E+03  0.7546771E-02  0.1026371E+00
         21   -1    0    0  502  501  0.00000000000E+00  0.00000000000E+00  0.14005059321E+03  0.14005059321E+03  0.00000000000E+00 0.  1.
         21   -1    0    0  501  502 -0.00000000000E+00 -0.00000000000E+00 -0.36884085523E+03  0.36884085523E+03  0.00000000000E+00 0.  1.
      99926    2    1    2    0    0 -0.14210854715E-13  0.17763568394E-14 -0.22879026202E+03  0.50889144844E+03  0.45456080155E+03 0.  0.
      99925    2    3    3    0    0  0.93718911978E+02 -0.82999097392E+01 -0.74428343824E+02  0.28905689053E+03  0.26298704271E+03 0.  0.
         25    1    4    4    0    0  0.85964646082E+02 -0.18618075939E+02 -0.50540491158E+02  0.16105403588E+03  0.12509000000E+03 0.  0.
         25    1    4    4    0    0  0.77542658966E+01  0.10318166200E+02 -0.23887852666E+02  0.12800285465E+03  0.12509000000E+03 0.  0.
         25    1    3    3    0    0 -0.93718911978E+02  0.82999097392E+01 -0.15436191819E+03  0.21983455791E+03  0.12509000000E+03 0.  0.
<mgrwt>
<rscale>  2 0.45456080E+03</rscale>
<asrwt>0</asrwt>
<pdfrwt beam="1">  1       21 0.20595676E-01 0.45456080E+03</pdfrwt>
<pdfrwt beam="2">  1       21 0.54241301E-01 0.45456080E+03</pdfrwt>
<totfact> 0.64876259E+04</totfact>
</mgrwt>
</event>
<event>
 7    0  0.4793433E-002  0.4466380E+03  0.7546771E-02  0.1028729E+00
         21   -1    0    0  502  501  0.00000000000E+00  0.00000000000E+00  0.11765030006E+04  0.11765030006E+04  0.00000000000E+00 0. -1.
         21   -1    0    0  501  502 -0.00000000000E+00 -0.00000000000E+00 -0.42389504465E+02  0.42389504465E+02  0.00000000000E+00 0. -1.
      99926    2    1    2    0    0  0.00000000000E+00  0.00000000000E+00  0.11341134962E+04  0.12188925051E+04  0.44663801540E+03 0.  0.
      99925    2    3    3    0    0 -0.90038922020E+02 -0.32845940298E+02  0.60222494228E+03  0.66415039824E+03  0.26312545885E+03 0.  0.
         25    1    3    3    0    0  0.90038922020E+02  0.32845940298E+02  0.53188855389E+03  0.55474210687E+03  0.12509000000E+03 0.  0.
         25    1    4    4    0    0 -0.57342359838E+02 -0.51049917245E+02  0.36427826484E+03  0.39273451925E+03  0.12509000000E+03 0.  0.
         25    1    4    4    0    0 -0.32696562183E+02  0.18203976946E+02  0.23794667745E+03  0.27141587898E+03  0.12509000000E+03 0.  0.
<mgrwt>
<rscale>  2 0.44663802E+03</rscale>
<asrwt>0</asrwt>
<pdfrwt beam="1">  1       21 0.17301513E+00 0.44663802E+03</pdfrwt>
<pdfrwt beam="2">  1       21 0.62337514E-02 0.44663802E+03</pdfrwt>
<totfact> 0.33704994E+04</totfact>
</mgrwt>
</event>
<event>
 7    0  0.4793433E-002  0.4595058E+03  0.7546771E-02  0.1024925E+00
         21   -1    0    0  502  501  0.00000000000E+00  0.00000000000E+00  0.60328293544E+02  0.60328293544E+02  0.00000000000E+00 0. -1.
         21   -1    0    0  501  502 -0.00000000000E+00 -0.00000000000E+00 -0.87498584841E+03  0.87498584841E+03  0.00000000000E+00 0. -1.
      99926    2    1    2    0    0  0.00000000000E+00 -0.14210854715E-13 -0.81465755486E+03  0.93531414195E+03  0.45950583504E+03 0.  0.
      99925    2    3    3    0    0 -0.92303670284E+02 -0.64273670823E+02 -0.45518328896E+03  0.53842583492E+03  0.26468751549E+03 0.  0.
         25    1    4    4    0    0 -0.35453897503E+02 -0.73499865040E+02 -0.25308568952E+03  0.29386916025E+03  0.12509000000E+03 0.  0.
         25    1    3    3    0    0  0.92303670284E+02  0.64273670823E+02 -0.35947426591E+03  0.39688830703E+03  0.12509000000E+03 0.  0.
         25    1    4    4    0    0 -0.56849772780E+02  0.92261942169E+01 -0.20209759944E+03  0.24455667467E+03  0.12509000000E+03 0.  0.
<mgrwt>
<rscale>  2 0.45950584E+03</rscale>
<asrwt>0</asrwt>
<pdfrwt beam="1">  1       21 0.88718083E-02 0.45950584E+03</pdfrwt>
<pdfrwt beam="2">  1       21 0.12867438E+00 0.45950584E+03</pdfrwt>
<totfact> 0.40302142E+04</totfact>
</mgrwt>
</event>
<event>
 7    0  0.4793433E-002  0.4548165E+03  0.7546771E-02  0.1026295E+00
         21   -1    0    0  502  501  0.00000000000E+00  0.00000000000E+00  0.14334466382E+03  0.14334466382E+03  0.00000000000E+00 0. -1.
         21   -1    0    0  501  502 -0.00000000000E+00 -0.00000000000E+00 -0.36077046174E+03  0.36077046174E+03  0.00000000000E+00 0. -1.
      99926    2    1    2    0    0  0.00000000000E+00  0.15699247458E-14 -0.21742579792E+03  0.50411512556E+03  0.45481653687E+03 0.  0.
      99925    2    3    3    0    0 -0.10414333985E+03 -0.13744268089E-01 -0.18524026145E+03  0.33819571053E+03  0.26309038130E+03 0.  0.
         25    1    3    3    0    0  0.10414333985E+03  0.13744268089E-01 -0.32185536466E+02  0.16591941502E+03  0.12509000000E+03 0.  0.
         25    1    4    4    0    0 -0.77673709418E+02 -0.31903072644E+02 -0.88604610646E+02  0.17478356990E+03  0.12509000000E+03 0.  0.
         25    1    4    4    0    0 -0.26469630434E+02  0.31889328376E+02 -0.96635650808E+02  0.16341214063E+03  0.12509000000E+03 0.  0.
<mgrwt>
<rscale>  2 0.45481654E+03</rscale>
<asrwt>0</asrwt>
<pdfrwt beam="1">  1       21 0.21080098E-01 0.45481654E+03</pdfrwt>
<pdfrwt beam="2">  1       21 0.53054479E-01 0.45481654E+03</pdfrwt>
<totfact> 0.65077235E+04</totfact>
</mgrwt>
</event>
<event>
 7    0  0.4793433E-002  0.4580832E+03  0.7546771E-02  0.1025339E+00
         21   -1    0    0  502  501  0.00000000000E+00  0.00000000000E+00  0.49496760444E+02  0.49496760444E+02  0.00000000000E+00 0.  1.
         21   -1    0    0  501  502 -0.00000000000E+00 -0.00000000000E+00 -0.10598683944E+04  0.10598683944E+04  0.00000000000E+00 0.  1.
      99926    2    1    2    0    0  0.14210854715E-13 -0.17763568394E-14 -0.10103716339E+04  0.11093651548E+04  0.45808318903E+03 0.  0.
      99925    2    3    3    0    0  0.11441667470E+03 -0.15290876591E+02 -0.60505913006E+03  0.66976224280E+03  0.26298274594E+03 0.  0.
         25    1    4    4    0    0  0.37728416002E+02 -0.80367704989E+01 -0.20140905028E+03  0.24021060903E+03  0.12509000000E+03 0.  0.
         25    1    3    3    0    0 -0.11441667470E+03  0.15290876591E+02 -0.40531250388E+03  0.43960291202E+03  0.12509000000E+03 0.  0.
         25    1    4    4    0    0  0.76688258697E+02 -0.72541060916E+01 -0.40365007978E+03  0.42955163378E+03  0.12509000000E+03 0.  0.
<mgrwt>
<rscale>  2 0.45808319E+03</rscale>
<asrwt>0</asrwt>
<pdfrwt beam="1">  1       21 0.72789359E-02 0.45808319E+03</pdfrwt>
<pdfrwt beam="2">  1       21 0.15586299E+00 0.45808319E+03</pdfrwt>
<totfact> 0.34335420E+04</totfact>
</mgrwt>
</event>
<event>
 7    0  0.4793433E-002  0.4628173E+03  0.7546771E-02  0.1023967E+00
         21   -1    0    0  502  501  0.00000000000E+00  0.00000000000E+00  0.62615661580E+02  0.62615661580E+02  0.00000000000E+00 0.  1.
         21   -1    0    0  501  502 -0.00000000000E+00 -0.00000000000E+00 -0.85521664107E+03  0.85521664107E+03  0.00000000000E+00 0.  1.
      99926    2    1    2    0    0  0.00000000000E+00  0.00000000000E+00 -0.79260097949E+03  0.91783230265E+03  0.46281726750E+03 0.  0.
      99925    2    3    3    0    0 -0.76942029218E+02  0.77015964738E+02 -0.39351785651E+03  0.48566754028E+03  0.26299262653E+03 0.  0.
         25    1    3    3    0    0  0.76942029218E+02 -0.77015964738E+02 -0.39908312298E+03  0.43216476236E+03  0.12509000000E+03 0.  0.
         25    1    4    4    0    0 -0.72843398094E+02  0.46899608369E+02 -0.25186129292E+03  0.29425729028E+03  0.12509000000E+03 0.  0.
         25    1    4    4    0    0 -0.40986311243E+01  0.30116356369E+02 -0.14165656359E+03  0.19141025000E+03  0.12509000000E+03 0.  0.
<mgrwt>
<rscale>  2 0.46281727E+03</rscale>
<asrwt>0</asrwt>
<pdfrwt beam="1">  1       21 0.92081856E-02 0.46281727E+03</pdfrwt>
<pdfrwt beam="2">  1       21 0.12576715E+00 0.46281727E+03</pdfrwt>
<totfact> 0.39969315E+04</totfact>
</mgrwt>
</event>
<event>
 7    0  0.4793433E-002  0.4273749E+03  0.7546771E-02  0.1034692E+00
         21   -1    0    0  502  501  0.00000000000E+00  0.00000000000E+00  0.93262091291E+02  0.93262091291E+02  0.00000000000E+00 0. -1.
         21   -1    0    0  501  502 -0.00000000000E+00 -0.00000000000E+00 -0.48961299688E+03  0.48961299688E+03  0.00000000000E+00 0. -1.
      99926    2    1    2    0    0  0.00000000000E+00 -0.88817841970E-15 -0.39635090558E+03  0.58287508817E+03  0.42737492679E+03 0.  0.
      99925    2    3    3    0    0 -0.41685108033E+02  0.66384784920E+01 -0.15423087780E+03  0.30710102560E+03  0.26218725871E+03 0.  0.
         25    1    4    4    0    0 -0.57950107800E+01  0.26921879611E+02 -0.44255358878E+02  0.13551536681E+03  0.12509000000E+03 0.  0.
         25    1    3    3    0    0  0.41685108033E+02 -0.66384784920E+01 -0.24212002779E+03  0.27577406257E+03  0.12509000000E+03 0.  0.
         25    1    4    4    0    0 -0.35890097253E+02 -0.20283401118E+02 -0.10997551892E+03  0.17158565879E+03  0.12509000000E+03 0.  0.
<mgrwt>
<rscale>  2 0.42737493E+03</rscale>
<asrwt>0</asrwt>
<pdfrwt beam="1">  1       21 0.13715014E-01 0.42737493E+03</pdfrwt>
<pdfrwt beam="2">  1       21 0.72001910E-01 0.42737493E+03</pdfrwt>
<totfact> 0.74785393E+04</totfact>
</mgrwt>
</event>
<event>
 7    0  0.4793433E-002  0.4563492E+03  0.7546771E-02  0.1025845E+00
         21   -1    0    0  502  501  0.00000000000E+00  0.00000000000E+00  0.55560009144E+03  0.55560009144E+03  0.00000000000E+00 0.  1.
         21   -1    0    0  501  502 -0.00000000000E+00 -0.00000000000E+00 -0.93707068931E+02  0.93707068931E+02  0.00000000000E+00 0.  1.
      99926    2    1    2    0    0  0.00000000000E+00  0.14210854715E-13  0.46189302251E+03  0.64930716037E+03  0.45634923498E+03 0.  0.
      99925    2    3    3    0    0  0.84666317435E+02 -0.73521130302E+02  0.32166489452E+03  0.43048033869E+03  0.26319436871E+03 0.  0.
         25    1    3    3    0    0 -0.84666317435E+02  0.73521130302E+02  0.14022812799E+03  0.21882682169E+03  0.12509000000E+03 0.  0.
         25    1    4    4    0    0  0.40698097603E+02 -0.75083452218E+02  0.19683974911E+03  0.24836919067E+03  0.12509000000E+03 0.  0.
         25    1    4    4    0    0  0.43968219832E+02  0.15623219162E+01  0.12482514541E+03  0.18211114801E+03  0.12509000000E+03 0.  0.
<mgrwt>
<rscale>  2 0.45634923E+03</rscale>
<asrwt>0</asrwt>
<pdfrwt beam="1">  1       21 0.81705894E-01 0.45634923E+03</pdfrwt>
<pdfrwt beam="2">  1       21 0.13780452E-01 0.45634923E+03</pdfrwt>
<totfact> 0.55152012E+04</totfact>
</mgrwt>
</event>
<event>
 7    0  0.4793433E-002  0.4514933E+03  0.7546771E-02  0.1027278E+00
         21   -1    0    0  502  501  0.00000000000E+00  0.00000000000E+00  0.92744466878E+02  0.92744466878E+02  0.00000000000E+00 0.  1.
         21   -1    0    0  501  502 -0.00000000000E+00 -0.00000000000E+00 -0.54948342566E+03  0.54948342566E+03  0.00000000000E+00 0.  1.
      99926    2    1    2    0    0 -0.17763568394E-14  0.00000000000E+00 -0.45673895878E+03  0.64222789254E+03  0.45149328842E+03 0.  0.
      99925    2    3    3    0    0 -0.49430239708E+01 -0.97008182666E+02 -0.36100520573E+03  0.45716714423E+03  0.26313878128E+03 0.  0.
         25    1    3    3    0    0  0.49430239708E+01  0.97008182666E+02 -0.95733753057E+02  0.18506074831E+03  0.12509000000E+03 0.  0.
         25    1    4    4    0    0 -0.21965241205E+02 -0.34487860689E+02 -0.22892966689E+03  0.26406094910E+03  0.12509000000E+03 0.  0.
         25    1    4    4    0    0  0.17022217235E+02 -0.62520321978E+02 -0.13207553883E+03  0.19310619513E+03  0.12509000000E+03 0.  0.
<mgrwt>
<rscale>  2 0.45149329E+03</rscale>
<asrwt>0</asrwt>
<pdfrwt beam="1">  1       21 0.13638892E-01 0.45149329E+03</pdfrwt>
<pdfrwt beam="2">  1       21 0.80806386E-01 0.45149329E+03</pdfrwt>
<totfact> 0.57732455E+04</totfact>
</mgrwt>
</event>
<event>
 7    0  0.4793433E-002  0.4510154E+03  0.7546771E-02  0.1027420E+00
         21   -1    0    0  502  501  0.00000000000E+00  0.00000000000E+00  0.12798583856E+04  0.12798583856E+04  0.00000000000E+00 0.  1.
         21   -1    0    0  501  502 -0.00000000000E+00 -0.00000000000E+00 -0.39733858645E+02  0.39733858645E+02  0.00000000000E+00 0.  1.
      99926    2    1    2    0    0  0.00000000000E+00  0.14210854715E-13  0.12401245270E+04  0.13195922443E+04  0.45101535309E+03 0.  0.
      99925    2    3    3    0    0  0.79194859886E+01 -0.10911755008E+03  0.79241928957E+03  0.84203926742E+03  0.26293048397E+03 0.  0.
         25    1    4    4    0    0 -0.38851620436E+01 -0.12954822093E+02  0.32105170394E+03  0.34482550168E+03  0.12509000000E+03 0.  0.
         25    1    4    4    0    0  0.11804648032E+02 -0.96162727989E+02  0.47136758562E+03  0.49721376574E+03  0.12509000000E+03 0.  0.
         25    1    3    3    0    0 -0.79194859886E+01  0.10911755008E+03  0.44770523743E+03  0.47755297686E+03  0.12509000000E+03 0.  0.
<mgrwt>
<rscale>  2 0.45101535E+03</rscale>
<asrwt>0</asrwt>
<pdfrwt beam="1">  1       21 0.18821444E+00 0.45101535E+03</pdfrwt>
<pdfrwt beam="2">  1       21 0.58432153E-02 0.45101535E+03</pdfrwt>
<totfact> 0.29453057E+04</totfact>
</mgrwt>
</event>
<event>
 7    0  0.4793433E-002  0.4524212E+03  0.7546771E-02  0.1027002E+00
         21   -1    0    0  502  501  0.00000000000E+00  0.00000000000E+00  0.11463672760E+03  0.11463672760E+03  0.00000000000E+00 0.  1.
         21   -1    0    0  501  502 -0.00000000000E+00 -0.00000000000E+00 -0.44637734612E+03  0.44637734612E+03  0.00000000000E+00 0.  1.
      99926    2    1    2    0    0  0.71054273576E-14  0.00000000000E+00 -0.33174061852E+03  0.56101407371E+03  0.45242121185E+03 0.  0.
      99925    2    3    3    0    0 -0.45348868117E+02  0.62273573371E+01 -0.33430781794E+03  0.42778720543E+03  0.26295413323E+03 0.  0.
         25    1    4    4    0    0 -0.62093683197E+02  0.10707152956E+02 -0.16193682763E+03  0.21410584500E+03  0.12509000000E+03 0.  0.
         25    1    3    3    0    0  0.45348868117E+02 -0.62273573371E+01  0.25671994160E+01  0.13322686828E+03  0.12509000000E+03 0.  0.
         25    1    4    4    0    0  0.16744815080E+02 -0.44797956191E+01 -0.17237099030E+03  0.21368136044E+03  0.12509000000E+03 0.  0.
<mgrwt>
<rscale>  2 0.45242121E+03</rscale>
<asrwt>0</asrwt>
<pdfrwt beam="1">  1       21 0.16858343E-01 0.45242121E+03</pdfrwt>
<pdfrwt beam="2">  1       21 0.65643726E-01 0.45242121E+03</pdfrwt>
<totfact> 0.62407747E+04</totfact>
</mgrwt>
</event>
<event>
 7    0  0.4793433E-002  0.4602366E+03  0.7546771E-02  0.1024713E+00
         21   -1    0    0  502  501  0.00000000000E+00  0.00000000000E+00  0.13849856435E+03  0.13849856435E+03  0.00000000000E+00 0. -1.
         21   -1    0    0  501  502 -0.00000000000E+00 -0.00000000000E+00 -0.38234637489E+03  0.38234637489E+03  0.00000000000E+00 0. -1.
      99926    2    1    2    0    0  0.00000000000E+00  0.00000000000E+00 -0.24384781054E+03  0.52084493924E+03  0.46023656529E+03 0.  0.
      99925    2    3    3    0    0  0.10668011284E+03  0.40876496230E+02 -0.11934571454E+03  0.31060742016E+03  0.26302478108E+03 0.  0.
         25    1    4    4    0    0  0.94263732598E+02  0.82086696120E+01 -0.67806396903E+02  0.17087495165E+03  0.12509000000E+03 0.  0.
         25    1    3    3    0    0 -0.10668011284E+03 -0.40876496230E+02 -0.12450209599E+03  0.21023751907E+03  0.12509000000E+03 0.  0.
         25    1    4    4    0    0  0.12416380243E+02  0.32667826618E+02 -0.51539317639E+02  0.13973246851E+03  0.12509000000E+03 0.  0.
<mgrwt>
<rscale>  2 0.46023657E+03</rscale>
<asrwt>0</asrwt>
<pdfrwt beam="1">  1       21 0.20367436E-01 0.46023657E+03</pdfrwt>
<pdfrwt beam="2">  1       21 0.56227407E-01 0.46023657E+03</pdfrwt>
<totfact> 0.61245233E+04</totfact>
</mgrwt>
</event>
<event>
 7    0  0.4793433E-002  0.4300975E+03  0.7546771E-02  0.1033829E+00
         21   -1    0    0  502  501  0.00000000000E+00  0.00000000000E+00  0.21914221144E+03  0.21914221144E+03  0.00000000000E+00 0.  1.
         21   -1    0    0  501  502 -0.00000000000E+00 -0.00000000000E+00 -0.21103174874E+03  0.21103174874E+03  0.00000000000E+00 0.  1.
      99926    2    1    2    0    0  0.00000000000E+00  0.00000000000E+00  0.81104626961E+01  0.43017396018E+03  0.43009749640E+03 0.  0.
      99925    2    3    3    0    0  0.78435981294E+02  0.38688944946E+02 -0.18167107820E+01  0.27721940975E+03  0.26305562736E+03 0.  0.
         25    1    3    3    0    0 -0.78435981294E+02 -0.38688944946E+02  0.99271734781E+01  0.15295455043E+03  0.12509000000E+03 0.  0.
         25    1    4    4    0    0  0.59813581197E+02  0.60438949798E+01 -0.33596125719E+02  0.14279496113E+03  0.12509000000E+03 0.  0.
         25    1    4    4    0    0  0.18622400097E+02  0.32645049967E+02  0.31779414937E+02  0.13442444862E+03  0.12509000000E+03 0.  0.
<mgrwt>
<rscale>  2 0.43009750E+03</rscale>
<asrwt>0</asrwt>
<pdfrwt beam="1">  1       21 0.32226796E-01 0.43009750E+03</pdfrwt>
<pdfrwt beam="2">  1       21 0.31034081E-01 0.43009750E+03</pdfrwt>
<totfact> 0.86322867E+04</totfact>
</mgrwt>
</event>
<event>
 7    0  0.4793433E-002  0.4562863E+03  0.7546771E-02  0.1025864E+00
         21   -1    0    0  502  501  0.00000000000E+00  0.00000000000E+00  0.49187526051E+02  0.49187526051E+02  0.00000000000E+00 0.  1.
         21   -1    0    0  501  502 -0.00000000000E+00 -0.00000000000E+00 -0.10581807306E+04  0.10581807306E+04  0.00000000000E+00 0.  1.
      99926    2    1    2    0    0  0.14210854715E-13  0.00000000000E+00 -0.10089932045E+04  0.11073682566E+04  0.45628627966E+03 0.  0.
      99925    2    3    3    0    0 -0.95630159633E+02 -0.67863342076E+01 -0.78623698051E+03  0.83449644569E+03  0.26272523021E+03 0.  0.
         25    1    4    4    0    0 -0.14255196632E+02  0.36677212482E+01 -0.28925302038E+03  0.31548610224E+03  0.12509000000E+03 0.  0.
         25    1    3    3    0    0  0.95630159633E+02  0.67863342076E+01 -0.22275622399E+03  0.27287181091E+03  0.12509000000E+03 0.  0.
         25    1    4    4    0    0 -0.81374963001E+02 -0.10454055456E+02 -0.49698396013E+03  0.51901034344E+03  0.12509000000E+03 0.  0.
<mgrwt>
<rscale>  2 0.45628628E+03</rscale>
<asrwt>0</asrwt>
<pdfrwt beam="1">  1       21 0.72334590E-02 0.45628628E+03</pdfrwt>
<pdfrwt beam="2">  1       21 0.15561483E+00 0.45628628E+03</pdfrwt>
<totfact> 0.34886704E+04</totfact>
</mgrwt>
</event>
<event>
 7    0  0.4793433E-002  0.4530628E+03  0.7546771E-02  0.1026813E+00
         21   -1    0    0  502  501  0.00000000000E+00  0.00000000000E+00  0.45476406109E+02  0.45476406109E+02  0.00000000000E+00 0.  1.
         21   -1    0    0  501  502 -0.00000000000E+00 -0.00000000000E+00 -0.11284197049E+04  0.11284197049E+04  0.00000000000E+00 0.  1.
      99926    2    1    2    0    0  0.00000000000E+00  0.00000000000E+00 -0.10829432988E+04  0.11738961110E+04  0.45306278930E+03 0.  0.
      99925    2    3    3    0    0  0.34878127363E+02  0.95031479684E+02 -0.80273927850E+03  0.85077188260E+03  0.26301137062E+03 0.  0.
         25    1    3    3    0    0 -0.34878127363E+02 -0.95031479684E+02 -0.28020402031E+03  0.32312422843E+03  0.12509000000E+03 0.  0.
         25    1    4    4    0    0  0.27969566954E+02  0.48925536839E+02 -0.28810161605E+03  0.31910194939E+03  0.12509000000E+03 0.  0.
         25    1    4    4    0    0  0.69085604087E+01  0.46105942845E+02 -0.51463766245E+03  0.53166993321E+03  0.12509000000E+03 0.  0.
<mgrwt>
<rscale>  2 0.45306279E+03</rscale>
<asrwt>0</asrwt>
<pdfrwt beam="1">  1       21 0.66877079E-02 0.45306279E+03</pdfrwt>
<pdfrwt beam="2">  1       21 0.16594405E+00 0.45306279E+03</pdfrwt>
<totfact> 0.33497247E+04</totfact>
</mgrwt>
</event>
<event>
 7    0  0.4793433E-002  0.4544873E+03  0.7546771E-02  0.1026392E+00
         21   -1    0    0  502  501  0.00000000000E+00  0.00000000000E+00  0.32591980262E+03  0.32591980262E+03  0.00000000000E+00 0. -1.
         21   -1    0    0  501  502 -0.00000000000E+00 -0.00000000000E+00 -0.15844288388E+03  0.15844288388E+03  0.00000000000E+00 0. -1.
      99926    2    1    2    0    0  0.00000000000E+00  0.00000000000E+00  0.16747691874E+03  0.48436268651E+03  0.45448728670E+03 0.  0.
      99925    2    3    3    0    0 -0.65937769607E+02 -0.77791714057E+02  0.54412139122E+02  0.28730814399E+03  0.26303221948E+03 0.  0.
         25    1    4    4    0    0 -0.45928381604E+02 -0.49667210372E+02 -0.97566070076E+01  0.14254454568E+03  0.12509000000E+03 0.  0.
         25    1    4    4    0    0 -0.20009388003E+02 -0.28124503685E+02  0.64168746130E+02  0.14476359831E+03  0.12509000000E+03 0.  0.
         25    1    3    3    0    0  0.65937769607E+02  0.77791714057E+02  0.11306477962E+03  0.19705454252E+03  0.12509000000E+03 0.  0.
<mgrwt>
<rscale>  2 0.45448729E+03</rscale>
<asrwt>0</asrwt>
<pdfrwt beam="1">  1       21 0.47929383E-01 0.45448729E+03</pdfrwt>
<pdfrwt beam="2">  1       21 0.23300424E-01 0.45448729E+03</pdfrwt>
<totfact> 0.66654755E+04</totfact>
</mgrwt>
</event>
<event>
 7    0  0.4793433E-002  0.4519974E+03  0.7546771E-02  0.1027128E+00
         21   -1    0    0  502  501  0.00000000000E+00  0.00000000000E+00  0.22815327144E+02  0.22815327144E+02  0.00000000000E+00 0.  1.
         21   -1    0    0  501  502 -0.00000000000E+00 -0.00000000000E+00 -0.22386444336E+04  0.22386444336E+04  0.00000000000E+00 0.  1.
      99926    2    1    2    0    0  0.00000000000E+00  0.14210854715E-13 -0.22158291065E+04  0.22614597607E+04  0.45199736774E+03 0.  0.
      99925    2    3    3    0    0 -0.41060769534E+02 -0.10231703996E+03 -0.14151404298E+04  0.14435938619E+04  0.26303239080E+03 0.  0.
         25    1    4    4    0    0 -0.48414794985E+02 -0.20947372426E+02 -0.68537707063E+03  0.69869308129E+03  0.12509000000E+03 0.  0.
         25    1    3    3    0    0  0.41060769534E+02  0.10231703996E+03 -0.80068867664E+03  0.81786589883E+03  0.12509000000E+03 0.  0.
         25    1    4    4    0    0  0.73540254505E+01 -0.81369667530E+02 -0.72976335917E+03  0.74490078063E+03  0.12509000000E+03 0.  0.
<mgrwt>
<rscale>  2 0.45199737E+03</rscale>
<asrwt>0</asrwt>
<pdfrwt beam="1">  1       21 0.33551934E-02 0.45199737E+03</pdfrwt>
<pdfrwt beam="2">  1       21 0.32921259E+00 0.45199737E+03</pdfrwt>
<totfact> 0.10125436E+04</totfact>
</mgrwt>
</event>
<event>
 7    0  0.4793433E-002  0.4515403E+03  0.7546771E-02  0.1027264E+00
         21   -1    0    0  502  501  0.00000000000E+00  0.00000000000E+00  0.17809013067E+03  0.17809013067E+03  0.00000000000E+00 0. -1.
         21   -1    0    0  501  502 -0.00000000000E+00 -0.00000000000E+00 -0.28621556920E+03  0.28621556920E+03  0.00000000000E+00 0. -1.
      99926    2    1    2    0    0  0.71054273576E-14  0.00000000000E+00 -0.10812543854E+03  0.46430569987E+03  0.45154033317E+03 0.  0.
      99925    2    3    3    0    0  0.39355166292E+02  0.10227856931E+03 -0.58138382029E+02  0.29065101732E+03  0.26284635731E+03 0.  0.
         25    1    4    4    0    0  0.59077273938E+02  0.56624322864E+02 -0.40640295434E+02  0.15490506754E+03  0.12509000000E+03 0.  0.
         25    1    4    4    0    0 -0.19722107645E+02  0.45654246444E+02 -0.17498086596E+02  0.13574594978E+03  0.12509000000E+03 0.  0.
         25    1    3    3    0    0 -0.39355166292E+02 -0.10227856931E+03 -0.49987056506E+02  0.17365468255E+03  0.12509000000E+03 0.  0.
<mgrwt>
<rscale>  2 0.45154033E+03</rscale>
<asrwt>0</asrwt>
<pdfrwt beam="1">  1       21 0.26189725E-01 0.45154033E+03</pdfrwt>
<pdfrwt beam="2">  1       21 0.42090524E-01 0.45154033E+03</pdfrwt>
<totfact> 0.69756520E+04</totfact>
</mgrwt>
</event>
<event>
 7    0  0.4793433E-002  0.4463283E+03  0.7546771E-02  0.1028823E+00
         21   -1    0    0  502  501  0.00000000000E+00  0.00000000000E+00  0.10596779214E+04  0.10596779214E+04  0.00000000000E+00 0.  1.
         21   -1    0    0  501  502 -0.00000000000E+00 -0.00000000000E+00 -0.46997531362E+02  0.46997531362E+02  0.00000000000E+00 0.  1.
      99926    2    1    2    0    0  0.00000000000E+00  0.00000000000E+00  0.10126803901E+04  0.11066754528E+04  0.44632833809E+03 0.  0.
      99925    2    3    3    0    0 -0.18069574813E+02  0.89473715292E+01  0.89741709426E+03  0.93538709810E+03  0.26303044925E+03 0.  0.
         25    1    4    4    0    0 -0.47751850168E+02 -0.12465254202E+01  0.49640391782E+03  0.51414604029E+03  0.12509000000E+03 0.  0.
         25    1    4    4    0    0  0.29682275355E+02  0.10193896949E+02  0.40101317643E+03  0.42124105780E+03  0.12509000000E+03 0.  0.
         25    1    3    3    0    0  0.18069574813E+02 -0.89473715292E+01  0.11526329580E+03  0.17128835468E+03  0.12509000000E+03 0.  0.
<mgrwt>
<rscale>  2 0.44632834E+03</rscale>
<asrwt>0</asrwt>
<pdfrwt beam="1">  1       21 0.15583497E+00 0.44632834E+03</pdfrwt>
<pdfrwt beam="2">  1       21 0.69114024E-02 0.44632834E+03</pdfrwt>
<totfact> 0.37750823E+04</totfact>
</mgrwt>
</event>
<event>
 7    0  0.4793433E-002  0.4558512E+03  0.7546771E-02  0.1025991E+00
         21   -1    0    0  502  501  0.00000000000E+00  0.00000000000E+00  0.26978486686E+03  0.26978486686E+03  0.00000000000E+00 0.  1.
         21   -1    0    0  501  502 -0.00000000000E+00 -0.00000000000E+00 -0.19256110849E+03  0.19256110849E+03  0.00000000000E+00 0.  1.
      99926    2    1    2    0    0  0.14210854715E-13 -0.35527136788E-14  0.77223758369E+02  0.46234597536E+03  0.45585117316E+03 0.  0.
      99925    2    3    3    0    0 -0.10233281476E+03 -0.17490361447E+02  0.87441956442E+00  0.28275018655E+03  0.26299997275E+03 0.  0.
         25    1    4    4    0    0 -0.30419638807E+02 -0.42366426115E+02  0.11069189441E+02  0.13597905553E+03  0.12509000000E+03 0.  0.
         25    1    3    3    0    0  0.10233281476E+03  0.17490361447E+02  0.76349338805E+02  0.17959578881E+03  0.12509000000E+03 0.  0.
         25    1    4    4    0    0 -0.71913175957E+02  0.24876064668E+02 -0.10194769877E+02  0.14677113103E+03  0.12509000000E+03 0.  0.
<mgrwt>
<rscale>  2 0.45585117E+03</rscale>
<asrwt>0</asrwt>
<pdfrwt beam="1">  1       21 0.39674245E-01 0.45585117E+03</pdfrwt>
<pdfrwt beam="2">  1       21 0.28317810E-01 0.45585117E+03</pdfrwt>
<totfact> 0.67549336E+04</totfact>
</mgrwt>
</event>
<event>
 7    0  0.4793433E-002  0.4567342E+03  0.7546771E-02  0.1025733E+00
         21   -1    0    0  502  501  0.00000000000E+00  0.00000000000E+00  0.10272441403E+04  0.10272441403E+04  0.00000000000E+00 0. -1.
         21   -1    0    0  501  502 -0.00000000000E+00 -0.00000000000E+00 -0.50768391180E+02  0.50768391180E+02  0.00000000000E+00 0. -1.
      99926    2    1    2    0    0  0.00000000000E+00  0.71054273576E-14  0.97647574909E+03  0.10780125315E+04  0.45673419995E+03 0.  0.
      99925    2    3    3    0    0  0.99340949360E+02 -0.57382000944E+02  0.60687214437E+03  0.67129930205E+03  0.26303542548E+03 0.  0.
         25    1    3    3    0    0 -0.99340949360E+02  0.57382000944E+02  0.36960360472E+03  0.40671322941E+03  0.12509000000E+03 0.  0.
         25    1    4    4    0    0  0.38452761070E+02 -0.64631935268E+02  0.27397666120E+03  0.31042973581E+03  0.12509000000E+03 0.  0.
         25    1    4    4    0    0  0.60888188291E+02  0.72499343242E+01  0.33289548318E+03  0.36086956624E+03  0.12509000000E+03 0.  0.
<mgrwt>
<rscale>  2 0.45673420E+03</rscale>
<asrwt>0</asrwt>
<pdfrwt beam="1">  1       21 0.15106530E+00 0.45673420E+03</pdfrwt>
<pdfrwt beam="2">  1       21 0.74659405E-02 0.45673420E+03</pdfrwt>
<totfact> 0.35779399E+04</totfact>
</mgrwt>
</event>
<event>
 7    0  0.4793433E-002  0.4428081E+03  0.7546771E-02  0.1029889E+00
         21   -1    0    0  502  501  0.00000000000E+00  0.00000000000E+00  0.11594101351E+03  0.11594101351E+03  0.00000000000E+00 0.  1.
         21   -1    0    0  501  502 -0.00000000000E+00 -0.00000000000E+00 -0.42279907146E+03  0.42279907146E+03  0.00000000000E+00 0.  1.
      99926    2    1    2    0    0  0.14210854715E-13 -0.71054273576E-14 -0.30685805795E+03  0.53874008497E+03  0.44280809774E+03 0.  0.
      99925    2    3    3    0    0 -0.68165555235E+02  0.60458171415E+02 -0.24908571168E+03  0.37355265959E+03  0.26305163811E+03 0.  0.
         25    1    4    4    0    0 -0.58296209107E+02 -0.24281926393E+01 -0.12308090588E+03  0.18493447923E+03  0.12509000000E+03 0.  0.
         25    1    3    3    0    0  0.68165555235E+02 -0.60458171415E+02 -0.57772346270E+02  0.16518742538E+03  0.12509000000E+03 0.  0.
         25    1    4    4    0    0 -0.98693461272E+01  0.62886364055E+02 -0.12600480580E+03  0.18861818036E+03  0.12509000000E+03 0.  0.
<mgrwt>
<rscale>  2 0.44280810E+03</rscale>
<asrwt>0</asrwt>
<pdfrwt beam="1">  1       21 0.17050149E-01 0.44280810E+03</pdfrwt>
<pdfrwt beam="2">  1       21 0.62176333E-01 0.44280810E+03</pdfrwt>
<totfact> 0.69041079E+04</totfact>
</mgrwt>
</event>
<event>
 7    0  0.4793433E-002  0.4565223E+03  0.7546771E-02  0.1025795E+00
         21   -1    0    0  502  501  0.00000000000E+00  0.00000000000E+00  0.30050360924E+03  0.30050360924E+03  0.00000000000E+00 0.  1.
         21   -1    0    0  501  502 -0.00000000000E+00 -0.00000000000E+00 -0.17338608122E+03  0.17338608122E+03  0.00000000000E+00 0.  1.
      99926    2    1    2    0    0  0.00000000000E+00  0.00000000000E+00  0.12711752802E+03  0.47388969046E+03  0.45652225881E+03 0.  0.
      99925    2    3    3    0    0 -0.69625838813E+01  0.11283014637E+03  0.99690438620E+02  0.30307144542E+03  0.26293534942E+03 0.  0.
         25    1    3    3    0    0  0.69625838813E+01 -0.11283014637E+03  0.27427089400E+02  0.17081824504E+03  0.12509000000E+03 0.  0.
         25    1    4    4    0    0  0.79133140810E+01  0.48714231101E+02  0.82563558992E+01  0.13472702908E+03  0.12509000000E+03 0.  0.
         25    1    4    4    0    0 -0.14875897962E+02  0.64115915270E+02  0.91434082721E+02  0.16834441634E+03  0.12509000000E+03 0.  0.
<mgrwt>
<rscale>  2 0.45652226E+03</rscale>
<asrwt>0</asrwt>
<pdfrwt beam="1">  1       21 0.44191707E-01 0.45652226E+03</pdfrwt>
<pdfrwt beam="2">  1       21 0.25497953E-01 0.45652226E+03</pdfrwt>
<totfact> 0.66342702E+04</totfact>
</mgrwt>
</event>
<event>
 7    0  0.4793433E-002  0.4494773E+03  0.7546771E-02  0.1027878E+00
         21   -1    0    0  502  501  0.00000000000E+00  0.00000000000E+00  0.22192854421E+03  0.22192854421E+03  0.00000000000E+00 0. -1.
         21   -1    0    0  501  502 -0.00000000000E+00 -0.00000000000E+00 -0.22758429053E+03  0.22758429053E+03  0.00000000000E+00 0. -1.
      99926    2    1    2    0    0  0.00000000000E+00  0.14210854715E-13 -0.56557463135E+01  0.44951283474E+03  0.44947725318E+03 0.  0.
      99925    2    3    3    0    0  0.59957661892E+02 -0.64772111451E+02 -0.65698345244E+02  0.28506536766E+03  0.26297460644E+03 0.  0.
         25    1    3    3    0    0 -0.59957661892E+02  0.64772111451E+02  0.60042598931E+02  0.16444746708E+03  0.12509000000E+03 0.  0.
         25    1    4    4    0    0  0.52836255286E+02 -0.60240000850E+02 -0.57935435516E+02  0.15945077724E+03  0.12509000000E+03 0.  0.
         25    1    4    4    0    0  0.71214066060E+01 -0.45321106012E+01 -0.77629097278E+01  0.12561459042E+03  0.12509000000E+03 0.  0.
<mgrwt>
<rscale>  2 0.44947725E+03</rscale>
<asrwt>0</asrwt>
<pdfrwt beam="1">  1       21 0.32636551E-01 0.44947725E+03</pdfrwt>
<pdfrwt beam="2">  1       21 0.33468278E-01 0.44947725E+03</pdfrwt>
<totfact> 0.72073664E+04</totfact>
</mgrwt>
</event>
<event>
 7    0  0.4793433E-002  0.4572235E+03  0.7546771E-02  0.1025590E+00
         21   -1    0    0  502  501  0.00000000000E+00  0.00000000000E+00  0.81093841298E+02  0.81093841298E+02  0.00000000000E+00 0. -1.
         21   -1    0    0  501  502 -0.00000000000E+00 -0.00000000000E+00 -0.64447961184E+03  0.64447961184E+03  0.00000000000E+00 0. -1.
      99926    2    1    2    0    0  0.00000000000E+00  0.00000000000E+00 -0.56338577054E+03  0.72557345313E+03  0.45722347867E+03 0.  0.
      99925    2    3    3    0    0  0.70121257782E+02  0.91320923339E+02 -0.36258327603E+03  0.46246577226E+03  0.26296664546E+03 0.  0.
         25    1    4    4    0    0  0.67809173664E+02  0.62359312722E+02 -0.16331947721E+03  0.22540525205E+03  0.12509000000E+03 0.  0.
         25    1    4    4    0    0  0.23120841182E+01  0.28961610617E+02 -0.19926379882E+03  0.23706052021E+03  0.12509000000E+03 0.  0.
         25    1    3    3    0    0 -0.70121257782E+02 -0.91320923339E+02 -0.20080249451E+03  0.26310768087E+03  0.12509000000E+03 0.  0.
<mgrwt>
<rscale>  2 0.45722348E+03</rscale>
<asrwt>0</asrwt>
<pdfrwt beam="1">  1       21 0.11925565E-01 0.45722348E+03</pdfrwt>
<pdfrwt beam="2">  1       21 0.94776413E-01 0.45722348E+03</pdfrwt>
<totfact> 0.50644995E+04</totfact>
</mgrwt>
</event>
<event>
 7    0  0.4793433E-002  0.4521196E+03  0.7546771E-02  0.1027092E+00
         21   -1    0    0  502  501  0.00000000000E+00  0.00000000000E+00  0.25948967595E+03  0.25948967595E+03  0.00000000000E+00 0.  1.
         21   -1    0    0  501  502 -0.00000000000E+00 -0.00000000000E+00 -0.19693663562E+03  0.19693663562E+03  0.00000000000E+00 0.  1.
      99926    2    1    2    0    0  0.00000000000E+00  0.71054273576E-14  0.62553040322E+02  0.45642631157E+03  0.45211955835E+03 0.  0.
      99925    2    3    3    0    0  0.66677860324E+02 -0.57488316494E+02  0.10639782723E+03  0.29730146427E+03  0.26328087554E+03 0.  0.
         25    1    4    4    0    0  0.24711643562E+02 -0.62279613498E+01  0.14369519694E+02  0.12846573094E+03  0.12509000000E+03 0.  0.
         25    1    3    3    0    0 -0.66677860324E+02  0.57488316494E+02 -0.43844786912E+02  0.15912484731E+03  0.12509000000E+03 0.  0.
         25    1    4    4    0    0  0.41966216762E+02 -0.51260355144E+02  0.92028307540E+02  0.16883573332E+03  0.12509000000E+03 0.  0.
<mgrwt>
<rscale>  2 0.45211956E+03</rscale>
<asrwt>0</asrwt>
<pdfrwt beam="1">  1       21 0.38160246E-01 0.45211956E+03</pdfrwt>
<pdfrwt beam="2">  1       21 0.28961270E-01 0.45211956E+03</pdfrwt>
<totfact> 0.70036832E+04</totfact>
</mgrwt>
</event>
<event>
 7    0  0.4793433E-002  0.4528339E+03  0.7546771E-02  0.1026880E+00
         21   -1    0    0  502  501  0.00000000000E+00  0.00000000000E+00  0.21641331322E+03  0.21641331322E+03  0.00000000000E+00 0.  1.
         21   -1    0    0  501  502 -0.00000000000E+00 -0.00000000000E+00 -0.23688297655E+03  0.23688297655E+03  0.00000000000E+00 0.  1.
      99926    2    1    2    0    0  0.71054273576E-14  0.00000000000E+00 -0.20469663331E+02  0.45329628977E+03  0.45283387594E+03 0.  0.
      99925    2    3    3    0    0  0.48681119691E+02  0.79938274196E+02  0.46946538948E+02  0.28314214928E+03  0.26306942066E+03 0.  0.
         25    1    4    4    0    0  0.10162469453E+02  0.10805721818E+01  0.32551818245E+02  0.12965944776E+03  0.12509000000E+03 0.  0.
         25    1    4    4    0    0  0.38518650238E+02  0.78857702014E+02  0.14394720703E+02  0.15348270152E+03  0.12509000000E+03 0.  0.
         25    1    3    3    0    0 -0.48681119691E+02 -0.79938274196E+02 -0.67416202278E+02  0.17015414049E+03  0.12509000000E+03 0.  0.
<mgrwt>
<rscale>  2 0.45283388E+03</rscale>
<asrwt>0</asrwt>
<pdfrwt beam="1">  1       21 0.31825487E-01 0.45283388E+03</pdfrwt>
<pdfrwt beam="2">  1       21 0.34835732E-01 0.45283388E+03</pdfrwt>
<totfact> 0.69870613E+04</totfact>
</mgrwt>
</event>
<event>
 7    0  0.4793433E-002  0.4249168E+03  0.7546771E-02  0.1035478E+00
         21   -1    0    0  502  501  0.00000000000E+00  0.00000000000E+00  0.54130232761E+02  0.54130232761E+02  0.00000000000E+00 0.  1.
         21   -1    0    0  501  502 -0.00000000000E+00 -0.00000000000E+00 -0.83388841653E+03  0.83388841653E+03  0.00000000000E+00 0.  1.
      99926    2    1    2    0    0  0.17763568394E-14  0.17763568394E-14 -0.77975818377E+03  0.88801864930E+03  0.42491681107E+03 0.  0.
      99925    2    3    3    0    0  0.42861674757E+01  0.15026649621E+02 -0.33775583633E+03  0.42839080563E+03  0.26305038669E+03 0.  0.
         25    1    4    4    0    0  0.25221570505E+02 -0.25969536858E+02 -0.16682569787E+03  0.21163380173E+03  0.12509000000E+03 0.  0.
         25    1    4    4    0    0 -0.20935403029E+02  0.40996186479E+02 -0.17093013846E+03  0.21675700390E+03  0.12509000000E+03 0.  0.
         25    1    3    3    0    0 -0.42861674757E+01 -0.15026649621E+02 -0.44200234744E+03  0.45962784367E+03  0.12509000000E+03 0.  0.
<mgrwt>
<rscale>  2 0.42491681E+03</rscale>
<asrwt>0</asrwt>
<pdfrwt beam="1">  1       21 0.79603283E-02 0.42491681E+03</pdfrwt>
<pdfrwt beam="2">  1       21 0.12263065E+00 0.42491681E+03</pdfrwt>
<totfact> 0.55774876E+04</totfact>
</mgrwt>
</event>
<event>
 7    0  0.4793433E-002  0.4556600E+03  0.7546771E-02  0.1026047E+00
         21   -1    0    0  502  501  0.00000000000E+00  0.00000000000E+00  0.23224916300E+03  0.23224916300E+03  0.00000000000E+00 0.  1.
         21   -1    0    0  501  502 -0.00000000000E+00 -0.00000000000E+00 -0.22349495242E+03  0.22349495242E+03  0.00000000000E+00 0.  1.
      99926    2    1    2    0    0  0.71054273576E-14 -0.17763568394E-14  0.87542105738E+01  0.45574411542E+03  0.45566002956E+03 0.  0.
      99925    2    3    3    0    0  0.55162872781E+02  0.88616167305E+01  0.10462782770E+03  0.28852949481E+03  0.26302246342E+03 0.  0.
         25    1    4    4    0    0  0.59262849155E+02  0.27332059394E+02  0.69215023322E+02  0.15715391918E+03  0.12509000000E+03 0.  0.
         25    1    3    3    0    0 -0.55162872781E+02 -0.88616167305E+01 -0.95873617128E+02  0.16721462061E+03  0.12509000000E+03 0.  0.
         25    1    4    4    0    0 -0.40999763743E+01 -0.18470442663E+02  0.35412804379E+02  0.13137557563E+03  0.12509000000E+03 0.  0.
<mgrwt>
<rscale>  2 0.45566003E+03</rscale>
<asrwt>0</asrwt>
<pdfrwt beam="1">  1       21 0.34154289E-01 0.45566003E+03</pdfrwt>
<pdfrwt beam="2">  1       21 0.32866905E-01 0.45566003E+03</pdfrwt>
<totfact> 0.68131803E+04</totfact>
</mgrwt>
</event>
<event>
 7    0  0.4793433E-002  0.4561898E+03  0.7546771E-02  0.1025892E+00
         21   -1    0    0  502  501  0.00000000000E+00  0.00000000000E+00  0.21540726628E+03  0.21540726628E+03  0.00000000000E+00 0. -1.
         21   -1    0    0  501  502 -0.00000000000E+00 -0.00000000000E+00 -0.24152989681E+03  0.24152989681E+03  0.00000000000E+00 0. -1.
      99926    2    1    2    0    0  0.44408920985E-15 -0.14210854715E-13 -0.26122630526E+02  0.45693716309E+03  0.45618984994E+03 0.  0.
      99925    2    3    3    0    0 -0.38820355199E+01  0.10016013327E+03  0.38441718803E+02  0.28412748223E+03  0.26306565324E+03 0.  0.
         25    1    4    4    0    0 -0.21342087798E+02  0.22612389805E+02  0.42908448116E+02  0.13585082960E+03  0.12509000000E+03 0.  0.
         25    1    4    4    0    0  0.17460052278E+02  0.77547743468E+02 -0.44667293126E+01  0.14827665262E+03  0.12509000000E+03 0.  0.
         25    1    3    3    0    0  0.38820355199E+01 -0.10016013327E+03 -0.64564349329E+02  0.17280968087E+03  0.12509000000E+03 0.  0.
<mgrwt>
<rscale>  2 0.45618985E+03</rscale>
<asrwt>0</asrwt>
<pdfrwt beam="1">  1       21 0.31677539E-01 0.45618985E+03</pdfrwt>
<pdfrwt beam="2">  1       21 0.35519102E-01 0.45618985E+03</pdfrwt>
<totfact> 0.67758581E+04</totfact>
</mgrwt>
</event>
<event>
 7    0  0.4793433E-002  0.4527236E+03  0.7546771E-02  0.1026913E+00
         21   -1    0    0  502  501  0.00000000000E+00  0.00000000000E+00  0.96605513101E+02  0.96605513101E+02  0.00000000000E+00 0. -1.
         21   -1    0    0  501  502 -0.00000000000E+00 -0.00000000000E+00 -0.53040104969E+03  0.53040104969E+03  0.00000000000E+00 0. -1.
      99926    2    1    2    0    0  0.00000000000E+00  0.00000000000E+00 -0.43379553659E+03  0.62700656279E+03  0.45272360466E+03 0.  0.
      99925    2    3    3    0    0 -0.52208192686E+01 -0.10996548025E+03 -0.29293213710E+03  0.40881016223E+03  0.26305293764E+03 0.  0.
         25    1    4    4    0    0 -0.29684185901E+01 -0.11043773401E+02 -0.12505768158E+03  0.17725041117E+03  0.12509000000E+03 0.  0.
         25    1    4    4    0    0 -0.22524006786E+01 -0.98921706847E+02 -0.16787445552E+03  0.23155975106E+03  0.12509000000E+03 0.  0.
         25    1    3    3    0    0  0.52208192686E+01  0.10996548025E+03 -0.14086339949E+03  0.21819640056E+03  0.12509000000E+03 0.  0.
<mgrwt>
<rscale>  2 0.45272360E+03</rscale>
<asrwt>0</asrwt>
<pdfrwt beam="1">  1       21 0.14206693E-01 0.45272360E+03</pdfrwt>
<pdfrwt beam="2">  1       21 0.78000154E-01 0.45272360E+03</pdfrwt>
<totfact> 0.58082802E+04</totfact>
</mgrwt>
</event>
<event>
 7    0  0.4793433E-002  0.4522240E+03  0.7546771E-02  0.1027061E+00
         21   -1    0    0  502  501  0.00000000000E+00  0.00000000000E+00  0.59876801064E+03  0.59876801064E+03  0.00000000000E+00 0. -1.
         21   -1    0    0  501  502 -0.00000000000E+00 -0.00000000000E+00 -0.85386369932E+02  0.85386369932E+02  0.00000000000E+00 0. -1.
      99926    2    1    2    0    0 -0.35527136788E-14  0.00000000000E+00  0.51338164071E+03  0.68415438057E+03  0.45222395717E+03 0.  0.
      99925    2    3    3    0    0  0.30003614601E+02  0.10536679225E+03  0.34599854529E+03  0.44821585780E+03  0.26302107148E+03 0.  0.
         25    1    4    4    0    0  0.38075397161E+02  0.29685535279E+02  0.12635363089E+03  0.18423820182E+03  0.12509000000E+03 0.  0.
         25    1    4    4    0    0 -0.80717825602E+01  0.75681256967E+02  0.21964491440E+03  0.26397765597E+03  0.12509000000E+03 0.  0.
         25    1    3    3    0    0 -0.30003614601E+02 -0.10536679225E+03  0.16738309542E+03  0.23593852278E+03  0.12509000000E+03 0.  0.
<mgrwt>
<rscale>  2 0.45222396E+03</rscale>
<asrwt>0</asrwt>
<pdfrwt beam="1">  1       21 0.88054118E-01 0.45222396E+03</pdfrwt>
<pdfrwt beam="2">  1       21 0.12556819E-01 0.45222396E+03</pdfrwt>
<totfact> 0.54963486E+04</totfact>
</mgrwt>
</event>
<event>
 7    0  0.4793433E-002  0.4608677E+03  0.7546771E-02  0.1024530E+00
         21   -1    0    0  502  501  0.00000000000E+00  0.00000000000E+00  0.15216312606E+03  0.15216312606E+03  0.00000000000E+00 0. -1.
         21   -1    0    0  501  502 -0.00000000000E+00 -0.00000000000E+00 -0.34896606736E+03  0.34896606736E+03  0.00000000000E+00 0. -1.
      99926    2    1    2    0    0  0.00000000000E+00  0.71054273576E-14 -0.19680294129E+03  0.50112919342E+03  0.46086773677E+03 0.  0.
      99925    2    3    3    0    0 -0.70594084434E+02 -0.50359424143E+02 -0.35227887992E+02  0.27915261288E+03  0.26299349960E+03 0.  0.
         25    1    3    3    0    0  0.70594084434E+02  0.50359424143E+02 -0.16157505330E+03  0.22197658054E+03  0.12509000000E+03 0.  0.
         25    1    4    4    0    0 -0.43272321253E+02  0.25100123525E+00 -0.48195322676E+02  0.14086466561E+03  0.12509000000E+03 0.  0.
         25    1    4    4    0    0 -0.27321763181E+02 -0.50610425378E+02  0.12967434684E+02  0.13828794728E+03  0.12509000000E+03 0.  0.
<mgrwt>
<rscale>  2 0.46086774E+03</rscale>
<asrwt>0</asrwt>
<pdfrwt beam="1">  1       21 0.22376931E-01 0.46086774E+03</pdfrwt>
<pdfrwt beam="2">  1       21 0.51318538E-01 0.46086774E+03</pdfrwt>
<totfact> 0.62241303E+04</totfact>
</mgrwt>
</event>
<event>
 7    0  0.4793433E-002  0.4553917E+03  0.7546771E-02  0.1026126E+00
         21   -1    0    0  502  501  0.00000000000E+00  0.00000000000E+00  0.28199316755E+04  0.28199316755E+04  0.00000000000E+00 0. -1.
         21   -1    0    0  501  502 -0.00000000000E+00 -0.00000000000E+00 -0.18385337829E+02  0.18385337829E+02  0.00000000000E+00 0. -1.
      99926    2    1    2    0    0 -0.71054273576E-14 -0.71054273576E-14  0.28015463377E+04  0.28383170133E+04  0.45539168420E+03 0.  0.
      99925    2    3    3    0    0 -0.45572754220E+02 -0.35734005576E+02  0.23688886926E+04  0.23842311833E+04  0.26376296649E+03 0.  0.
         25    1    3    3    0    0  0.45572754220E+02  0.35734005576E+02  0.43265764511E+03  0.45408583006E+03  0.12509000000E+03 0.  0.
         25    1    4    4    0    0 -0.10398337840E+02 -0.20236677183E+02  0.81687956606E+03  0.82671481302E+03  0.12509000000E+03 0.  0.
         25    1    4    4    0    0 -0.35174416380E+02 -0.15497328393E+02  0.15520091265E+04  0.15575163703E+04  0.12509000000E+03 0.  0.
<mgrwt>
<rscale>  2 0.45539168E+03</rscale>
<asrwt>0</asrwt>
<pdfrwt beam="1">  1       21 0.41469554E+00 0.45539168E+03</pdfrwt>
<pdfrwt beam="2">  1       21 0.27037281E-02 0.45539168E+03</pdfrwt>
<totfact> 0.42399170E+03</totfact>
</mgrwt>
</event>
<event>
 7    0  0.4793433E-002  0.4613115E+03  0.7546771E-02  0.1024402E+00
         21   -1    0    0  502  501  0.00000000000E+00  0.00000000000E+00  0.11050696866E+03  0.11050696866E+03  0.00000000000E+00 0. -1.
         21   -1    0    0  501  502 -0.00000000000E+00 -0.00000000000E+00 -0.48143643598E+03  0.48143643598E+03  0.00000000000E+00 0. -1.
      99926    2    1    2    0    0  0.00000000000E+00  0.71054273576E-14 -0.37092946732E+03  0.59194340464E+03  0.46131152659E+03 0.  0.
      99925    2    3    3    0    0  0.45197980856E+02  0.33345699333E+02 -0.97373128557E+02  0.28594443124E+03  0.26292184857E+03 0.  0.
         25    1    4    4    0    0  0.54764366291E+02 -0.75669097691E+01 -0.54075238345E+02  0.14706472535E+03  0.12509000000E+03 0.  0.
         25    1    4    4    0    0 -0.95663854356E+01  0.40912609102E+02 -0.43297890211E+02  0.13887970590E+03  0.12509000000E+03 0.  0.
         25    1    3    3    0    0 -0.45197980856E+02 -0.33345699333E+02 -0.27355633877E+03  0.30599897339E+03  0.12509000000E+03 0.  0.
<mgrwt>
<rscale>  2 0.46131153E+03</rscale>
<asrwt>0</asrwt>
<pdfrwt beam="1">  1       21 0.16251025E-01 0.46131153E+03</pdfrwt>
<pdfrwt beam="2">  1       21 0.70799474E-01 0.46131153E+03</pdfrwt>
<totfact> 0.56314830E+04</totfact>
</mgrwt>
</event>
<event>
 7    0  0.4793433E-002  0.4578998E+03  0.7546771E-02  0.1025392E+00
         21   -1    0    0  502  501  0.00000000000E+00  0.00000000000E+00  0.79140037775E+03  0.79140037775E+03  0.00000000000E+00 0. -1.
         21   -1    0    0  501  502 -0.00000000000E+00 -0.00000000000E+00 -0.66234549803E+02  0.66234549803E+02  0.00000000000E+00 0. -1.
      99926    2    1    2    0    0 -0.71054273576E-14  0.00000000000E+00  0.72516582794E+03  0.85763492755E+03  0.45789976079E+03 0.  0.
      99925    2    3    3    0    0 -0.53635290696E+02 -0.96458687122E+02  0.52441299232E+03  0.59661724263E+03  0.26222533242E+03 0.  0.
         25    1    4    4    0    0  0.11277356170E+02 -0.37195015182E+02  0.22225135132E+03  0.25798026898E+03  0.12509000000E+03 0.  0.
         25    1    4    4    0    0 -0.64912646866E+02 -0.59263671941E+02  0.30216164100E+03  0.33863697366E+03  0.12509000000E+03 0.  0.
         25    1    3    3    0    0  0.53635290696E+02  0.96458687122E+02  0.20075283562E+03  0.26101768492E+03  0.12509000000E+03 0.  0.
<mgrwt>
<rscale>  2 0.45789976E+03</rscale>
<asrwt>0</asrwt>
<pdfrwt beam="1">  1       21 0.11638240E+00 0.45789976E+03</pdfrwt>
<pdfrwt beam="2">  1       21 0.97403754E-02 0.45789976E+03</pdfrwt>
<totfact> 0.44088341E+04</totfact>
</mgrwt>
</event>
<event>
 7    0  0.4793433E-002  0.4144660E+03  0.7546771E-02  0.1038883E+00
         21   -1    0    0  502  501  0.00000000000E+00  0.00000000000E+00  0.10250838996E+04  0.10250838996E+04  0.00000000000E+00 0. -1.
         21   -1    0    0  501  502 -0.00000000000E+00 -0.00000000000E+00 -0.41894637941E+02  0.41894637941E+02  0.00000000000E+00 0. -1.
      99926    2    1    2    0    0  0.00000000000E+00  0.00000000000E+00  0.98318926165E+03  0.10669785375E+04  0.41446601227E+03 0.  0.
      99925    2    3    3    0    0  0.40784860294E+02  0.45565486613E+02  0.57911956416E+03  0.63959177249E+03  0.26449678155E+03 0.  0.
         25    1    4    4    0    0  0.38224043448E+02 -0.12925600496E+02  0.24449523123E+03  0.27758525688E+03  0.12509000000E+03 0.  0.
         25    1    3    3    0    0 -0.40784860294E+02 -0.45565486613E+02  0.40406969749E+03  0.42738676504E+03  0.12509000000E+03 0.  0.
         25    1    4    4    0    0  0.25608168461E+01  0.58491087109E+02  0.33462433293E+03  0.36200651561E+03  0.12509000000E+03 0.  0.
<mgrwt>
<rscale>  2 0.41446601E+03</rscale>
<asrwt>0</asrwt>
<pdfrwt beam="1">  1       21 0.15074762E+00 0.41446601E+03</pdfrwt>
<pdfrwt beam="2">  1       21 0.61609768E-02 0.41446601E+03</pdfrwt>
<totfact> 0.50974826E+04</totfact>
</mgrwt>
</event>
<event>
 7    0  0.4793433E-002  0.4494711E+03  0.7546771E-02  0.1027880E+00
         21   -1    0    0  502  501  0.00000000000E+00  0.00000000000E+00  0.23839420628E+04  0.23839420628E+04  0.00000000000E+00 0.  1.
         21   -1    0    0  501  502 -0.00000000000E+00 -0.00000000000E+00 -0.21185949792E+02  0.21185949792E+02  0.00000000000E+00 0.  1.
      99926    2    1    2    0    0  0.35527136788E-14  0.00000000000E+00  0.23627561130E+04  0.24051280126E+04  0.44947114189E+03 0.  0.
      99925    2    3    3    0    0 -0.14459654754E+02 -0.56413658878E+02  0.10080473269E+04  0.10434103525E+04  0.26297180063E+03 0.  0.
         25    1    3    3    0    0  0.14459654754E+02  0.56413658878E+02  0.13547087861E+04  0.13617176601E+04  0.12509000000E+03 0.  0.
         25    1    4    4    0    0  0.27213581524E+02 -0.25129287542E+02  0.41238211299E+03  0.43252580885E+03  0.12509000000E+03 0.  0.
         25    1    4    4    0    0 -0.41673236278E+02 -0.31284371336E+02  0.59566521392E+03  0.61088454366E+03  0.12509000000E+03 0.  0.
<mgrwt>
<rscale>  2 0.44947114E+03</rscale>
<asrwt>0</asrwt>
<pdfrwt beam="1">  1       21 0.35057953E+00 0.44947114E+03</pdfrwt>
<pdfrwt beam="2">  1       21 0.31155825E-02 0.44947114E+03</pdfrwt>
<totfact> 0.85116934E+03</totfact>
</mgrwt>
</event>
<event>
 7    0  0.4793433E-002  0.4572878E+03  0.7546771E-02  0.1025571E+00
         21   -1    0    0  502  501  0.00000000000E+00  0.00000000000E+00  0.84097900525E+02  0.84097900525E+02  0.00000000000E+00 0.  1.
         21   -1    0    0  501  502 -0.00000000000E+00 -0.00000000000E+00 -0.62163312171E+03  0.62163312171E+03  0.00000000000E+00 0.  1.
      99926    2    1    2    0    0 -0.35527136788E-14  0.00000000000E+00 -0.53753522119E+03  0.70573102224E+03  0.45728783248E+03 0.  0.
      99925    2    3    3    0    0  0.19488195193E+02  0.64997537868E+02 -0.19375731393E+03  0.33366217471E+03  0.26302866850E+03 0.  0.
         25    1    4    4    0    0  0.38327976631E+02  0.10884524805E+02 -0.11840829474E+03  0.17679236136E+03  0.12509000000E+03 0.  0.
         25    1    3    3    0    0 -0.19488195193E+02 -0.64997537868E+02 -0.34377790726E+03  0.37206884753E+03  0.12509000000E+03 0.  0.
         25    1    4    4    0    0 -0.18839781438E+02  0.54113013063E+02 -0.75349019187E+02  0.15686981335E+03  0.12509000000E+03 0.  0.
<mgrwt>
<rscale>  2 0.45728783E+03</rscale>
<asrwt>0</asrwt>
<pdfrwt beam="1">  1       21 0.12367338E-01 0.45728783E+03</pdfrwt>
<pdfrwt beam="2">  1       21 0.91416639E-01 0.45728783E+03</pdfrwt>
<totfact> 0.51656674E+04</totfact>
</mgrwt>
</event>
<event>
 7    0  0.4793433E-002  0.4464702E+03  0.7546771E-02  0.1028780E+00
         21   -1    0    0  502  501  0.00000000000E+00  0.00000000000E+00  0.63410298854E+02  0.63410298854E+02  0.00000000000E+00 0.  1.
         21   -1    0    0  501  502 -0.00000000000E+00 -0.00000000000E+00 -0.78589629773E+03  0.78589629773E+03  0.00000000000E+00 0.  1.
      99926    2    1    2    0    0  0.35527136788E-14 -0.35527136788E-14 -0.72248599888E+03  0.84930659659E+03  0.44647024137E+03 0.  0.
      99925    2    3    3    0    0  0.20084071140E+02 -0.26461010445E+02 -0.64763447657E+03  0.69979467907E+03  0.26301829333E+03 0.  0.
         25    1    3    3    0    0 -0.20084071140E+02  0.26461010445E+02 -0.74851522311E+02  0.14951191752E+03  0.12509000000E+03 0.  0.
         25    1    4    4    0    0  0.21638224434E+02 -0.13491925648E+02 -0.42871719908E+03  0.44732112593E+03  0.12509000000E+03 0.  0.
         25    1    4    4    0    0 -0.15541532934E+01 -0.12969084797E+02 -0.21891727748E+03  0.25247355314E+03  0.12509000000E+03 0.  0.
<mgrwt>
<rscale>  2 0.44647024E+03</rscale>
<asrwt>0</asrwt>
<pdfrwt beam="1">  1       21 0.93250443E-02 0.44647024E+03</pdfrwt>
<pdfrwt beam="2">  1       21 0.11557298E+00 0.44647024E+03</pdfrwt>
<totfact> 0.48644502E+04</totfact>
</mgrwt>
</event>
<event>
 7    0  0.4793433E-002  0.4512563E+03  0.7546771E-02  0.1027348E+00
         21   -1    0    0  502  501  0.00000000000E+00  0.00000000000E+00  0.37262631485E+03  0.37262631485E+03  0.00000000000E+00 0.  1.
         21   -1    0    0  501  502 -0.00000000000E+00 -0.00000000000E+00 -0.13661960387E+03  0.13661960387E+03  0.00000000000E+00 0.  1.
      99926    2    1    2    0    0  0.00000000000E+00 -0.71054273576E-14  0.23600671098E+03  0.50924591872E+03  0.45125628871E+03 0.  0.
      99925    2    3    3    0    0 -0.13743555906E+02 -0.44846228587E+02  0.37362498667E+02  0.26985690324E+03  0.26310971546E+03 0.  0.
         25    1    3    3    0    0  0.13743555906E+02  0.44846228587E+02  0.19864421231E+03  0.23938901548E+03  0.12509000000E+03 0.  0.
         25    1    4    4    0    0 -0.84847328569E+01 -0.59361578072E+02  0.11730852868E+01  0.13872516669E+03  0.12509000000E+03 0.  0.
         25    1    4    4    0    0 -0.52588230490E+01  0.14515349485E+02  0.36189413380E+02  0.13113173655E+03  0.12509000000E+03 0.  0.
<mgrwt>
<rscale>  2 0.45125629E+03</rscale>
<asrwt>0</asrwt>
<pdfrwt beam="1">  1       21 0.54797987E-01 0.45125629E+03</pdfrwt>
<pdfrwt beam="2">  1       21 0.20091118E-01 0.45125629E+03</pdfrwt>
<totfact> 0.66582138E+04</totfact>
</mgrwt>
</event>
<event>
 7    0  0.4793433E-002  0.4560082E+03  0.7546771E-02  0.1025945E+00
         21   -1    0    0  502  501  0.00000000000E+00  0.00000000000E+00  0.21609954295E+03  0.21609954295E+03  0.00000000000E+00 0.  1.
         21   -1    0    0  501  502 -0.00000000000E+00 -0.00000000000E+00 -0.24056440695E+03  0.24056440695E+03  0.00000000000E+00 0.  1.
      99926    2    1    2    0    0  0.71054273576E-14  0.00000000000E+00 -0.24464863999E+02  0.45666394990E+03  0.45600815077E+03 0.  0.
      99925    2    3    3    0    0 -0.33898913136E+02  0.57830694933E+02  0.77099070231E+02  0.28214671171E+03  0.26299995192E+03 0.  0.
         25    1    3    3    0    0  0.33898913136E+02 -0.57830694933E+02 -0.10156393423E+03  0.17451723819E+03  0.12509000000E+03 0.  0.
         25    1    4    4    0    0 -0.34240789435E+02  0.66446592959E+02  0.34834562405E+02  0.14982835584E+03  0.12509000000E+03 0.  0.
         25    1    4    4    0    0  0.34187629802E+00 -0.86158980257E+01  0.42264507826E+02  0.13231835587E+03  0.12509000000E+03 0.  0.
<mgrwt>
<rscale>  2 0.45600815E+03</rscale>
<asrwt>0</asrwt>
<pdfrwt beam="1">  1       21 0.31779345E-01 0.45600815E+03</pdfrwt>
<pdfrwt beam="2">  1       21 0.35377118E-01 0.45600815E+03</pdfrwt>
<totfact> 0.67876459E+04</totfact>
</mgrwt>
</event>
<event>
 7    0  0.4793433E-002  0.4759199E+03  0.7546771E-02  0.1020263E+00
         21   -1    0    0  502  501  0.00000000000E+00  0.00000000000E+00  0.44543379728E+03  0.44543379728E+03  0.00000000000E+00 0. -1.
         21   -1    0    0  501  502 -0.00000000000E+00 -0.00000000000E+00 -0.12712311685E+03  0.12712311685E+03  0.00000000000E+00 0. -1.
      99926    2    1    2    0    0  0.00000000000E+00 -0.71054273576E-14  0.31831068043E+03  0.57255691413E+03  0.47591987839E+03 0.  0.
      99925    2    3    3    0    0 -0.50570653872E+02 -0.42718678615E+02  0.59578151602E+02  0.27764623934E+03  0.26297452640E+03 0.  0.
         25    1    4    4    0    0  0.19752337742E+01 -0.50598990418E+02  0.22929462626E+02  0.13688472426E+03  0.12509000000E+03 0.  0.
         25    1    4    4    0    0 -0.52545887646E+02  0.78803118029E+01  0.36648688976E+02  0.14076151508E+03  0.12509000000E+03 0.  0.
         25    1    3    3    0    0  0.50570653872E+02  0.42718678615E+02  0.25873252883E+03  0.29491067480E+03  0.12509000000E+03 0.  0.
<mgrwt>
<rscale>  2 0.47591988E+03</rscale>
<asrwt>0</asrwt>
<pdfrwt beam="1">  1       21 0.65504970E-01 0.47591988E+03</pdfrwt>
<pdfrwt beam="2">  1       21 0.18694576E-01 0.47591988E+03</pdfrwt>
<totfact> 0.51361110E+04</totfact>
</mgrwt>
</event>
<event>
 7    0  0.4793433E-002  0.4581348E+03  0.7546771E-02  0.1025324E+00
         21   -1    0    0  502  501  0.00000000000E+00  0.00000000000E+00  0.72507007557E+03  0.72507007557E+03  0.00000000000E+00 0.  1.
         21   -1    0    0  501  502 -0.00000000000E+00 -0.00000000000E+00 -0.72367997756E+02  0.72367997756E+02  0.00000000000E+00 0.  1.
      99926    2    1    2    0    0  0.00000000000E+00  0.00000000000E+00  0.65270207781E+03  0.79743807333E+03  0.45813478192E+03 0.  0.
      99925    2    3    3    0    0  0.67276610037E+02 -0.90728128554E+02  0.45573023321E+03  0.53820236738E+03  0.26308555116E+03 0.  0.
         25    1    3    3    0    0 -0.67276610037E+02  0.90728128554E+02  0.19697184461E+03  0.25923570594E+03  0.12509000000E+03 0.  0.
         25    1    4    4    0    0  0.10354091528E+02 -0.68286578911E+02  0.27644116256E+03  0.31118722424E+03  0.12509000000E+03 0.  0.
         25    1    4    4    0    0  0.56922518509E+02 -0.22441549643E+02  0.17928907065E+03  0.22701514315E+03  0.12509000000E+03 0.  0.
<mgrwt>
<rscale>  2 0.45813478E+03</rscale>
<asrwt>0</asrwt>
<pdfrwt beam="1">  1       21 0.10662795E+00 0.45813478E+03</pdfrwt>
<pdfrwt beam="2">  1       21 0.10642353E-01 0.45813478E+03</pdfrwt>
<totfact> 0.46728729E+04</totfact>
</mgrwt>
</event>
<event>
 7    0  0.4793433E-002  0.4492767E+03  0.7546771E-02  0.1027938E+00
         21   -1    0    0  502  501  0.00000000000E+00  0.00000000000E+00  0.95159875251E+02  0.95159875251E+02  0.00000000000E+00 0.  1.
         21   -1    0    0  501  502 -0.00000000000E+00 -0.00000000000E+00 -0.53029069717E+03  0.53029069717E+03  0.00000000000E+00 0.  1.
      99926    2    1    2    0    0  0.00000000000E+00  0.00000000000E+00 -0.43513082192E+03  0.62545057242E+03  0.44927673694E+03 0.  0.
      99925    2    3    3    0    0  0.91774787258E+02  0.34995707425E+02 -0.33690840234E+03  0.43852154064E+03  0.26295733289E+03 0.  0.
         25    1    3    3    0    0 -0.91774787258E+02 -0.34995707425E+02 -0.98222419576E+02  0.18692903178E+03  0.12509000000E+03 0.  0.
         25    1    4    4    0    0  0.42939544017E+02  0.46649938844E+02 -0.12781326030E+03  0.18974656477E+03  0.12509000000E+03 0.  0.
         25    1    4    4    0    0  0.48835243241E+02 -0.11654231419E+02 -0.20909514204E+03  0.24877497587E+03  0.12509000000E+03 0.  0.
<mgrwt>
<rscale>  2 0.44927674E+03</rscale>
<asrwt>0</asrwt>
<pdfrwt beam="1">  1       21 0.13994100E-01 0.44927674E+03</pdfrwt>
<pdfrwt beam="2">  1       21 0.77983924E-01 0.44927674E+03</pdfrwt>
<totfact> 0.59794780E+04</totfact>
</mgrwt>
</event>
<event>
 7    0  0.4793433E-002  0.4552331E+03  0.7546771E-02  0.1026173E+00
         21   -1    0    0  502  501  0.00000000000E+00  0.00000000000E+00  0.23544988418E+03  0.23544988418E+03  0.00000000000E+00 0. -1.
         21   -1    0    0  501  502 -0.00000000000E+00 -0.00000000000E+00 -0.22004386980E+03  0.22004386980E+03  0.00000000000E+00 0. -1.
      99926    2    1    2    0    0  0.00000000000E+00  0.00000000000E+00  0.15406014388E+02  0.45549375398E+03  0.45523314316E+03 0.  0.
      99925    2    3    3    0    0 -0.76072398260E+02  0.84307299551E+02  0.13039229691E+02  0.28653269248E+03  0.26274746776E+03 0.  0.
         25    1    3    3    0    0  0.76072398260E+02 -0.84307299551E+02  0.23667846969E+01  0.16896106150E+03  0.12509000000E+03 0.  0.
         25    1    4    4    0    0 -0.25932612282E+02  0.66172130883E+02  0.36777244426E+02  0.14849688580E+03  0.12509000000E+03 0.  0.
         25    1    4    4    0    0 -0.50139785978E+02  0.18135168668E+02 -0.23738014735E+02  0.13803580667E+03  0.12509000000E+03 0.  0.
<mgrwt>
<rscale>  2 0.45523314E+03</rscale>
<asrwt>0</asrwt>
<pdfrwt beam="1">  1       21 0.34624983E-01 0.45523314E+03</pdfrwt>
<pdfrwt beam="2">  1       21 0.32359393E-01 0.45523314E+03</pdfrwt>
<totfact> 0.68382354E+04</totfact>
</mgrwt>
</event>
<event>
 7    0  0.4793433E-002  0.4497489E+03  0.7546771E-02  0.1027797E+00
         21   -1    0    0  502  501  0.00000000000E+00  0.00000000000E+00  0.18864741813E+03  0.18864741813E+03  0.00000000000E+00 0. -1.
         21   -1    0    0  501  502 -0.00000000000E+00 -0.00000000000E+00 -0.26805841444E+03  0.26805841444E+03  0.00000000000E+00 0. -1.
      99926    2    1    2    0    0  0.00000000000E+00  0.00000000000E+00 -0.79410996306E+02  0.45670583257E+03  0.44974894238E+03 0.  0.
      99925    2    3    3    0    0 -0.90914833047E+02  0.45438235145E+02 -0.87309546781E+02  0.29533658123E+03  0.26319308344E+03 0.  0.
         25    1    3    3    0    0  0.90914833047E+02 -0.45438235145E+02  0.78985504741E+01  0.16136925135E+03  0.12509000000E+03 0.  0.
         25    1    4    4    0    0 -0.13905691420E+02  0.54450886278E+01 -0.64060797275E+02  0.14133050305E+03  0.12509000000E+03 0.  0.
         25    1    4    4    0    0 -0.77009141627E+02  0.39993146517E+02 -0.23248749506E+02  0.15400607818E+03  0.12509000000E+03 0.  0.
<mgrwt>
<rscale>  2 0.44974894E+03</rscale>
<asrwt>0</asrwt>
<pdfrwt beam="1">  1       21 0.27742267E-01 0.44974894E+03</pdfrwt>
<pdfrwt beam="2">  1       21 0.39420355E-01 0.44974894E+03</pdfrwt>
<totfact> 0.71362861E+04</totfact>
</mgrwt>
</event>
<event>
 7    0  0.4793433E-002  0.4523464E+03  0.7546771E-02  0.1027025E+00
         21   -1    0    0  502  501  0.00000000000E+00  0.00000000000E+00  0.48436359566E+03  0.48436359566E+03  0.00000000000E+00 0.  1.
         21   -1    0    0  501  502 -0.00000000000E+00 -0.00000000000E+00 -0.10561141880E+03  0.10561141880E+03  0.00000000000E+00 0.  1.
      99926    2    1    2    0    0 -0.35527136788E-14  0.00000000000E+00  0.37875217687E+03  0.58997501446E+03  0.45234644489E+03 0.  0.
      99925    2    3    3    0    0 -0.17487403300E+02 -0.90106066459E+02  0.15770150680E+03  0.31990869053E+03  0.26276775399E+03 0.  0.
         25    1    3    3    0    0  0.17487403300E+02  0.90106066459E+02  0.22105067007E+03  0.27006632394E+03  0.12509000000E+03 0.  0.
         25    1    4    4    0    0  0.23059408978E+02 -0.24627419138E+02  0.55449653193E+02  0.14092699619E+03  0.12509000000E+03 0.  0.
         25    1    4    4    0    0 -0.40546812278E+02 -0.65478647321E+02  0.10225185361E+03  0.17898169434E+03  0.12509000000E+03 0.  0.
<mgrwt>
<rscale>  2 0.45234644E+03</rscale>
<asrwt>0</asrwt>
<pdfrwt beam="1">  1       21 0.71229940E-01 0.45234644E+03</pdfrwt>
<pdfrwt beam="2">  1       21 0.15531091E-01 0.45234644E+03</pdfrwt>
<totfact> 0.60559725E+04</totfact>
</mgrwt>
</event>
<event>
 7    0  0.4793433E-002  0.4109871E+03  0.7546771E-02  0.1040040E+00
         21   -1    0    0  502  501  0.00000000000E+00  0.00000000000E+00  0.34529680704E+02  0.34529680704E+02  0.00000000000E+00 0.  1.
         21   -1    0    0  501  502 -0.00000000000E+00 -0.00000000000E+00 -0.12229364955E+04  0.12229364955E+04  0.00000000000E+00 0.  1.
      99926    2    1    2    0    0 -0.35527136788E-14  0.00000000000E+00 -0.11884068148E+04  0.12574661762E+04  0.41098713708E+03 0.  0.
      99925    2    3    3    0    0  0.24214653831E+02  0.23718273892E+02 -0.94713463982E+03  0.98358905687E+03  0.26312449691E+03 0.  0.
         25    1    4    4    0    0  0.36987760687E+02  0.43268296920E+02 -0.45826196679E+03  0.47842635615E+03  0.12509000000E+03 0.  0.
         25    1    3    3    0    0 -0.24214653831E+02 -0.23718273892E+02 -0.24127217499E+03  0.27387711935E+03  0.12509000000E+03 0.  0.
         25    1    4    4    0    0 -0.12773106855E+02 -0.19550023028E+02 -0.48887267303E+03  0.50516270072E+03  0.12509000000E+03 0.  0.
<mgrwt>
<rscale>  2 0.41098714E+03</rscale>
<asrwt>0</asrwt>
<pdfrwt beam="1">  1       21 0.50778935E-02 0.41098714E+03</pdfrwt>
<pdfrwt beam="2">  1       21 0.17984363E+00 0.41098714E+03</pdfrwt>
<totfact> 0.43458313E+04</totfact>
</mgrwt>
</event>
<event>
 7    0  0.4793433E-002  0.4572470E+03  0.7546771E-02  0.1025583E+00
         21   -1    0    0  502  501  0.00000000000E+00  0.00000000000E+00  0.20162162329E+03  0.20162162329E+03  0.00000000000E+00 0.  1.
         21   -1    0    0  501  502 -0.00000000000E+00 -0.00000000000E+00 -0.25924153535E+03  0.25924153535E+03  0.00000000000E+00 0.  1.
      99926    2    1    2    0    0  0.00000000000E+00  0.00000000000E+00 -0.57619912064E+02  0.46086315864E+03  0.45724697563E+03 0.  0.
      99925    2    3    3    0    0 -0.95553572556E+02  0.63841869896E+02 -0.26358083241E+02  0.28814639738E+03  0.26292076409E+03 0.  0.
         25    1    4    4    0    0 -0.32816849640E+02  0.47949486030E+02  0.21088434977E+02  0.13952895406E+03  0.12509000000E+03 0.  0.
         25    1    4    4    0    0 -0.62736722916E+02  0.15892383867E+02 -0.47446518217E+02  0.14861744332E+03  0.12509000000E+03 0.  0.
         25    1    3    3    0    0  0.95553572556E+02 -0.63841869896E+02 -0.31261828823E+02  0.17271676126E+03  0.12509000000E+03 0.  0.
<mgrwt>
<rscale>  2 0.45724698E+03</rscale>
<asrwt>0</asrwt>
<pdfrwt beam="1">  1       21 0.29650239E-01 0.45724698E+03</pdfrwt>
<pdfrwt beam="2">  1       21 0.38123755E-01 0.45724698E+03</pdfrwt>
<totfact> 0.66910622E+04</totfact>
</mgrwt>
</event>
<event>
 7    0  0.4793433E-002  0.4644489E+03  0.7546771E-02  0.1023499E+00
         21   -1    0    0  502  501  0.00000000000E+00  0.00000000000E+00  0.13734150362E+03  0.13734150362E+03  0.00000000000E+00 0.  1.
         21   -1    0    0  501  502 -0.00000000000E+00 -0.00000000000E+00 -0.39265760167E+03  0.39265760167E+03  0.00000000000E+00 0.  1.
      99926    2    1    2    0    0  0.00000000000E+00 -0.35527136788E-14 -0.25531609805E+03  0.52999910529E+03  0.46444885798E+03 0.  0.
      99925    2    3    3    0    0  0.74638752122E+02  0.29384501297E+02 -0.26386621949E+03  0.38115353125E+03  0.26309359619E+03 0.  0.
         25    1    4    4    0    0  0.23932146170E+02 -0.21852445473E+01 -0.17517098110E+03  0.21658694243E+03  0.12509000000E+03 0.  0.
         25    1    4    4    0    0  0.50706605953E+02  0.31569745844E+02 -0.88695238393E+02  0.16456658881E+03  0.12509000000E+03 0.  0.
         25    1    3    3    0    0 -0.74638752122E+02 -0.29384501297E+02  0.85501214414E+01  0.14884557404E+03  0.12509000000E+03 0.  0.
<mgrwt>
<rscale>  2 0.46444886E+03</rscale>
<asrwt>0</asrwt>
<pdfrwt beam="1">  1       21 0.20197280E-01 0.46444886E+03</pdfrwt>
<pdfrwt beam="2">  1       21 0.57743765E-01 0.46444886E+03</pdfrwt>
<totfact> 0.58685990E+04</totfact>
</mgrwt>
</event>
<event>
 7    0  0.4793433E-002  0.4507169E+03  0.7546771E-02  0.1027508E+00
         21   -1    0    0  502  501  0.00000000000E+00  0.00000000000E+00  0.78137466212E+03  0.78137466212E+03  0.00000000000E+00 0. -1.
         21   -1    0    0  501  502 -0.00000000000E+00 -0.00000000000E+00 -0.64996257765E+02  0.64996257765E+02  0.00000000000E+00 0. -1.
      99926    2    1    2    0    0  0.00000000000E+00 -0.35527136788E-14  0.71637840436E+03  0.84637091989E+03  0.45071689097E+03 0.  0.
      99925    2    3    3    0    0  0.70187309695E+02 -0.25516499756E+02  0.60195257231E+03  0.66111938996E+03  0.26297261884E+03 0.  0.
         25    1    3    3    0    0 -0.70187309695E+02  0.25516499756E+02  0.11442583204E+03  0.18525152993E+03  0.12509000000E+03 0.  0.
         25    1    4    4    0    0  0.45208185818E+02  0.25132929412E+02  0.32356713727E+03  0.35074013831E+03  0.12509000000E+03 0.  0.
         25    1    4    4    0    0  0.24979123877E+02 -0.50649429168E+02  0.27838543505E+03  0.31037925164E+03  0.12509000000E+03 0.  0.
<mgrwt>
<rscale>  2 0.45071689E+03</rscale>
<asrwt>0</asrwt>
<pdfrwt beam="1">  1       21 0.11490803E+00 0.45071689E+03</pdfrwt>
<pdfrwt beam="2">  1       21 0.95582737E-02 0.45071689E+03</pdfrwt>
<totfact> 0.47167118E+04</totfact>
</mgrwt>
</event>
<event>
 7    0  0.4793433E-002  0.4504504E+03  0.7546771E-02  0.1027588E+00
         21   -1    0    0  502  501  0.00000000000E+00  0.00000000000E+00  0.66633309618E+03  0.66633309618E+03  0.00000000000E+00 0. -1.
         21   -1    0    0  501  502 -0.00000000000E+00 -0.00000000000E+00 -0.76127665411E+02  0.76127665411E+02  0.00000000000E+00 0. -1.
      99926    2    1    2    0    0  0.00000000000E+00  0.00000000000E+00  0.59020543077E+03  0.74246076159E+03  0.45045036574E+03 0.  0.
      99925    2    3    3    0    0 -0.63413602286E+02  0.88038021130E+02  0.38742188369E+03  0.48065806262E+03  0.26299140496E+03 0.  0.
         25    1    4    4    0    0 -0.38538920021E+02  0.37082105253E+02  0.25936094879E+03  0.29287529896E+03  0.12509000000E+03 0.  0.
         25    1    3    3    0    0  0.63413602286E+02 -0.88038021130E+02  0.20278354708E+03  0.26180269897E+03  0.12509000000E+03 0.  0.
         25    1    4    4    0    0 -0.24874682264E+02  0.50955915878E+02  0.12806093490E+03  0.18778276366E+03  0.12509000000E+03 0.  0.
<mgrwt>
<rscale>  2 0.45045037E+03</rscale>
<asrwt>0</asrwt>
<pdfrwt beam="1">  1       21 0.97990158E-01 0.45045037E+03</pdfrwt>
<pdfrwt beam="2">  1       21 0.11195245E-01 0.45045037E+03</pdfrwt>
<totfact> 0.52510456E+04</totfact>
</mgrwt>
</event>
<event>
 7    0  0.4793433E-002  0.4565862E+03  0.7546771E-02  0.1025776E+00
         21   -1    0    0  502  501  0.00000000000E+00  0.00000000000E+00  0.23117357868E+03  0.23117357868E+03  0.00000000000E+00 0.  1.
         21   -1    0    0  501  502 -0.00000000000E+00 -0.00000000000E+00 -0.22544852469E+03  0.22544852469E+03  0.00000000000E+00 0.  1.
      99926    2    1    2    0    0  0.00000000000E+00 -0.14210854715E-13  0.57250539950E+01  0.45662210337E+03  0.45658621206E+03 0.  0.
      99925    2    3    3    0    0 -0.89736480409E+01 -0.10435824213E+03 -0.42965535492E+02  0.28635921645E+03  0.26302926557E+03 0.  0.
         25    1    4    4    0    0 -0.44632836215E+01 -0.19633410521E+02  0.77274822066E+01  0.12693547097E+03  0.12509000000E+03 0.  0.
         25    1    4    4    0    0 -0.45103644194E+01 -0.84724831606E+02 -0.50693017699E+02  0.15942374547E+03  0.12509000000E+03 0.  0.
         25    1    3    3    0    0  0.89736480409E+01  0.10435824213E+03  0.48690589487E+02  0.17026288692E+03  0.12509000000E+03 0.  0.
<mgrwt>
<rscale>  2 0.45658621E+03</rscale>
<asrwt>0</asrwt>
<pdfrwt beam="1">  1       21 0.33996115E-01 0.45658621E+03</pdfrwt>
<pdfrwt beam="2">  1       21 0.33154195E-01 0.45658621E+03</pdfrwt>
<totfact> 0.67567902E+04</totfact>
</mgrwt>
</event>
<event>
 7    0  0.4793433E-002  0.4547214E+03  0.7546771E-02  0.1026323E+00
         21   -1    0    0  502  501  0.00000000000E+00  0.00000000000E+00  0.11390316471E+03  0.11390316471E+03  0.00000000000E+00 0.  1.
         21   -1    0    0  501  502 -0.00000000000E+00 -0.00000000000E+00 -0.45383179693E+03  0.45383179693E+03  0.00000000000E+00 0.  1.
      99926    2    1    2    0    0  0.00000000000E+00  0.00000000000E+00 -0.33992863221E+03  0.56773496164E+03  0.45472135607E+03 0.  0.
      99925    2    3    3    0    0 -0.61830319406E+02 -0.72647581204E+02 -0.13858427303E+03  0.31222034654E+03  0.26301194766E+03 0.  0.
         25    1    4    4    0    0  0.96152882529E+00 -0.59985806432E+02 -0.59435576259E+02  0.15092818602E+03  0.12509000000E+03 0.  0.
         25    1    4    4    0    0 -0.62791848231E+02 -0.12661774772E+02 -0.79148696767E+02  0.16129216052E+03  0.12509000000E+03 0.  0.
         25    1    3    3    0    0  0.61830319406E+02  0.72647581204E+02 -0.20134435919E+03  0.25551461510E+03  0.12509000000E+03 0.  0.
<mgrwt>
<rscale>  2 0.45472136E+03</rscale>
<asrwt>0</asrwt>
<pdfrwt beam="1">  1       21 0.16750465E-01 0.45472136E+03</pdfrwt>
<pdfrwt beam="2">  1       21 0.66739970E-01 0.45472136E+03</pdfrwt>
<totfact> 0.60843525E+04</totfact>
</mgrwt>
</event>
<event>
 7    0  0.4793433E-002  0.4555486E+03  0.7546771E-02  0.1026080E+00
         21   -1    0    0  502  501  0.00000000000E+00  0.00000000000E+00  0.42549157236E+02  0.42549157236E+02  0.00000000000E+00 0.  1.
         21   -1    0    0  501  502 -0.00000000000E+00 -0.00000000000E+00 -0.12193221044E+04  0.12193221044E+04  0.00000000000E+00 0.  1.
      99926    2    1    2    0    0  0.00000000000E+00 -0.71054273576E-14 -0.11767729471E+04  0.12618712616E+04  0.45554858331E+03 0.  0.
      99925    2    3    3    0    0 -0.87254674040E+02  0.43685489777E+02 -0.57826071535E+03  0.64268938215E+03  0.26294939978E+03 0.  0.
         25    1    4    4    0    0 -0.67329580509E+01  0.38689056713E+02 -0.29025013649E+03  0.31848834463E+03  0.12509000000E+03 0.  0.
         25    1    3    3    0    0  0.87254674040E+02 -0.43685489777E+02 -0.59851223177E+03  0.61918187945E+03  0.12509000000E+03 0.  0.
         25    1    4    4    0    0 -0.80521715989E+02  0.49964330646E+01 -0.28801057887E+03  0.32420103752E+03  0.12509000000E+03 0.  0.
<mgrwt>
<rscale>  2 0.45554858E+03</rscale>
<asrwt>0</asrwt>
<pdfrwt beam="1">  1       21 0.62572281E-02 0.45554858E+03</pdfrwt>
<pdfrwt beam="2">  1       21 0.17931210E+00 0.45554858E+03</pdfrwt>
<totfact> 0.30113645E+04</totfact>
</mgrwt>
</event>
<event>
 7    0  0.4793433E-002  0.3916461E+03  0.7546771E-02  0.1046711E+00
         21   -1    0    0  502  501  0.00000000000E+00  0.00000000000E+00  0.75953072108E+02  0.75953072108E+02  0.00000000000E+00 0. -1.
         21   -1    0    0  501  502 -0.00000000000E+00 -0.00000000000E+00 -0.50487308257E+03  0.50487308257E+03  0.00000000000E+00 0. -1.
      99926    2    1    2    0    0  0.00000000000E+00  0.88817841970E-15 -0.42892001046E+03  0.58082615468E+03  0.39164607311E+03 0.  0.
      99925    2    3    3    0    0  0.21157819391E+02  0.32492542665E+01 -0.30663569467E+03  0.40459002625E+03  0.26307685022E+03 0.  0.
         25    1    3    3    0    0 -0.21157819391E+02 -0.32492542665E+01 -0.12228431580E+03  0.17623612843E+03  0.12509000000E+03 0.  0.
         25    1    4    4    0    0  0.11747399646E+02  0.40142709879E+02 -0.17397304902E+03  0.21831987642E+03  0.12509000000E+03 0.  0.
         25    1    4    4    0    0  0.94104197444E+01 -0.36893455613E+02 -0.13266264565E+03  0.18627014983E+03  0.12509000000E+03 0.  0.
<mgrwt>
<rscale>  2 0.39164607E+03</rscale>
<asrwt>0</asrwt>
<pdfrwt beam="1">  1       21 0.11169569E-01 0.39164607E+03</pdfrwt>
<pdfrwt beam="2">  1       21 0.74246045E-01 0.39164607E+03</pdfrwt>
<totfact> 0.10221790E+05</totfact>
</mgrwt>
</event>
<event>
 7    0  0.4793433E-002  0.4591734E+03  0.7546771E-02  0.1025021E+00
         21   -1    0    0  502  501  0.00000000000E+00  0.00000000000E+00  0.71082706433E+02  0.71082706433E+02  0.00000000000E+00 0. -1.
         21   -1    0    0  501  502 -0.00000000000E+00 -0.00000000000E+00 -0.74153139911E+03  0.74153139911E+03  0.00000000000E+00 0. -1.
      99926    2    1    2    0    0  0.00000000000E+00  0.00000000000E+00 -0.67044869267E+03  0.81261410554E+03  0.45917342586E+03 0.  0.
      99925    2    3    3    0    0 -0.45516005648E+02  0.77261979420E+02 -0.55346533517E+03  0.61929122985E+03  0.26297648163E+03 0.  0.
         25    1    4    4    0    0 -0.52212171516E+02  0.13412576471E+02 -0.29902142237E+03  0.32858382066E+03  0.12509000000E+03 0.  0.
         25    1    3    3    0    0  0.45516005648E+02 -0.77261979420E+02 -0.11698335750E+03  0.19332287569E+03  0.12509000000E+03 0.  0.
         25    1    4    4    0    0  0.66961658681E+01  0.63849402949E+02 -0.25444391281E+03  0.29070740919E+03  0.12509000000E+03 0.  0.
<mgrwt>
<rscale>  2 0.45917343E+03</rscale>
<asrwt>0</asrwt>
<pdfrwt beam="1">  1       21 0.10453340E-01 0.45917343E+03</pdfrwt>
<pdfrwt beam="2">  1       21 0.10904873E+00 0.45917343E+03</pdfrwt>
<totfact> 0.45647353E+04</totfact>
</mgrwt>
</event>
<event>
 7    0  0.4793433E-002  0.4540279E+03  0.7546771E-02  0.1026528E+00
         21   -1    0    0  502  501  0.00000000000E+00  0.00000000000E+00  0.13286578809E+03  0.13286578809E+03  0.00000000000E+00 0.  1.
         21   -1    0    0  501  502 -0.00000000000E+00 -0.00000000000E+00 -0.38787506192E+03  0.38787506192E+03  0.00000000000E+00 0.  1.
      99926    2    1    2    0    0  0.88817841970E-15  0.00000000000E+00 -0.25500927382E+03  0.52074085001E+03  0.45402786603E+03 0.  0.
      99925    2    3    3    0    0 -0.41657787756E+01 -0.65637507695E+02 -0.56137567709E+02  0.27676728644E+03  0.26291266270E+03 0.  0.
         25    1    3    3    0    0  0.41657787756E+01  0.65637507695E+02 -0.19887170611E+03  0.24397356357E+03  0.12509000000E+03 0.  0.
         25    1    4    4    0    0 -0.26589031873E+02 -0.22523837830E+01 -0.39027622672E+02  0.13372626249E+03  0.12509000000E+03 0.  0.
         25    1    4    4    0    0  0.22423253097E+02 -0.63385123912E+02 -0.17109945038E+02  0.14304102395E+03  0.12509000000E+03 0.  0.
<mgrwt>
<rscale>  2 0.45402787E+03</rscale>
<asrwt>0</asrwt>
<pdfrwt beam="1">  1       21 0.19539087E-01 0.45402787E+03</pdfrwt>
<pdfrwt beam="2">  1       21 0.57040450E-01 0.45402787E+03</pdfrwt>
<totfact> 0.64331526E+04</totfact>
</mgrwt>
</event>
<event>
 7    0  0.4793433E-002  0.4635062E+03  0.7546771E-02  0.1023769E+00
         21   -1    0    0  502  501  0.00000000000E+00  0.00000000000E+00  0.11319000746E+04  0.11319000746E+04  0.00000000000E+00 0. -1.
         21   -1    0    0  501  502 -0.00000000000E+00 -0.00000000000E+00 -0.47450745357E+02  0.47450745357E+02  0.00000000000E+00 0. -1.
      99926    2    1    2    0    0  0.00000000000E+00  0.35527136788E-14  0.10844493293E+04  0.11793508200E+04  0.46350621230E+03 0.  0.
      99925    2    3    3    0    0 -0.69433648140E+02 -0.25359531110E+02  0.91859417497E+03  0.95885234466E+03  0.26479883545E+03 0.  0.
         25    1    4    4    0    0 -0.38323938204E+02 -0.49329629991E+02  0.39226812781E+03  0.41644198735E+03  0.12509000000E+03 0.  0.
         25    1    4    4    0    0 -0.31109709936E+02  0.23970098880E+02  0.52632604716E+03  0.54241035731E+03  0.12509000000E+03 0.  0.
         25    1    3    3    0    0  0.69433648140E+02  0.25359531110E+02  0.16585515429E+03  0.22049847532E+03  0.12509000000E+03 0.  0.
<mgrwt>
<rscale>  2 0.46350621E+03</rscale>
<asrwt>0</asrwt>
<pdfrwt beam="1">  1       21 0.16645588E+00 0.46350621E+03</pdfrwt>
<pdfrwt beam="2">  1       21 0.69780515E-02 0.46350621E+03</pdfrwt>
<totfact> 0.30729647E+04</totfact>
</mgrwt>
</event>
<event>
 7    0  0.4793433E-002  0.4606511E+03  0.7546771E-02  0.1024593E+00
         21   -1    0    0  502  501  0.00000000000E+00  0.00000000000E+00  0.49391582221E+03  0.49391582221E+03  0.00000000000E+00 0.  1.
         21   -1    0    0  501  502 -0.00000000000E+00 -0.00000000000E+00 -0.10740667277E+03  0.10740667277E+03  0.00000000000E+00 0.  1.
      99926    2    1    2    0    0  0.00000000000E+00  0.00000000000E+00  0.38650914944E+03  0.60132249498E+03  0.46065108311E+03 0.  0.
      99925    2    3    3    0    0  0.20388285557E+02  0.19912960185E+02  0.91768460225E+02  0.27986986993E+03  0.26285639736E+03 0.  0.
         25    1    4    4    0    0  0.27236230355E+01 -0.12745898092E+02  0.10629769585E+02  0.12621559389E+03  0.12509000000E+03 0.  0.
         25    1    4    4    0    0  0.17664662521E+02  0.32658858277E+02  0.81138690640E+02  0.15365427604E+03  0.12509000000E+03 0.  0.
         25    1    3    3    0    0 -0.20388285557E+02 -0.19912960185E+02  0.29474068922E+03  0.32145262505E+03  0.12509000000E+03 0.  0.
<mgrwt>
<rscale>  2 0.46065108E+03</rscale>
<asrwt>0</asrwt>
<pdfrwt beam="1">  1       21 0.72634679E-01 0.46065108E+03</pdfrwt>
<pdfrwt beam="2">  1       21 0.15795099E-01 0.46065108E+03</pdfrwt>
<totfact> 0.56051967E+04</totfact>
</mgrwt>
</event>
<event>
 7    0  0.4793433E-002  0.4543475E+03  0.7546771E-02  0.1026433E+00
         21   -1    0    0  502  501  0.00000000000E+00  0.00000000000E+00  0.29541646173E+03  0.29541646173E+03  0.00000000000E+00 0.  1.
         21   -1    0    0  501  502 -0.00000000000E+00 -0.00000000000E+00 -0.17469544890E+03  0.17469544890E+03  0.00000000000E+00 0.  1.
      99926    2    1    2    0    0  0.00000000000E+00  0.00000000000E+00  0.12072101283E+03  0.47011191063E+03  0.45434749430E+03 0.  0.
      99925    2    3    3    0    0 -0.18238787492E+02 -0.58969046835E+02 -0.21284850328E+02  0.27105620204E+03  0.26307492840E+03 0.  0.
         25    1    4    4    0    0 -0.97704508926E+01 -0.54885338609E+02  0.21269309782E+02  0.13859204069E+03  0.12509000000E+03 0.  0.
         25    1    4    4    0    0 -0.84683365991E+01 -0.40837082261E+01 -0.42554160111E+02  0.13246416134E+03  0.12509000000E+03 0.  0.
         25    1    3    3    0    0  0.18238787492E+02  0.58969046835E+02  0.14200586316E+03  0.19905570860E+03  0.12509000000E+03 0.  0.
<mgrwt>
<rscale>  2 0.45434749E+03</rscale>
<asrwt>0</asrwt>
<pdfrwt beam="1">  1       21 0.43443598E-01 0.45434749E+03</pdfrwt>
<pdfrwt beam="2">  1       21 0.25690507E-01 0.45434749E+03</pdfrwt>
<totfact> 0.67777556E+04</totfact>
</mgrwt>
</event>
<event>
 7    0  0.4793433E-002  0.4561672E+03  0.7546771E-02  0.1025899E+00
         21   -1    0    0  502  501  0.00000000000E+00  0.00000000000E+00  0.92658322392E+03  0.92658322392E+03  0.00000000000E+00 0.  1.
         21   -1    0    0  501  502 -0.00000000000E+00 -0.00000000000E+00 -0.56144045055E+02  0.56144045055E+02  0.00000000000E+00 0.  1.
      99926    2    1    2    0    0  0.13322676296E-14 -0.71054273576E-14  0.87043917886E+03  0.98272726897E+03  0.45616720738E+03 0.  0.
      99925    2    3    3    0    0 -0.20261203011E+01  0.53232049398E+02  0.76492735566E+03  0.81062843347E+03  0.26299589628E+03 0.  0.
         25    1    4    4    0    0  0.34528434869E+02  0.45804094430E+02  0.37734228176E+03  0.40165275249E+03  0.12509000000E+03 0.  0.
         25    1    4    4    0    0 -0.36554555170E+02  0.74279549677E+01  0.38758507390E+03  0.40897568098E+03  0.12509000000E+03 0.  0.
         25    1    3    3    0    0  0.20261203011E+01 -0.53232049398E+02  0.10551182320E+03  0.17209883550E+03  0.12509000000E+03 0.  0.
<mgrwt>
<rscale>  2 0.45616721E+03</rscale>
<asrwt>0</asrwt>
<pdfrwt beam="1">  1       21 0.13626223E+00 0.45616721E+03</pdfrwt>
<pdfrwt beam="2">  1       21 0.82564778E-02 0.45616721E+03</pdfrwt>
<totfact> 0.39481572E+04</totfact>
</mgrwt>
</event>
<event>
 7    0  0.4793433E-002  0.4578902E+03  0.7546771E-02  0.1025395E+00
         21   -1    0    0  502  501  0.00000000000E+00  0.00000000000E+00  0.72626359951E+02  0.72626359951E+02  0.00000000000E+00 0. -1.
         21   -1    0    0  501  502 -0.00000000000E+00 -0.00000000000E+00 -0.72171959696E+03  0.72171959696E+03  0.00000000000E+00 0. -1.
      99926    2    1    2    0    0  0.00000000000E+00  0.00000000000E+00 -0.64909323701E+03  0.79434595691E+03  0.45789023677E+03 0.  0.
      99925    2    3    3    0    0  0.75957425796E+02  0.80182501458E+02 -0.34622740248E+03  0.44855124050E+03  0.26291830870E+03 0.  0.
         25    1    4    4    0    0  0.16262124104E+02  0.30208590046E+01 -0.14221976145E+03  0.19012509281E+03  0.12509000000E+03 0.  0.
         25    1    4    4    0    0  0.59695301692E+02  0.77161642454E+02 -0.20400764103E+03  0.25842614769E+03  0.12509000000E+03 0.  0.
         25    1    3    3    0    0 -0.75957425796E+02 -0.80182501458E+02 -0.30286583453E+03  0.34579471641E+03  0.12509000000E+03 0.  0.
<mgrwt>
<rscale>  2 0.45789024E+03</rscale>
<asrwt>0</asrwt>
<pdfrwt beam="1">  1       21 0.10680346E-01 0.45789024E+03</pdfrwt>
<pdfrwt beam="2">  1       21 0.10613524E+00 0.45789024E+03</pdfrwt>
<totfact> 0.46965107E+04</totfact>
</mgrwt>
</event>
<event>
 7    0  0.4793433E-002  0.4548461E+03  0.7546771E-02  0.1026287E+00
         21   -1    0    0  502  501  0.00000000000E+00  0.00000000000E+00  0.12342059285E+03  0.12342059285E+03  0.00000000000E+00 0.  1.
         21   -1    0    0  501  502 -0.00000000000E+00 -0.00000000000E+00 -0.41906502825E+03  0.41906502825E+03  0.00000000000E+00 0.  1.
      99926    2    1    2    0    0 -0.71054273576E-14  0.00000000000E+00 -0.29564443539E+03  0.54248562110E+03  0.45484614643E+03 0.  0.
      99925    2    3    3    0    0 -0.49557106099E+02 -0.13700028959E+02 -0.66003172348E+02  0.27597818152E+03  0.26299038073E+03 0.  0.
         25    1    4    4    0    0 -0.65537287967E+02 -0.39802388837E+01 -0.29314885989E+02  0.14428391822E+03  0.12509000000E+03 0.  0.
         25    1    4    4    0    0  0.15980181868E+02 -0.97197900757E+01 -0.36688286358E+02  0.13169426331E+03  0.12509000000E+03 0.  0.
         25    1    3    3    0    0  0.49557106099E+02  0.13700028959E+02 -0.22964126305E+03  0.26650743958E+03  0.12509000000E+03 0.  0.
<mgrwt>
<rscale>  2 0.45484615E+03</rscale>
<asrwt>0</asrwt>
<pdfrwt beam="1">  1       21 0.18150087E-01 0.45484615E+03</pdfrwt>
<pdfrwt beam="2">  1       21 0.61627210E-01 0.45484615E+03</pdfrwt>
<totfact> 0.62441805E+04</totfact>
</mgrwt>
</event>
<event>
 7    0  0.4793433E-002  0.4529030E+03  0.7546771E-02  0.1026860E+00
         21   -1    0    0  502  501  0.00000000000E+00  0.00000000000E+00  0.38870104267E+03  0.38870104267E+03  0.00000000000E+00 0.  1.
         21   -1    0    0  501  502 -0.00000000000E+00 -0.00000000000E+00 -0.13192731446E+03  0.13192731446E+03  0.00000000000E+00 0.  1.
      99926    2    1    2    0    0  0.00000000000E+00  0.00000000000E+00  0.25677372821E+03  0.52062835713E+03  0.45290301252E+03 0.  0.
      99925    2    3    3    0    0 -0.84727743167E+02  0.71886708973E+02  0.15695362485E+03  0.32580009808E+03  0.26299196598E+03 0.  0.
         25    1    3    3    0    0  0.84727743167E+02 -0.71886708973E+02  0.99820103354E+02  0.19482825905E+03  0.12509000000E+03 0.  0.
         25    1    4    4    0    0 -0.70074558092E+02  0.42071964084E+02  0.11871434071E+03  0.19084312050E+03  0.12509000000E+03 0.  0.
         25    1    4    4    0    0 -0.14653185075E+02  0.29814744889E+02  0.38239284142E+02  0.13495697758E+03  0.12509000000E+03 0.  0.
<mgrwt>
<rscale>  2 0.45290301E+03</rscale>
<asrwt>0</asrwt>
<pdfrwt beam="1">  1       21 0.57161918E-01 0.45290301E+03</pdfrwt>
<pdfrwt beam="2">  1       21 0.19401076E-01 0.45290301E+03</pdfrwt>
<totfact> 0.64917725E+04</totfact>
</mgrwt>
</event>
<event>
 7    0  0.4793433E-002  0.4456211E+03  0.7546771E-02  0.1029036E+00
         21   -1    0    0  502  501  0.00000000000E+00  0.00000000000E+00  0.10524655952E+03  0.10524655952E+03  0.00000000000E+00 0.  1.
         21   -1    0    0  501  502 -0.00000000000E+00 -0.00000000000E+00 -0.47169757660E+03  0.47169757660E+03  0.00000000000E+00 0.  1.
      99926    2    1    2    0    0 -0.71054273576E-14 -0.14210854715E-13 -0.36645101708E+03  0.57694413612E+03  0.44562112639E+03 0.  0.
      99925    2    3    3    0    0 -0.36471246127E+02  0.92508622410E+02 -0.19240419130E+03  0.34066505817E+03  0.26295496194E+03 0.  0.
         25    1    4    4    0    0 -0.49509124255E+02  0.55311722398E+02 -0.13139240672E+03  0.19601533783E+03  0.12509000000E+03 0.  0.
         25    1    3    3    0    0  0.36471246127E+02 -0.92508622410E+02 -0.17404682578E+03  0.23627907795E+03  0.12509000000E+03 0.  0.
         25    1    4    4    0    0  0.13037878128E+02  0.37196900013E+02 -0.61011784582E+02  0.14464972034E+03  0.12509000000E+03 0.  0.
<mgrwt>
<rscale>  2 0.44562113E+03</rscale>
<asrwt>0</asrwt>
<pdfrwt beam="1">  1       21 0.15477435E-01 0.44562113E+03</pdfrwt>
<pdfrwt beam="2">  1       21 0.69367291E-01 0.44562113E+03</pdfrwt>
<totfact> 0.64792768E+04</totfact>
</mgrwt>
</event>
<event>
 7    0  0.4793433E-002  0.4578857E+03  0.7546771E-02  0.1025396E+00
         21   -1    0    0  502  501  0.00000000000E+00  0.00000000000E+00  0.22861668239E+04  0.22861668239E+04  0.00000000000E+00 0. -1.
         21   -1    0    0  501  502 -0.00000000000E+00 -0.00000000000E+00 -0.22926945992E+02  0.22926945992E+02  0.00000000000E+00 0. -1.
      99926    2    1    2    0    0  0.00000000000E+00  0.71054273576E-14  0.22632398779E+04  0.23090937699E+04  0.45788567700E+03 0.  0.
      99925    2    3    3    0    0 -0.96027284098E+02 -0.61215958160E+02  0.15292924593E+04  0.15559039172E+04  0.26293143716E+03 0.  0.
         25    1    3    3    0    0  0.96027284098E+02  0.61215958160E+02  0.73394741861E+03  0.75318985270E+03  0.12509000000E+03 0.  0.
         25    1    4    4    0    0 -0.18621686851E+02 -0.21811321543E+02  0.54541109653E+03  0.56030641017E+03  0.12509000000E+03 0.  0.
         25    1    4    4    0    0 -0.77405597247E+02 -0.39404636618E+02  0.98388136281E+03  0.99559750705E+03  0.12509000000E+03 0.  0.
<mgrwt>
<rscale>  2 0.45788568E+03</rscale>
<asrwt>0</asrwt>
<pdfrwt beam="1">  1       21 0.33620085E+00 0.45788568E+03</pdfrwt>
<pdfrwt beam="2">  1       21 0.33716113E-02 0.45788568E+03</pdfrwt>
<totfact> 0.90825575E+03</totfact>
</mgrwt>
</event>
<event>
 7    0  0.4793433E-002  0.4303194E+03  0.7546771E-02  0.1033759E+00
         21   -1    0    0  502  501  0.00000000000E+00  0.00000000000E+00  0.30777792990E+03  0.30777792990E+03  0.00000000000E+00 0. -1.
         21   -1    0    0  501  502 -0.00000000000E+00 -0.00000000000E+00 -0.15041265538E+03  0.15041265538E+03  0.00000000000E+00 0. -1.
      99926    2    1    2    0    0  0.00000000000E+00  0.71054273576E-14  0.15736527452E+03  0.45819058529E+03  0.43031939629E+03 0.  0.
      99925    2    3    3    0    0  0.66287561833E+02 -0.58038863037E+02  0.10095429752E+03  0.29511926070E+03  0.26294687177E+03 0.  0.
         25    1    3    3    0    0 -0.66287561833E+02  0.58038863037E+02  0.56410977003E+02  0.16307132459E+03  0.12509000000E+03 0.  0.
         25    1    4    4    0    0  0.52193526160E+02 -0.66836865862E+02  0.55446052781E+02  0.16097547540E+03  0.12509000000E+03 0.  0.
         25    1    4    4    0    0  0.14094035673E+02  0.87980028254E+01  0.45508244736E+02  0.13414378530E+03  0.12509000000E+03 0.  0.
<mgrwt>
<rscale>  2 0.43031940E+03</rscale>
<asrwt>0</asrwt>
<pdfrwt beam="1">  1       21 0.45261460E-01 0.43031940E+03</pdfrwt>
<pdfrwt beam="2">  1       21 0.22119508E-01 0.43031940E+03</pdfrwt>
<totfact> 0.83521390E+04</totfact>
</mgrwt>
</event>
<event>
 7    0  0.4793433E-002  0.4527500E+03  0.7546771E-02  0.1026905E+00
         21   -1    0    0  502  501  0.00000000000E+00  0.00000000000E+00  0.14212887731E+03  0.14212887731E+03  0.00000000000E+00 0. -1.
         21   -1    0    0  501  502 -0.00000000000E+00 -0.00000000000E+00 -0.36055753748E+03  0.36055753748E+03  0.00000000000E+00 0. -1.
      99926    2    1    2    0    0 -0.14210854715E-13  0.00000000000E+00 -0.21842866017E+03  0.50268641479E+03  0.45274998843E+03 0.  0.
      99925    2    3    3    0    0 -0.85557304688E+02  0.67377639074E+02 -0.15804715233E+03  0.32618362948E+03  0.26373672317E+03 0.  0.
         25    1    4    4    0    0 -0.29838470278E+01  0.12870682051E+02 -0.73043411737E+02  0.14545585549E+03  0.12509000000E+03 0.  0.
         25    1    3    3    0    0  0.85557304688E+02 -0.67377639074E+02 -0.60381507833E+02  0.17650278531E+03  0.12509000000E+03 0.  0.
         25    1    4    4    0    0 -0.82573457660E+02  0.54506957023E+02 -0.85003740597E+02  0.18072777398E+03  0.12509000000E+03 0.  0.
<mgrwt>
<rscale>  2 0.45274999E+03</rscale>
<asrwt>0</asrwt>
<pdfrwt beam="1">  1       21 0.20901306E-01 0.45274999E+03</pdfrwt>
<pdfrwt beam="2">  1       21 0.53023167E-01 0.45274999E+03</pdfrwt>
<totfact> 0.66257783E+04</totfact>
</mgrwt>
</event>
<event>
 7    0  0.4793433E-002  0.4457349E+03  0.7546771E-02  0.1029002E+00
         21   -1    0    0  502  501  0.00000000000E+00  0.00000000000E+00  0.20432226828E+03  0.20432226828E+03  0.00000000000E+00 0.  1.
         21   -1    0    0  501  502 -0.00000000000E+00 -0.00000000000E+00 -0.24309588890E+03  0.24309588890E+03  0.00000000000E+00 0.  1.
      99926    2    1    2    0    0  0.00000000000E+00  0.00000000000E+00 -0.38773620625E+02  0.44741815718E+03  0.44573491418E+03 0.  0.
      99925    2    3    3    0    0 -0.31535478382E+02 -0.47090809365E+02  0.63263665602E+02  0.27633003193E+03  0.26295239956E+03 0.  0.
         25    1    4    4    0    0 -0.11694148042E+02 -0.35380263929E+02  0.71585485228E+02  0.14886405197E+03  0.12509000000E+03 0.  0.
         25    1    3    3    0    0  0.31535478382E+02  0.47090809365E+02 -0.10203728623E+03  0.17108812526E+03  0.12509000000E+03 0.  0.
         25    1    4    4    0    0 -0.19841330340E+02 -0.11710545436E+02 -0.83218196263E+01  0.12746597996E+03  0.12509000000E+03 0.  0.
<mgrwt>
<rscale>  2 0.44573491E+03</rscale>
<asrwt>0</asrwt>
<pdfrwt beam="1">  1       21 0.30047393E-01 0.44573491E+03</pdfrwt>
<pdfrwt beam="2">  1       21 0.35749395E-01 0.44573491E+03</pdfrwt>
<totfact> 0.74458700E+04</totfact>
</mgrwt>
</event>
<event>
 7    0  0.4793433E-002  0.4322658E+03  0.7546771E-02  0.1033147E+00
         21   -1    0    0  502  501  0.00000000000E+00  0.00000000000E+00  0.53681705737E+02  0.53681705737E+02  0.00000000000E+00 0. -1.
         21   -1    0    0  501  502 -0.00000000000E+00 -0.00000000000E+00 -0.87019290653E+03  0.87019290653E+03  0.00000000000E+00 0. -1.
      99926    2    1    2    0    0 -0.17763568394E-14  0.00000000000E+00 -0.81651120079E+03  0.92387461226E+03  0.43226584201E+03 0.  0.
      99925    2    3    3    0    0  0.13158973567E+02 -0.84693572968E+02 -0.46516214627E+03  0.54120004282E+03  0.26301236499E+03 0.  0.
         25    1    3    3    0    0 -0.13158973567E+02  0.84693572968E+02 -0.35134905452E+03  0.38267456944E+03  0.12509000000E+03 0.  0.
         25    1    4    4    0    0 -0.14096434065E+02 -0.18427938736E+02 -0.16627081623E+03  0.20936043277E+03  0.12509000000E+03 0.  0.
         25    1    4    4    0    0  0.27255407632E+02 -0.66265634232E+02 -0.29889133004E+03  0.33183961005E+03  0.12509000000E+03 0.  0.
<mgrwt>
<rscale>  2 0.43226584E+03</rscale>
<asrwt>0</asrwt>
<pdfrwt beam="1">  1       21 0.78943685E-02 0.43226584E+03</pdfrwt>
<pdfrwt beam="2">  1       21 0.12796954E+00 0.43226584E+03</pdfrwt>
<totfact> 0.50640285E+04</totfact>
</mgrwt>
</event>
<event>
 7    0  0.4793433E-002  0.4625974E+03  0.7546771E-02  0.1024031E+00
         21   -1    0    0  502  501  0.00000000000E+00  0.00000000000E+00  0.12023634922E+03  0.12023634922E+03  0.00000000000E+00 0. -1.
         21   -1    0    0  501  502 -0.00000000000E+00 -0.00000000000E+00 -0.44494931463E+03  0.44494931463E+03  0.00000000000E+00 0. -1.
      99926    2    1    2    0    0 -0.22204460493E-15  0.00000000000E+00 -0.32471296541E+03  0.56518566384E+03  0.46259736782E+03 0.  0.
      99925    2    3    3    0    0 -0.11972466378E+01 -0.11932272312E+03 -0.22015941696E+03  0.36315027525E+03  0.26299925454E+03 0.  0.
         25    1    4    4    0    0 -0.76053559485E+01 -0.10097330173E+03 -0.10618715353E+03  0.19281252236E+03  0.12509000000E+03 0.  0.
         25    1    4    4    0    0  0.64081093107E+01 -0.18349421381E+02 -0.11397226343E+03  0.17033775289E+03  0.12509000000E+03 0.  0.
         25    1    3    3    0    0  0.11972466378E+01  0.11932272312E+03 -0.10455354845E+03  0.20203538859E+03  0.12509000000E+03 0.  0.
<mgrwt>
<rscale>  2 0.46259737E+03</rscale>
<asrwt>0</asrwt>
<pdfrwt beam="1">  1       21 0.17681816E-01 0.46259737E+03</pdfrwt>
<pdfrwt beam="2">  1       21 0.65433722E-01 0.46259737E+03</pdfrwt>
<totfact> 0.57349582E+04</totfact>
</mgrwt>
</event>
<event>
 7    0  0.4793433E-002  0.4494649E+03  0.7546771E-02  0.1027882E+00
         21   -1    0    0  502  501  0.00000000000E+00  0.00000000000E+00  0.61386822654E+02  0.61386822654E+02  0.00000000000E+00 0.  1.
         21   -1    0    0  501  502 -0.00000000000E+00 -0.00000000000E+00 -0.82272832334E+03  0.82272832334E+03  0.00000000000E+00 0.  1.
      99926    2    1    2    0    0  0.00000000000E+00  0.00000000000E+00 -0.76134150068E+03  0.88411514599E+03  0.44946491599E+03 0.  0.
      99925    2    3    3    0    0 -0.99874851617E+02 -0.27552574696E+02 -0.54039750164E+03  0.60989281071E+03  0.26306966836E+03 0.  0.
         25    1    4    4    0    0 -0.46064037350E+02  0.26805568333E+02 -0.25029447475E+03  0.28484252881E+03  0.12509000000E+03 0.  0.
         25    1    4    4    0    0 -0.53810814267E+02 -0.54358143028E+02 -0.29010302690E+03  0.32505028190E+03  0.12509000000E+03 0.  0.
         25    1    3    3    0    0  0.99874851617E+02  0.27552574696E+02 -0.22094399904E+03  0.27422233529E+03  0.12509000000E+03 0.  0.
<mgrwt>
<rscale>  2 0.44946492E+03</rscale>
<asrwt>0</asrwt>
<pdfrwt beam="1">  1       21 0.90274745E-02 0.44946492E+03</pdfrwt>
<pdfrwt beam="2">  1       21 0.12098945E+00 0.44946492E+03</pdfrwt>
<totfact> 0.45884499E+04</totfact>
</mgrwt>
</event>
<event>
 7    0  0.4793433E-002  0.4563353E+03  0.7546771E-02  0.1025849E+00
         21   -1    0    0  502  501  0.00000000000E+00  0.00000000000E+00  0.14316133094E+03  0.14316133094E+03  0.00000000000E+00 0. -1.
         21   -1    0    0  501  502 -0.00000000000E+00 -0.00000000000E+00 -0.36364899464E+03  0.36364899464E+03  0.00000000000E+00 0. -1.
      99926    2    1    2    0    0  0.00000000000E+00  0.00000000000E+00 -0.22048766370E+03  0.50681032558E+03  0.45633528931E+03 0.  0.
      99925    2    3    3    0    0 -0.87485876792E+02 -0.52445118637E+02 -0.81458028614E+02  0.29378211938E+03  0.26318862843E+03 0.  0.
         25    1    4    4    0    0 -0.78688304418E+02 -0.28207282026E+02 -0.19114922866E+02  0.15165878935E+03  0.12509000000E+03 0.  0.
         25    1    3    3    0    0  0.87485876792E+02  0.52445118637E+02 -0.13902963508E+03  0.21302820620E+03  0.12509000000E+03 0.  0.
         25    1    4    4    0    0 -0.87975723744E+01 -0.24237836611E+02 -0.62343105747E+02  0.14212333003E+03  0.12509000000E+03 0.  0.
<mgrwt>
<rscale>  2 0.45633529E+03</rscale>
<asrwt>0</asrwt>
<pdfrwt beam="1">  1       21 0.21053137E-01 0.45633529E+03</pdfrwt>
<pdfrwt beam="2">  1       21 0.53477793E-01 0.45633529E+03</pdfrwt>
<totfact> 0.64112630E+04</totfact>
</mgrwt>
</event>
<event>
 7    0  0.4793433E-002  0.4136336E+03  0.7546771E-02  0.1039158E+00
         21   -1    0    0  502  501  0.00000000000E+00  0.00000000000E+00  0.58088234250E+02  0.58088234250E+02  0.00000000000E+00 0. -1.
         21   -1    0    0  501  502 -0.00000000000E+00 -0.00000000000E+00 -0.73634850724E+03  0.73634850724E+03  0.00000000000E+00 0. -1.
      99926    2    1    2    0    0  0.71054273576E-14  0.17763568394E-14 -0.67826027299E+03  0.79443674149E+03  0.41363357977E+03 0.  0.
      99925    2    3    3    0    0  0.52804181696E+02  0.72601132252E+01 -0.52473880640E+03  0.58935787946E+03  0.26296559526E+03 0.  0.
         25    1    4    4    0    0  0.56593660743E+02 -0.17576976648E+02 -0.23433324014E+03  0.27216055570E+03  0.12509000000E+03 0.  0.
         25    1    3    3    0    0 -0.52804181696E+02 -0.72601132252E+01 -0.15352146660E+03  0.20507886204E+03  0.12509000000E+03 0.  0.
         25    1    4    4    0    0 -0.37894790475E+01  0.24837089873E+02 -0.29040556626E+03  0.31719732376E+03  0.12509000000E+03 0.  0.
<mgrwt>
<rscale>  2 0.41363358E+03</rscale>
<asrwt>0</asrwt>
<pdfrwt beam="1">  1       21 0.85423879E-02 0.41363358E+03</pdfrwt>
<pdfrwt beam="2">  1       21 0.10828654E+00 0.41363358E+03</pdfrwt>
<totfact> 0.67391206E+04</totfact>
</mgrwt>
</event>
<event>
 7    0  0.4793433E-002  0.4555665E+03  0.7546771E-02  0.1026075E+00
         21   -1    0    0  502  501  0.00000000000E+00  0.00000000000E+00  0.69778035514E+03  0.69778035514E+03  0.00000000000E+00 0.  1.
         21   -1    0    0  501  502 -0.00000000000E+00 -0.00000000000E+00 -0.74357517071E+02  0.74357517071E+02  0.00000000000E+00 0.  1.
      99926    2    1    2    0    0 -0.88817841970E-15  0.00000000000E+00  0.62342283807E+03  0.77213787221E+03  0.45556652497E+03 0.  0.
      99925    2    3    3    0    0  0.64774527513E+01  0.11002410850E+03  0.34476327504E+03  0.44741349368E+03  0.26300162863E+03 0.  0.
         25    1    3    3    0    0 -0.64774527513E+01 -0.11002410850E+03  0.27865956303E+03  0.32472437853E+03  0.12509000000E+03 0.  0.
         25    1    4    4    0    0 -0.48463962182E+01  0.73690734293E+02  0.23700673366E+03  0.27798113565E+03  0.12509000000E+03 0.  0.
         25    1    4    4    0    0  0.11323848969E+02  0.36333374210E+02  0.10775654138E+03  0.16943235803E+03  0.12509000000E+03 0.  0.
<mgrwt>
<rscale>  2 0.45556652E+03</rscale>
<asrwt>0</asrwt>
<pdfrwt beam="1">  1       21 0.10261475E+00 0.45556652E+03</pdfrwt>
<pdfrwt beam="2">  1       21 0.10934929E-01 0.45556652E+03</pdfrwt>
<totfact> 0.48924041E+04</totfact>
</mgrwt>
</event>
<event>
 7    0  0.4793433E-002  0.4678653E+03  0.7546771E-02  0.1022524E+00
         21   -1    0    0  502  501  0.00000000000E+00  0.00000000000E+00  0.36271697610E+02  0.36271697610E+02  0.00000000000E+00 0. -1.
         21   -1    0    0  501  502 -0.00000000000E+00 -0.00000000000E+00 -0.15087380077E+04  0.15087380077E+04  0.00000000000E+00 0. -1.
      99926    2    1    2    0    0  0.35527136788E-14  0.00000000000E+00 -0.14724663101E+04  0.15450097053E+04  0.46786531732E+03 0.  0.
      99925    2    3    3    0    0 -0.30952634896E+02 -0.15911310936E+02 -0.13121664484E+04  0.13387215836E+04  0.26302747859E+03 0.  0.
         25    1    4    4    0    0 -0.39822431205E+02 -0.16576821666E+02 -0.51372223979E+03  0.53048908075E+03  0.12509000000E+03 0.  0.
         25    1    4    4    0    0  0.88697963086E+01  0.66551072953E+00 -0.79844420864E+03  0.80823250281E+03  0.12509000000E+03 0.  0.
         25    1    3    3    0    0  0.30952634896E+02  0.15911310936E+02 -0.16029986164E+03  0.20628812172E+03  0.12509000000E+03 0.  0.
<mgrwt>
<rscale>  2 0.46786532E+03</rscale>
<asrwt>0</asrwt>
<pdfrwt beam="1">  1       21 0.53340740E-02 0.46786532E+03</pdfrwt>
<pdfrwt beam="2">  1       21 0.22187320E+00 0.46786532E+03</pdfrwt>
<totfact> 0.20564537E+04</totfact>
</mgrwt>
</event>
<event>
 7    0  0.4793433E-002  0.4316716E+03  0.7546771E-02  0.1033333E+00
         21   -1    0    0  502  501  0.00000000000E+00  0.00000000000E+00  0.86616471279E+03  0.86616471279E+03  0.00000000000E+00 0. -1.
         21   -1    0    0  501  502 -0.00000000000E+00 -0.00000000000E+00 -0.53783176037E+02  0.53783176037E+02  0.00000000000E+00 0. -1.
      99926    2    1    2    0    0  0.00000000000E+00 -0.71054273576E-14  0.81238153676E+03  0.91994788883E+03  0.43167158454E+03 0.  0.
      99925    2    3    3    0    0  0.69208967994E+02  0.52136798437E+02  0.57073308422E+03  0.63437896595E+03  0.26304427767E+03 0.  0.
         25    1    4    4    0    0  0.72116683631E+02  0.46514235243E+02  0.31153717748E+03  0.34650730322E+03  0.12509000000E+03 0.  0.
         25    1    4    4    0    0 -0.29077156372E+01  0.56225631944E+01  0.25919590674E+03  0.28787166272E+03  0.12509000000E+03 0.  0.
         25    1    3    3    0    0 -0.69208967994E+02 -0.52136798437E+02  0.24164845254E+03  0.28556892288E+03  0.12509000000E+03 0.  0.
<mgrwt>
<rscale>  2 0.43167158E+03</rscale>
<asrwt>0</asrwt>
<pdfrwt beam="1">  1       21 0.12737715E+00 0.43167158E+03</pdfrwt>
<pdfrwt beam="2">  1       21 0.79092911E-02 0.43167158E+03</pdfrwt>
<totfact> 0.51086860E+04</totfact>
</mgrwt>
</event>
<event>
 7    0  0.4793433E-002  0.4145520E+03  0.7546771E-02  0.1038854E+00
         21   -1    0    0  502  501  0.00000000000E+00  0.00000000000E+00  0.42031988019E+03  0.42031988019E+03  0.00000000000E+00 0. -1.
         21   -1    0    0  501  502 -0.00000000000E+00 -0.00000000000E+00 -0.10221581978E+03  0.10221581978E+03  0.00000000000E+00 0. -1.
      99926    2    1    2    0    0  0.66613381478E-15  0.00000000000E+00  0.31810406041E+03  0.52253569997E+03  0.41455200457E+03 0.  0.
      99925    2    3    3    0    0 -0.17872398075E+01 -0.34106604337E+02  0.13327873029E+03  0.29676066716E+03  0.26293957279E+03 0.  0.
         25    1    4    4    0    0  0.36251094980E+02 -0.12582495493E+02  0.83482293570E+02  0.15520716001E+03  0.12509000000E+03 0.  0.
         25    1    4    4    0    0 -0.38038334787E+02 -0.21524108844E+02  0.49796436723E+02  0.14155350715E+03  0.12509000000E+03 0.  0.
         25    1    3    3    0    0  0.17872398075E+01  0.34106604337E+02  0.18482533012E+03  0.22577503281E+03  0.12509000000E+03 0.  0.
<mgrwt>
<rscale>  2 0.41455200E+03</rscale>
<asrwt>0</asrwt>
<pdfrwt beam="1">  1       21 0.61811746E-01 0.41455200E+03</pdfrwt>
<pdfrwt beam="2">  1       21 0.15031738E-01 0.41455200E+03</pdfrwt>
<totfact> 0.88967230E+04</totfact>
</mgrwt>
</event>
<event>
 7    0  0.4793433E-002  0.4185445E+03  0.7546771E-02  0.1037541E+00
         21   -1    0    0  502  501  0.00000000000E+00  0.00000000000E+00  0.10968777926E+03  0.10968777926E+03  0.00000000000E+00 0.  1.
         21   -1    0    0  501  502 -0.00000000000E+00 -0.00000000000E+00 -0.39926848272E+03  0.39926848272E+03  0.00000000000E+00 0.  1.
      99926    2    1    2    0    0  0.00000000000E+00 -0.35527136788E-14 -0.28958070346E+03  0.50895626198E+03  0.41854449320E+03 0.  0.
      99925    2    3    3    0    0  0.26439942848E+02  0.16558046527E+02 -0.10739838536E+03  0.28577215723E+03  0.26297922577E+03 0.  0.
         25    1    4    4    0    0 -0.57163969990E+01  0.20712967397E+01 -0.14621675189E+02  0.12608833788E+03  0.12509000000E+03 0.  0.
         25    1    3    3    0    0 -0.26439942848E+02 -0.16558046527E+02 -0.18218231810E+03  0.22318410475E+03  0.12509000000E+03 0.  0.
         25    1    4    4    0    0  0.32156339847E+02  0.14486749787E+02 -0.92776710172E+02  0.15968381935E+03  0.12509000000E+03 0.  0.
<mgrwt>
<rscale>  2 0.41854449E+03</rscale>
<asrwt>0</asrwt>
<pdfrwt beam="1">  1       21 0.16130556E-01 0.41854449E+03</pdfrwt>
<pdfrwt beam="2">  1       21 0.58715952E-01 0.41854449E+03</pdfrwt>
<totfact> 0.87258077E+04</totfact>
</mgrwt>
</event>
<event>
 7    0  0.4793433E-002  0.4387736E+03  0.7546771E-02  0.1031124E+00
         21   -1    0    0  502  501  0.00000000000E+00  0.00000000000E+00  0.76754284659E+03  0.76754284659E+03  0.00000000000E+00 0.  1.
         21   -1    0    0  501  502 -0.00000000000E+00 -0.00000000000E+00 -0.62707340736E+02  0.62707340736E+02  0.00000000000E+00 0.  1.
      99926    2    1    2    0    0  0.00000000000E+00  0.14210854715E-13  0.70483550586E+03  0.83025018733E+03  0.43877361275E+03 0.  0.
      99925    2    3    3    0    0 -0.73743847682E+02 -0.56976028134E+02  0.50245274160E+03  0.57472971022E+03  0.26300391521E+03 0.  0.
         25    1    3    3    0    0  0.73743847682E+02  0.56976028134E+02  0.20238276426E+03  0.25552047711E+03  0.12509000000E+03 0.  0.
         25    1    4    4    0    0 -0.37061017760E+02 -0.59963293359E+02  0.31724921286E+03  0.34822935940E+03  0.12509000000E+03 0.  0.
         25    1    4    4    0    0 -0.36682829922E+02  0.29872652250E+01  0.18520352874E+03  0.22650035082E+03  0.12509000000E+03 0.  0.
<mgrwt>
<rscale>  2 0.43877361E+03</rscale>
<asrwt>0</asrwt>
<pdfrwt beam="1">  1       21 0.11287394E+00 0.43877361E+03</pdfrwt>
<pdfrwt beam="2">  1       21 0.92216682E-02 0.43877361E+03</pdfrwt>
<totfact> 0.52736337E+04</totfact>
</mgrwt>
</event>
<event>
 7    0  0.4793433E-002  0.4500104E+03  0.7546771E-02  0.1027719E+00
         21   -1    0    0  502  501  0.00000000000E+00  0.00000000000E+00  0.24486138422E+02  0.24486138422E+02  0.00000000000E+00 0. -1.
         21   -1    0    0  501  502 -0.00000000000E+00 -0.00000000000E+00 -0.20675917380E+04  0.20675917380E+04  0.00000000000E+00 0. -1.
      99926    2    1    2    0    0  0.00000000000E+00 -0.71054273576E-14 -0.20431055996E+04  0.20920778765E+04  0.45001038876E+03 0.  0.
      99925    2    3    3    0    0  0.32320705966E+02  0.56388508184E+02 -0.16951093138E+04  0.17166138769E+04  0.26295118350E+03 0.  0.
         25    1    4    4    0    0  0.55167204102E+02  0.41005859746E+02 -0.90922681389E+03  0.92036178111E+03  0.12509000000E+03 0.  0.
         25    1    4    4    0    0 -0.22846498136E+02  0.15382648438E+02 -0.78588249990E+03  0.79625209582E+03  0.12509000000E+03 0.  0.
         25    1    3    3    0    0 -0.32320705966E+02 -0.56388508184E+02 -0.34799628584E+03  0.37546399953E+03  0.12509000000E+03 0.  0.
<mgrwt>
<rscale>  2 0.45001039E+03</rscale>
<asrwt>0</asrwt>
<pdfrwt beam="1">  1       21 0.36009042E-02 0.45001039E+03</pdfrwt>
<pdfrwt beam="2">  1       21 0.30405748E+00 0.45001039E+03</pdfrwt>
<totfact> 0.12751004E+04</totfact>
</mgrwt>
</event>
<event>
 7    0  0.4793433E-002  0.4554556E+03  0.7546771E-02  0.1026108E+00
         21   -1    0    0  502  501  0.00000000000E+00  0.00000000000E+00  0.39142750870E+03  0.39142750870E+03  0.00000000000E+00 0. -1.
         21   -1    0    0  501  502 -0.00000000000E+00 -0.00000000000E+00 -0.13248928334E+03  0.13248928334E+03  0.00000000000E+00 0. -1.
      99926    2    1    2    0    0 -0.44408920985E-15 -0.71054273576E-14  0.25893822536E+03  0.52391679203E+03  0.45545559654E+03 0.  0.
      99925    2    3    3    0    0  0.24576673029E+01 -0.47591979676E+02  0.44240098830E+02  0.27090724618E+03  0.26298766707E+03 0.  0.
         25    1    4    4    0    0  0.66791767000E+01 -0.19654208335E+02 -0.18496577063E+02  0.12814261887E+03  0.12509000000E+03 0.  0.
         25    1    3    3    0    0 -0.24576673029E+01  0.47591979676E+02  0.21469812653E+03  0.25300954586E+03  0.12509000000E+03 0.  0.
         25    1    4    4    0    0 -0.42215093971E+01 -0.27937771341E+02  0.62736675893E+02  0.14276462731E+03  0.12509000000E+03 0.  0.
<mgrwt>
<rscale>  2 0.45545560E+03</rscale>
<asrwt>0</asrwt>
<pdfrwt beam="1">  1       21 0.57562869E-01 0.45545560E+03</pdfrwt>
<pdfrwt beam="2">  1       21 0.19483718E-01 0.45545560E+03</pdfrwt>
<totfact> 0.63390906E+04</totfact>
</mgrwt>
</event>
<event>
 7    0  0.4793433E-002  0.4616492E+03  0.7546771E-02  0.1024304E+00
         21   -1    0    0  502  501  0.00000000000E+00  0.00000000000E+00  0.61216914258E+03  0.61216914258E+03  0.00000000000E+00 0. -1.
         21   -1    0    0  501  502 -0.00000000000E+00 -0.00000000000E+00 -0.87034751356E+02  0.87034751356E+02  0.00000000000E+00 0. -1.
      99926    2    1    2    0    0  0.00000000000E+00 -0.35527136788E-14  0.52513439123E+03  0.69920389394E+03  0.46164917031E+03 0.  0.
      99925    2    3    3    0    0 -0.47015606562E+02 -0.23781084507E+02  0.49040785579E+03  0.55909876339E+03  0.26327847419E+03 0.  0.
         25    1    3    3    0    0  0.47015606562E+02  0.23781084507E+02  0.34726535439E+02  0.14010513054E+03  0.12509000000E+03 0.  0.
         25    1    4    4    0    0 -0.56131753560E+02  0.55481946392E+01  0.21497127756E+03  0.25503277142E+03  0.12509000000E+03 0.  0.
         25    1    4    4    0    0  0.91161469978E+01 -0.29329279147E+02  0.27543657823E+03  0.30406599198E+03  0.12509000000E+03 0.  0.
<mgrwt>
<rscale>  2 0.46164917E+03</rscale>
<asrwt>0</asrwt>
<pdfrwt beam="1">  1       21 0.90024872E-01 0.46164917E+03</pdfrwt>
<pdfrwt beam="2">  1       21 0.12799228E-01 0.46164917E+03</pdfrwt>
<totfact> 0.50263801E+04</totfact>
</mgrwt>
</event>
<event>
 7    0  0.4793433E-002  0.4570051E+03  0.7546771E-02  0.1025653E+00
         21   -1    0    0  502  501  0.00000000000E+00  0.00000000000E+00  0.92741039889E+02  0.92741039889E+02  0.00000000000E+00 0.  1.
         21   -1    0    0  501  502 -0.00000000000E+00 -0.00000000000E+00 -0.56300215621E+03  0.56300215621E+03  0.00000000000E+00 0.  1.
      99926    2    1    2    0    0  0.00000000000E+00  0.00000000000E+00 -0.47026111632E+03  0.65574319610E+03  0.45700505654E+03 0.  0.
      99925    2    3    3    0    0  0.72534150564E+02  0.85988425485E+02 -0.32946747892E+03  0.43636779012E+03  0.26308328771E+03 0.  0.
         25    1    4    4    0    0  0.49494146812E+02  0.42164622163E+02 -0.22717076733E+03  0.26736041509E+03  0.12509000000E+03 0.  0.
         25    1    3    3    0    0 -0.72534150564E+02 -0.85988425485E+02 -0.14079363740E+03  0.21937540598E+03  0.12509000000E+03 0.  0.
         25    1    4    4    0    0  0.23040003752E+02  0.43823803322E+02 -0.10229671159E+03  0.16900737502E+03  0.12509000000E+03 0.  0.
<mgrwt>
<rscale>  2 0.45700506E+03</rscale>
<asrwt>0</asrwt>
<pdfrwt beam="1">  1       21 0.13638388E-01 0.45700506E+03</pdfrwt>
<pdfrwt beam="2">  1       21 0.82794438E-01 0.45700506E+03</pdfrwt>
<totfact> 0.54504712E+04</totfact>
</mgrwt>
</event>
<event>
 7    0  0.4793433E-002  0.4538587E+03  0.7546771E-02  0.1026578E+00
         21   -1    0    0  502  501  0.00000000000E+00  0.00000000000E+00  0.74393507491E+03  0.74393507491E+03  0.00000000000E+00 0.  1.
         21   -1    0    0  501  502 -0.00000000000E+00 -0.00000000000E+00 -0.69222344099E+02  0.69222344099E+02  0.00000000000E+00 0.  1.
      99926    2    1    2    0    0  0.00000000000E+00  0.00000000000E+00  0.67471273081E+03  0.81315741901E+03  0.45385869934E+03 0.  0.
      99925    2    3    3    0    0 -0.67293967517E+02 -0.74351156956E+02  0.51487750919E+03  0.58676974537E+03  0.26295115897E+03 0.  0.
         25    1    3    3    0    0  0.67293967517E+02  0.74351156956E+02  0.15983522162E+03  0.22638767364E+03  0.12509000000E+03 0.  0.
         25    1    4    4    0    0 -0.57173888593E+02 -0.15717942713E+02  0.30945847883E+03  0.33901027341E+03  0.12509000000E+03 0.  0.
         25    1    4    4    0    0 -0.10120078924E+02 -0.58633214243E+02  0.20541903036E+03  0.24775947196E+03  0.12509000000E+03 0.  0.
<mgrwt>
<rscale>  2 0.45385870E+03</rscale>
<asrwt>0</asrwt>
<pdfrwt beam="1">  1       21 0.10940221E+00 0.45385870E+03</pdfrwt>
<pdfrwt beam="2">  1       21 0.10179757E-01 0.45385870E+03</pdfrwt>
<totfact> 0.47559488E+04</totfact>
</mgrwt>
</event>
<event>
 7    0  0.4793433E-002  0.4583468E+03  0.7546771E-02  0.1025262E+00
         21   -1    0    0  502  501  0.00000000000E+00  0.00000000000E+00  0.16279627830E+03  0.16279627830E+03  0.00000000000E+00 0. -1.
         21   -1    0    0  501  502 -0.00000000000E+00 -0.00000000000E+00 -0.32261454560E+03  0.32261454560E+03  0.00000000000E+00 0. -1.
      99926    2    1    2    0    0 -0.14210854715E-13  0.00000000000E+00 -0.15981826731E+03  0.48541082390E+03  0.45834680036E+03 0.  0.
      99925    2    3    3    0    0 -0.10118648934E+03 -0.52678575898E+01 -0.39672685867E+02  0.28454040600E+03  0.26291227566E+03 0.  0.
         25    1    3    3    0    0  0.10118648934E+03  0.52678575898E+01 -0.12014558144E+03  0.20087041790E+03  0.12509000000E+03 0.  0.
         25    1    4    4    0    0 -0.35116198973E+02 -0.15359431982E+02 -0.54934363546E+02  0.14189556716E+03  0.12509000000E+03 0.  0.
         25    1    4    4    0    0 -0.66070290369E+02  0.10091574392E+02  0.15261677679E+02  0.14264483884E+03  0.12509000000E+03 0.  0.
<mgrwt>
<rscale>  2 0.45834680E+03</rscale>
<asrwt>0</asrwt>
<pdfrwt beam="1">  1       21 0.23940629E-01 0.45834680E+03</pdfrwt>
<pdfrwt beam="2">  1       21 0.47443315E-01 0.45834680E+03</pdfrwt>
<totfact> 0.64575564E+04</totfact>
</mgrwt>
</event>
<event>
 7    0  0.4793433E-002  0.4557838E+03  0.7546771E-02  0.1026011E+00
         21   -1    0    0  502  501  0.00000000000E+00  0.00000000000E+00  0.16637548014E+03  0.16637548014E+03  0.00000000000E+00 0.  1.
         21   -1    0    0  501  502 -0.00000000000E+00 -0.00000000000E+00 -0.31215371131E+03  0.31215371131E+03  0.00000000000E+00 0.  1.
      99926    2    1    2    0    0  0.00000000000E+00  0.35527136788E-14 -0.14577823118E+03  0.47852919145E+03  0.45578382418E+03 0.  0.
      99925    2    3    3    0    0 -0.10058154539E+03 -0.15788036867E+02 -0.14513887961E+03  0.31724116880E+03  0.26307937096E+03 0.  0.
         25    1    3    3    0    0  0.10058154539E+03  0.15788036867E+02 -0.63935156112E+00  0.16128802265E+03  0.12509000000E+03 0.  0.
         25    1    4    4    0    0 -0.23976712219E+02 -0.32859613295E+02 -0.91043660144E+02  0.15997216341E+03  0.12509000000E+03 0.  0.
         25    1    4    4    0    0 -0.76604833166E+02  0.17071576428E+02 -0.54095219470E+02  0.15726900539E+03  0.12509000000E+03 0.  0.
<mgrwt>
<rscale>  2 0.45578382E+03</rscale>
<asrwt>0</asrwt>
<pdfrwt beam="1">  1       21 0.24466982E-01 0.45578382E+03</pdfrwt>
<pdfrwt beam="2">  1       21 0.45904957E-01 0.45578382E+03</pdfrwt>
<totfact> 0.66393311E+04</totfact>
</mgrwt>
</event>
<event>
 7    0  0.4793433E-002  0.4512724E+03  0.7546771E-02  0.1027343E+00
         21   -1    0    0  502  501  0.00000000000E+00  0.00000000000E+00  0.17493926900E+04  0.17493926900E+04  0.00000000000E+00 0.  1.
         21   -1    0    0  501  502 -0.00000000000E+00 -0.00000000000E+00 -0.29102497069E+02  0.29102497069E+02  0.00000000000E+00 0.  1.
      99926    2    1    2    0    0 -0.14210854715E-13  0.00000000000E+00  0.17202901930E+04  0.17784951871E+04  0.45127240391E+03 0.  0.
      99925    2    3    3    0    0  0.88159790971E+02  0.17763121119E+02  0.83910478805E+03  0.88394339813E+03  0.26300457896E+03 0.  0.
         25    1    3    3    0    0 -0.88159790971E+02 -0.17763121119E+02  0.88118540491E+03  0.89455178897E+03  0.12509000000E+03 0.  0.
         25    1    4    4    0    0  0.65674048441E+02 -0.96090156728E+01  0.34290023701E+03  0.37098988458E+03  0.12509000000E+03 0.  0.
         25    1    4    4    0    0  0.22485742530E+02  0.27372136792E+02  0.49620455104E+03  0.51295351355E+03  0.12509000000E+03 0.  0.
<mgrwt>
<rscale>  2 0.45127240E+03</rscale>
<asrwt>0</asrwt>
<pdfrwt beam="1">  1       21 0.25726356E+00 0.45127240E+03</pdfrwt>
<pdfrwt beam="2">  1       21 0.42797802E-02 0.45127240E+03</pdfrwt>
<totfact> 0.18197291E+04</totfact>
</mgrwt>
</event>
<event>
 7    0  0.4793433E-002  0.4533753E+03  0.7546771E-02  0.1026720E+00
         21   -1    0    0  502  501  0.00000000000E+00  0.00000000000E+00  0.89735446540E+02  0.89735446540E+02  0.00000000000E+00 0.  1.
         21   -1    0    0  501  502 -0.00000000000E+00 -0.00000000000E+00 -0.57265314420E+03  0.57265314420E+03  0.00000000000E+00 0.  1.
      99926    2    1    2    0    0  0.00000000000E+00  0.17763568394E-14 -0.48291769766E+03  0.66238859074E+03  0.45337527770E+03 0.  0.
      99925    2    3    3    0    0  0.68735741089E+02  0.14110537240E+02 -0.43113815204E+03  0.50990141486E+03  0.26305063650E+03 0.  0.
         25    1    4    4    0    0  0.21562611290E+02 -0.58183392095E+00 -0.13869390150E+03  0.18801274199E+03  0.12509000000E+03 0.  0.
         25    1    3    3    0    0 -0.68735741089E+02 -0.14110537240E+02 -0.51779545616E+02  0.15248717588E+03  0.12509000000E+03 0.  0.
         25    1    4    4    0    0  0.47173129799E+02  0.14692371161E+02 -0.29244425055E+03  0.32188867287E+03  0.12509000000E+03 0.  0.
<mgrwt>
<rscale>  2 0.45337528E+03</rscale>
<asrwt>0</asrwt>
<pdfrwt beam="1">  1       21 0.13196390E-01 0.45337528E+03</pdfrwt>
<pdfrwt beam="2">  1       21 0.84213695E-01 0.45337528E+03</pdfrwt>
<totfact> 0.55702855E+04</totfact>
</mgrwt>
</event>
<event>
 7    0  0.4793433E-002  0.4467679E+03  0.7546771E-02  0.1028690E+00
         21   -1    0    0  502  501  0.00000000000E+00  0.00000000000E+00  0.16997567266E+03  0.16997567266E+03  0.00000000000E+00 0. -1.
         21   -1    0    0  501  502 -0.00000000000E+00 -0.00000000000E+00 -0.29357372904E+03  0.29357372904E+03  0.00000000000E+00 0. -1.
      99926    2    1    2    0    0  0.00000000000E+00  0.00000000000E+00 -0.12359805638E+03  0.46354940170E+03  0.44676791321E+03 0.  0.
      99925    2    3    3    0    0  0.39434710225E+02  0.36910899192E+02 -0.17213763077E+03  0.31890808937E+03  0.26297052057E+03 0.  0.
         25    1    3    3    0    0 -0.39434710225E+02 -0.36910899192E+02  0.48539574392E+02  0.14464131233E+03  0.12509000000E+03 0.  0.
         25    1    4    4    0    0  0.16201021209E+02 -0.20541942435E+02 -0.68131085811E+02  0.14482333183E+03  0.12509000000E+03 0.  0.
         25    1    4    4    0    0  0.23233689016E+02  0.57452841627E+02 -0.10400654496E+03  0.17408475755E+03  0.12509000000E+03 0.  0.
<mgrwt>
<rscale>  2 0.44676791E+03</rscale>
<asrwt>0</asrwt>
<pdfrwt beam="1">  1       21 0.24996423E-01 0.44676791E+03</pdfrwt>
<pdfrwt beam="2">  1       21 0.43172607E-01 0.44676791E+03</pdfrwt>
<totfact> 0.72541318E+04</totfact>
</mgrwt>
</event>
<event>
 7    0  0.4793433E-002  0.4578973E+03  0.7546771E-02  0.1025393E+00
         21   -1    0    0  502  501  0.00000000000E+00  0.00000000000E+00  0.41484227296E+03  0.41484227296E+03  0.00000000000E+00 0.  1.
         21   -1    0    0  501  502 -0.00000000000E+00 -0.00000000000E+00 -0.12635518756E+03  0.12635518756E+03  0.00000000000E+00 0.  1.
      99926    2    1    2    0    0  0.00000000000E+00 -0.14210854715E-13  0.28848708540E+03  0.54119746052E+03  0.45789725138E+03 0.  0.
      99925    2    3    3    0    0  0.21876728954E+02  0.11373334205E+03  0.18454856552E+03  0.34153627656E+03  0.26301138912E+03 0.  0.
         25    1    4    4    0    0 -0.25295788938E+02  0.74400006647E+02  0.10278691328E+03  0.17996637344E+03  0.12509000000E+03 0.  0.
         25    1    3    3    0    0 -0.21876728954E+02 -0.11373334205E+03  0.10393851988E+03  0.19966118395E+03  0.12509000000E+03 0.  0.
         25    1    4    4    0    0  0.47172517892E+02  0.39333335398E+02  0.81761652241E+02  0.16156990312E+03  0.12509000000E+03 0.  0.
<mgrwt>
<rscale>  2 0.45789725E+03</rscale>
<asrwt>0</asrwt>
<pdfrwt beam="1">  1       21 0.61006216E-01 0.45789725E+03</pdfrwt>
<pdfrwt beam="2">  1       21 0.18581645E-01 0.45789725E+03</pdfrwt>
<totfact> 0.61040341E+04</totfact>
</mgrwt>
</event>
<event>
 7    0  0.4793433E-002  0.4584295E+03  0.7546771E-02  0.1025238E+00
         21   -1    0    0  502  501  0.00000000000E+00  0.00000000000E+00  0.37175446287E+03  0.37175446287E+03  0.00000000000E+00 0.  1.
         21   -1    0    0  501  502 -0.00000000000E+00 -0.00000000000E+00 -0.14132825515E+03  0.14132825515E+03  0.00000000000E+00 0.  1.
      99926    2    1    2    0    0 -0.14210854715E-13  0.00000000000E+00  0.23042620772E+03  0.51308271802E+03  0.45842953474E+03 0.  0.
      99925    2    3    3    0    0 -0.99044370653E+02 -0.45068203502E+02  0.19146083415E+03  0.34276906982E+03  0.26266414656E+03 0.  0.
         25    1    4    4    0    0 -0.21662874180E+02 -0.16279679094E+02  0.52363596091E+02  0.13828869211E+03  0.12509000000E+03 0.  0.
         25    1    4    4    0    0 -0.77381496473E+02 -0.28788524408E+02  0.13909723806E+03  0.20448037771E+03  0.12509000000E+03 0.  0.
         25    1    3    3    0    0  0.99044370653E+02  0.45068203502E+02  0.38965373567E+02  0.17031364820E+03  0.12509000000E+03 0.  0.
<mgrwt>
<rscale>  2 0.45842953E+03</rscale>
<asrwt>0</asrwt>
<pdfrwt beam="1">  1       21 0.54669774E-01 0.45842953E+03</pdfrwt>
<pdfrwt beam="2">  1       21 0.20783567E-01 0.45842953E+03</pdfrwt>
<totfact> 0.62638719E+04</totfact>
</mgrwt>
</event>
<event>
 7    0  0.4793433E-002  0.4568447E+03  0.7546771E-02  0.1025700E+00
         21   -1    0    0  502  501  0.00000000000E+00  0.00000000000E+00  0.50014068395E+03  0.50014068395E+03  0.00000000000E+00 0.  1.
         21   -1    0    0  501  502 -0.00000000000E+00 -0.00000000000E+00 -0.10432416780E+03  0.10432416780E+03  0.00000000000E+00 0.  1.
      99926    2    1    2    0    0  0.00000000000E+00  0.71054273576E-14  0.39581651615E+03  0.60446485175E+03  0.45684465910E+03 0.  0.
      99925    2    3    3    0    0  0.13556857739E+02  0.58516220032E+02  0.11866030441E+03  0.29451161301E+03  0.26277154709E+03 0.  0.
         25    1    3    3    0    0 -0.13556857739E+02 -0.58516220032E+02  0.27715621174E+03  0.30995323874E+03  0.12509000000E+03 0.  0.
         25    1    4    4    0    0  0.38701968154E+02  0.26385418733E+02  0.33261048466E+02  0.13765114640E+03  0.12509000000E+03 0.  0.
         25    1    4    4    0    0 -0.25145110415E+02  0.32130801300E+02  0.85399255939E+02  0.15686046661E+03  0.12509000000E+03 0.  0.
<mgrwt>
<rscale>  2 0.45684466E+03</rscale>
<asrwt>0</asrwt>
<pdfrwt beam="1">  1       21 0.73550100E-01 0.45684466E+03</pdfrwt>
<pdfrwt beam="2">  1       21 0.15341790E-01 0.45684466E+03</pdfrwt>
<totfact> 0.57560831E+04</totfact>
</mgrwt>
</event>
<event>
 7    0  0.4793433E-002  0.4439911E+03  0.7546771E-02  0.1029529E+00
         21   -1    0    0  502  501  0.00000000000E+00  0.00000000000E+00  0.72612016643E+02  0.72612016643E+02  0.00000000000E+00 0. -1.
         21   -1    0    0  501  502 -0.00000000000E+00 -0.00000000000E+00 -0.67870333002E+03  0.67870333002E+03  0.00000000000E+00 0. -1.
      99926    2    1    2    0    0 -0.17763568394E-14  0.00000000000E+00 -0.60609131338E+03  0.75131534667E+03  0.44399106971E+03 0.  0.
      99925    2    3    3    0    0 -0.10169428469E+02 -0.98089318593E+02 -0.43280585655E+03  0.51594268609E+03  0.26296580418E+03 0.  0.
         25    1    4    4    0    0  0.34958621303E+02 -0.51621127515E+02 -0.20541935707E+03  0.24845817831E+03  0.12509000000E+03 0.  0.
         25    1    3    3    0    0  0.10169428469E+02  0.98089318593E+02 -0.17328545683E+03  0.23537266057E+03  0.12509000000E+03 0.  0.
         25    1    4    4    0    0 -0.45128049772E+02 -0.46468191078E+02 -0.22738649948E+03  0.26748450778E+03  0.12509000000E+03 0.  0.
<mgrwt>
<rscale>  2 0.44399107E+03</rscale>
<asrwt>0</asrwt>
<pdfrwt beam="1">  1       21 0.10678238E-01 0.44399107E+03</pdfrwt>
<pdfrwt beam="2">  1       21 0.99809313E-01 0.44399107E+03</pdfrwt>
<totfact> 0.54792897E+04</totfact>
</mgrwt>
</event>
<event>
 7    0  0.4793433E-002  0.4548812E+03  0.7546771E-02  0.1026276E+00
         21   -1    0    0  502  501  0.00000000000E+00  0.00000000000E+00  0.53378845236E+03  0.53378845236E+03  0.00000000000E+00 0. -1.
         21   -1    0    0  501  502 -0.00000000000E+00 -0.00000000000E+00 -0.96909585238E+02  0.96909585238E+02  0.00000000000E+00 0. -1.
      99926    2    1    2    0    0 -0.71054273576E-14  0.00000000000E+00  0.43687886712E+03  0.63069803760E+03  0.45488116041E+03 0.  0.
      99925    2    3    3    0    0 -0.49446533284E+02 -0.98095543766E+01  0.13485216201E+03  0.29992798800E+03  0.26311690439E+03 0.  0.
         25    1    4    4    0    0 -0.36101209080E+02  0.33918905439E+02  0.73234186209E+02  0.15318140740E+03  0.12509000000E+03 0.  0.
         25    1    3    3    0    0  0.49446533284E+02  0.98095543766E+01  0.30202670511E+03  0.33077004960E+03  0.12509000000E+03 0.  0.
         25    1    4    4    0    0 -0.13345324204E+02 -0.43728459816E+02  0.61617975800E+02  0.14674658060E+03  0.12509000000E+03 0.  0.
<mgrwt>
<rscale>  2 0.45488116E+03</rscale>
<asrwt>0</asrwt>
<pdfrwt beam="1">  1       21 0.78498301E-01 0.45488116E+03</pdfrwt>
<pdfrwt beam="2">  1       21 0.14251410E-01 0.45488116E+03</pdfrwt>
<totfact> 0.56880753E+04</totfact>
</mgrwt>
</event>
<event>
 7    0  0.4793433E-002  0.4575825E+03  0.7546771E-02  0.1025485E+00
         21   -1    0    0  502  501  0.00000000000E+00  0.00000000000E+00  0.24949749767E+03  0.24949749767E+03  0.00000000000E+00 0. -1.
         21   -1    0    0  501  502 -0.00000000000E+00 -0.00000000000E+00 -0.20980346259E+03  0.20980346259E+03  0.00000000000E+00 0. -1.
      99926    2    1    2    0    0  0.00000000000E+00  0.00000000000E+00  0.39694035073E+02  0.45930096026E+03  0.45758251242E+03 0.  0.
      99925    2    3    3    0    0  0.87536270268E+02 -0.47710669867E+02  0.83902250983E+02  0.29334680669E+03  0.26281905305E+03 0.  0.
         25    1    3    3    0    0 -0.87536270268E+02  0.47710669867E+02 -0.44208215910E+02  0.16595415356E+03  0.12509000000E+03 0.  0.
         25    1    4    4    0    0  0.56442296144E+02 -0.42994313631E+02  0.87735398128E+01  0.14407889123E+03  0.12509000000E+03 0.  0.
         25    1    4    4    0    0  0.31093974123E+02 -0.47163562361E+01  0.75128711170E+02  0.14926791546E+03  0.12509000000E+03 0.  0.
<mgrwt>
<rscale>  2 0.45758251E+03</rscale>
<asrwt>0</asrwt>
<pdfrwt beam="1">  1       21 0.36690809E-01 0.45758251E+03</pdfrwt>
<pdfrwt beam="2">  1       21 0.30853450E-01 0.45758251E+03</pdfrwt>
<totfact> 0.66843901E+04</totfact>
</mgrwt>
</event>
<event>
 7    0  0.4793433E-002  0.4486172E+03  0.7546771E-02  0.1028135E+00
         21   -1    0    0  502  501  0.00000000000E+00  0.00000000000E+00  0.24205508175E+03  0.24205508175E+03  0.00000000000E+00 0. -1.
         21   -1    0    0  501  502 -0.00000000000E+00 -0.00000000000E+00 -0.20786317422E+03  0.20786317422E+03  0.00000000000E+00 0. -1.
      99926    2    1    2    0    0  0.00000000000E+00  0.00000000000E+00  0.34191907535E+02  0.44991825597E+03  0.44861715361E+03 0.  0.
      99925    2    3    3    0    0  0.10136669611E+03 -0.16473986723E+02 -0.88308767065E+01  0.28245164024E+03  0.26297213802E+03 0.  0.
         25    1    4    4    0    0  0.80713369798E+02  0.18806530115E+02  0.49265803237E+01  0.15013365023E+03  0.12509000000E+03 0.  0.
         25    1    4    4    0    0  0.20653326311E+02 -0.35280516838E+02 -0.13757457030E+02  0.13231799001E+03  0.12509000000E+03 0.  0.
         25    1    3    3    0    0 -0.10136669611E+03  0.16473986723E+02  0.43022784241E+02  0.16746661573E+03  0.12509000000E+03 0.  0.
<mgrwt>
<rscale>  2 0.44861715E+03</rscale>
<asrwt>0</asrwt>
<pdfrwt beam="1">  1       21 0.35596336E-01 0.44861715E+03</pdfrwt>
<pdfrwt beam="2">  1       21 0.30568114E-01 0.44861715E+03</pdfrwt>
<totfact> 0.72544395E+04</totfact>
</mgrwt>
</event>
<event>
 7    0  0.4793433E-002  0.4540249E+03  0.7546771E-02  0.1026529E+00
         21   -1    0    0  502  501  0.00000000000E+00  0.00000000000E+00  0.99002969670E+03  0.99002969670E+03  0.00000000000E+00 0.  1.
         21   -1    0    0  501  502 -0.00000000000E+00 -0.00000000000E+00 -0.52053650447E+02  0.52053650447E+02  0.00000000000E+00 0.  1.
      99926    2    1    2    0    0  0.00000000000E+00  0.14210854715E-13  0.93797604625E+03  0.10420833471E+04  0.45402493219E+03 0.  0.
      99925    2    3    3    0    0 -0.17090410486E+02  0.94856536033E+02  0.45921644531E+03  0.53795230451E+03  0.26310281968E+03 0.  0.
         25    1    3    3    0    0  0.17090410486E+02 -0.94856536033E+02  0.47875960094E+03  0.50413104263E+03  0.12509000000E+03 0.  0.
         25    1    4    4    0    0 -0.10404647105E+02  0.84406702302E+02  0.20972099338E+03  0.25857910055E+03  0.12509000000E+03 0.  0.
         25    1    4    4    0    0 -0.66857633817E+01  0.10449833730E+02  0.24949545193E+03  0.27937320396E+03  0.12509000000E+03 0.  0.
<mgrwt>
<rscale>  2 0.45402493E+03</rscale>
<asrwt>0</asrwt>
<pdfrwt beam="1">  1       21 0.14559259E+00 0.45402493E+03</pdfrwt>
<pdfrwt beam="2">  1       21 0.76549492E-02 0.45402493E+03</pdfrwt>
<totfact> 0.37856543E+04</totfact>
</mgrwt>
</event>
<event>
 7    0  0.4793433E-002  0.4537964E+03  0.7546771E-02  0.1026596E+00
         21   -1    0    0  502  501  0.00000000000E+00  0.00000000000E+00  0.56678723326E+02  0.56678723326E+02  0.00000000000E+00 0. -1.
         21   -1    0    0  501  502 -0.00000000000E+00 -0.00000000000E+00 -0.90832643902E+03  0.90832643902E+03  0.00000000000E+00 0. -1.
      99926    2    1    2    0    0  0.14210854715E-13  0.00000000000E+00 -0.85164771569E+03  0.96500516235E+03  0.45379635489E+03 0.  0.
      99925    2    3    3    0    0 -0.84553740757E+02  0.46114478193E+02 -0.41475279789E+03  0.50046177635E+03  0.26299472628E+03 0.  0.
         25    1    4    4    0    0 -0.40065461157E+01  0.38948292602E+02 -0.18948923556E+03  0.23040551296E+03  0.12509000000E+03 0.  0.
         25    1    4    4    0    0 -0.80547194641E+02  0.71661855907E+01 -0.22526356233E+03  0.27005626339E+03  0.12509000000E+03 0.  0.
         25    1    3    3    0    0  0.84553740757E+02 -0.46114478193E+02 -0.43689491780E+03  0.46454338600E+03  0.12509000000E+03 0.  0.
<mgrwt>
<rscale>  2 0.45379635E+03</rscale>
<asrwt>0</asrwt>
<pdfrwt beam="1">  1       21 0.83351070E-02 0.45379635E+03</pdfrwt>
<pdfrwt beam="2">  1       21 0.13357741E+00 0.45379635E+03</pdfrwt>
<totfact> 0.40922888E+04</totfact>
</mgrwt>
</event>
<event>
 7    0  0.4793433E-002  0.4583042E+03  0.7546771E-02  0.1025274E+00
         21   -1    0    0  502  501  0.00000000000E+00  0.00000000000E+00  0.13323265132E+03  0.13323265132E+03  0.00000000000E+00 0.  1.
         21   -1    0    0  501  502 -0.00000000000E+00 -0.00000000000E+00 -0.39412780161E+03  0.39412780161E+03  0.00000000000E+00 0.  1.
      99926    2    1    2    0    0 -0.35527136788E-14  0.14210854715E-13 -0.26089515028E+03  0.52736045293E+03  0.45830423070E+03 0.  0.
      99925    2    3    3    0    0  0.28836851073E+02 -0.90120915513E+02 -0.24126654647E+03  0.36929042547E+03  0.26308274080E+03 0.  0.
         25    1    3    3    0    0 -0.28836851073E+02  0.90120915513E+02 -0.19628603815E+02  0.15807002746E+03  0.12509000000E+03 0.  0.
         25    1    4    4    0    0 -0.10747636136E+02 -0.44302767552E+02 -0.75795538886E+02  0.15320156236E+03  0.12509000000E+03 0.  0.
         25    1    4    4    0    0  0.39584487209E+02 -0.45818147961E+02 -0.16547100758E+03  0.21608886311E+03  0.12509000000E+03 0.  0.
<mgrwt>
<rscale>  2 0.45830423E+03</rscale>
<asrwt>0</asrwt>
<pdfrwt beam="1">  1       21 0.19593037E-01 0.45830423E+03</pdfrwt>
<pdfrwt beam="2">  1       21 0.57959970E-01 0.45830423E+03</pdfrwt>
<totfact> 0.61752160E+04</totfact>
</mgrwt>
</event>
<event>
 7    0  0.4793433E-002  0.4562506E+03  0.7546771E-02  0.1025874E+00
         21   -1    0    0  502  501  0.00000000000E+00  0.00000000000E+00  0.15509954904E+04  0.15509954904E+04  0.00000000000E+00 0. -1.
         21   -1    0    0  501  502 -0.00000000000E+00 -0.00000000000E+00 -0.33553394301E+02  0.33553394301E+02  0.00000000000E+00 0. -1.
      99926    2    1    2    0    0  0.00000000000E+00  0.00000000000E+00  0.15174420961E+04  0.15845488847E+04  0.45625064711E+03 0.  0.
      99925    2    3    3    0    0  0.18689109076E+02 -0.11274902013E+03  0.96181295060E+03  0.10036591535E+04  0.26303216573E+03 0.  0.
         25    1    4    4    0    0  0.29334634464E+02 -0.74384156801E+02  0.61942925606E+03  0.63697224031E+03  0.12509000000E+03 0.  0.
         25    1    3    3    0    0 -0.18689109076E+02  0.11274902013E+03  0.55562914548E+03  0.58088973114E+03  0.12509000000E+03 0.  0.
         25    1    4    4    0    0 -0.10645525388E+02 -0.38364863326E+02  0.34238369454E+03  0.36668691323E+03  0.12509000000E+03 0.  0.
<mgrwt>
<rscale>  2 0.45625065E+03</rscale>
<asrwt>0</asrwt>
<pdfrwt beam="1">  1       21 0.22808752E+00 0.45625065E+03</pdfrwt>
<pdfrwt beam="2">  1       21 0.49343237E-02 0.45625065E+03</pdfrwt>
<totfact> 0.21570624E+04</totfact>
</mgrwt>
</event>
<event>
 7    0  0.4793433E-002  0.4589575E+03  0.7546771E-02  0.1025084E+00
         21   -1    0    0  502  501  0.00000000000E+00  0.00000000000E+00  0.23763975461E+03  0.23763975461E+03  0.00000000000E+00 0.  1.
         21   -1    0    0  501  502 -0.00000000000E+00 -0.00000000000E+00 -0.22159800736E+03  0.22159800736E+03  0.00000000000E+00 0.  1.
      99926    2    1    2    0    0  0.14210854715E-13 -0.14210854715E-13  0.16041747250E+02  0.45923776198E+03  0.45895749735E+03 0.  0.
      99925    2    3    3    0    0 -0.89455061341E+02  0.67324514470E+02  0.43607755163E+02  0.28911371565E+03  0.26296445771E+03 0.  0.
         25    1    4    4    0    0 -0.55835879199E+01  0.25229098190E+02  0.39788232133E+01  0.12779289097E+03  0.12509000000E+03 0.  0.
         25    1    3    3    0    0  0.89455061341E+02 -0.67324514470E+02 -0.27566007913E+02  0.17012404633E+03  0.12509000000E+03 0.  0.
         25    1    4    4    0    0 -0.83871473421E+02  0.42095416279E+02  0.39628931949E+02  0.16132082467E+03  0.12509000000E+03 0.  0.
<mgrwt>
<rscale>  2 0.45895750E+03</rscale>
<asrwt>0</asrwt>
<pdfrwt beam="1">  1       21 0.34947023E-01 0.45895750E+03</pdfrwt>
<pdfrwt beam="2">  1       21 0.32587942E-01 0.45895750E+03</pdfrwt>
<totfact> 0.66123707E+04</totfact>
</mgrwt>
</event>
<event>
 7    0  0.4793433E-002  0.4504696E+03  0.7546771E-02  0.1027582E+00
         21   -1    0    0  502  501  0.00000000000E+00  0.00000000000E+00  0.53659480760E+03  0.53659480760E+03  0.00000000000E+00 0. -1.
         21   -1    0    0  501  502 -0.00000000000E+00 -0.00000000000E+00 -0.94541921965E+02  0.94541921965E+02  0.00000000000E+00 0. -1.
      99926    2    1    2    0    0  0.71054273576E-14  0.35527136788E-14  0.44205288563E+03  0.63113672956E+03  0.45046955247E+03 0.  0.
      99925    2    3    3    0    0 -0.54830463650E+02  0.22766189528E+02  0.15147175102E+03  0.30925230461E+03  0.26299927267E+03 0.  0.
         25    1    3    3    0    0  0.54830463650E+02 -0.22766189528E+02  0.29058113462E+03  0.32188442495E+03  0.12509000000E+03 0.  0.
         25    1    4    4    0    0  0.90795611469E+01 -0.85062584204E+01  0.70455118789E+02  0.14410491569E+03  0.12509000000E+03 0.  0.
         25    1    4    4    0    0 -0.63910024797E+02  0.31272447949E+02  0.81016632227E+02  0.16514738892E+03  0.12509000000E+03 0.  0.
<mgrwt>
<rscale>  2 0.45046955E+03</rscale>
<asrwt>0</asrwt>
<pdfrwt beam="1">  1       21 0.78910999E-01 0.45046955E+03</pdfrwt>
<pdfrwt beam="2">  1       21 0.13903224E-01 0.45046955E+03</pdfrwt>
<totfact> 0.58879007E+04</totfact>
</mgrwt>
</event>
<event>
 7    0  0.4793433E-002  0.4530065E+03  0.7546771E-02  0.1026829E+00
         21   -1    0    0  502  501  0.00000000000E+00  0.00000000000E+00  0.16472936509E+03  0.16472936509E+03  0.00000000000E+00 0.  1.
         21   -1    0    0  501  502 -0.00000000000E+00 -0.00000000000E+00 -0.31144241293E+03  0.31144241293E+03  0.00000000000E+00 0.  1.
      99926    2    1    2    0    0  0.00000000000E+00  0.14210854715E-13 -0.14671304783E+03  0.47617177802E+03  0.45300645004E+03 0.  0.
      99925    2    3    3    0    0  0.41222603262E+02  0.99579748890E+02 -0.63556904638E+02  0.29129916875E+03  0.26305949171E+03 0.  0.
         25    1    4    4    0    0  0.54738124033E+02  0.43513069142E+02 -0.54276741158E+02  0.15324203777E+03  0.12509000000E+03 0.  0.
         25    1    3    3    0    0 -0.41222603262E+02 -0.99579748890E+02 -0.83156143194E+02  0.18487260927E+03  0.12509000000E+03 0.  0.
         25    1    4    4    0    0 -0.13515520771E+02  0.56066679748E+02 -0.92801634797E+01  0.13805713098E+03  0.12509000000E+03 0.  0.
<mgrwt>
<rscale>  2 0.45300645E+03</rscale>
<asrwt>0</asrwt>
<pdfrwt beam="1">  1       21 0.24224907E-01 0.45300645E+03</pdfrwt>
<pdfrwt beam="2">  1       21 0.45800354E-01 0.45300645E+03</pdfrwt>
<totfact> 0.68050177E+04</totfact>
</mgrwt>
</event>
<event>
 7    0  0.4793433E-002  0.4550236E+03  0.7546771E-02  0.1026234E+00
         21   -1    0    0  502  501  0.00000000000E+00  0.00000000000E+00  0.12765973998E+03  0.12765973998E+03  0.00000000000E+00 0. -1.
         21   -1    0    0  501  502 -0.00000000000E+00 -0.00000000000E+00 -0.40546553762E+03  0.40546553762E+03  0.00000000000E+00 0. -1.
      99926    2    1    2    0    0  0.00000000000E+00  0.00000000000E+00 -0.27780579764E+03  0.53312527761E+03  0.45502362622E+03 0.  0.
      99925    2    3    3    0    0  0.79640588493E+02  0.66125052541E+02 -0.12105955578E+03  0.30744400158E+03  0.26296625669E+03 0.  0.
         25    1    4    4    0    0  0.30760859315E+02  0.73107175021E+02 -0.64604083080E+02  0.16159234250E+03  0.12509000000E+03 0.  0.
         25    1    3    3    0    0 -0.79640588493E+02 -0.66125052541E+02 -0.15674624186E+03  0.22568127602E+03  0.12509000000E+03 0.  0.
         25    1    4    4    0    0  0.48879729178E+02 -0.69821224800E+01 -0.56455472695E+02  0.14585165908E+03  0.12509000000E+03 0.  0.
<mgrwt>
<rscale>  2 0.45502363E+03</rscale>
<asrwt>0</asrwt>
<pdfrwt beam="1">  1       21 0.18773491E-01 0.45502363E+03</pdfrwt>
<pdfrwt beam="2">  1       21 0.59627284E-01 0.45502363E+03</pdfrwt>
<totfact> 0.62983609E+04</totfact>
</mgrwt>
</event>
<event>
 7    0  0.4793433E-002  0.4507652E+03  0.7546771E-02  0.1027494E+00
         21   -1    0    0  502  501  0.00000000000E+00  0.00000000000E+00  0.63641436813E+03  0.63641436813E+03  0.00000000000E+00 0. -1.
         21   -1    0    0  501  502 -0.00000000000E+00 -0.00000000000E+00 -0.79817982793E+02  0.79817982793E+02  0.00000000000E+00 0. -1.
      99926    2    1    2    0    0  0.00000000000E+00  0.17763568394E-14  0.55659638534E+03  0.71623235092E+03  0.45076517649E+03 0.  0.
      99925    2    3    3    0    0  0.34995929332E+02  0.10057289726E+02  0.51530043441E+03  0.57956220857E+03  0.26273932283E+03 0.  0.
         25    1    4    4    0    0  0.61664231825E+01 -0.11881624066E+02  0.32921104020E+03  0.35242958851E+03  0.12509000000E+03 0.  0.
         25    1    4    4    0    0  0.28829506150E+02  0.21938913791E+02  0.18608939420E+03  0.22713262007E+03  0.12509000000E+03 0.  0.
         25    1    3    3    0    0 -0.34995929332E+02 -0.10057289726E+02  0.41295950933E+02  0.13667014235E+03  0.12509000000E+03 0.  0.
<mgrwt>
<rscale>  2 0.45076518E+03</rscale>
<asrwt>0</asrwt>
<pdfrwt beam="1">  1       21 0.93590346E-01 0.45076518E+03</pdfrwt>
<pdfrwt beam="2">  1       21 0.11737939E-01 0.45076518E+03</pdfrwt>
<totfact> 0.53800470E+04</totfact>
</mgrwt>
</event>
<event>
 7    0  0.4793433E-002  0.4607774E+03  0.7546771E-02  0.1024556E+00
         21   -1    0    0  502  501  0.00000000000E+00  0.00000000000E+00  0.28897752498E+02  0.28897752498E+02  0.00000000000E+00 0.  1.
         21   -1    0    0  501  502 -0.00000000000E+00 -0.00000000000E+00 -0.18367849161E+04  0.18367849161E+04  0.00000000000E+00 0.  1.
      99926    2    1    2    0    0  0.00000000000E+00 -0.71054273576E-14 -0.18078871636E+04  0.18656826686E+04  0.46077741220E+03 0.  0.
      99925    2    3    3    0    0  0.33306305438E+02  0.57733982220E+02 -0.15287446393E+04  0.15526162545E+04  0.26289644112E+03 0.  0.
         25    1    3    3    0    0 -0.33306305438E+02 -0.57733982220E+02 -0.27914252431E+03  0.31306641414E+03  0.12509000000E+03 0.  0.
         25    1    4    4    0    0  0.37684502468E+02  0.47090811914E+02 -0.97239069852E+03  0.98225701573E+03  0.12509000000E+03 0.  0.
         25    1    4    4    0    0 -0.43781970299E+01  0.10643170306E+02 -0.55635394081E+03  0.57035923876E+03  0.12509000000E+03 0.  0.
<mgrwt>
<rscale>  2 0.46077741E+03</rscale>
<asrwt>0</asrwt>
<pdfrwt beam="1">  1       21 0.42496677E-02 0.46077741E+03</pdfrwt>
<pdfrwt beam="2">  1       21 0.27011554E+00 0.46077741E+03</pdfrwt>
<totfact> 0.15330329E+04</totfact>
</mgrwt>
</event>
<event>
 6    0  0.4793433E-002  0.4516100E+03  0.7546771E-02  0.1027243E+00
         21   -1    0    0  502  501  0.00000000000E+00  0.00000000000E+00  0.37067533041E+03  0.37067533041E+03  0.00000000000E+00 0. -1.
         21   -1    0    0  501  502 -0.00000000000E+00 -0.00000000000E+00 -0.13755405837E+03  0.13755405837E+03  0.00000000000E+00 0. -1.
      99926    2    1    2    0    0  0.00000000000E+00  0.14210854715E-13  0.23312127204E+03  0.50822938878E+03  0.45160999119E+03 0.  0.
         25    1    3    3    0    0  0.46148414605E+02 -0.50849449830E+02  0.66845564141E+02  0.15757912382E+03  0.12509000000E+03 0.  0.
         25    1    3    3    0    0 -0.22353543308E+02  0.11019613387E+03  0.93360452654E+02  0.19237086847E+03  0.12509000000E+03 0.  0.
         25    1    3    3    0    0 -0.23794871297E+02 -0.59346684035E+02  0.72915255243E+02  0.15827939649E+03  0.12509000000E+03 0.  0.
<mgrwt>
<rscale>  2 0.45160999E+03</rscale>
<asrwt>0</asrwt>
<pdfrwt beam="1">  1       21 0.54511078E-01 0.45160999E+03</pdfrwt>
<pdfrwt beam="2">  1       21 0.20228538E-01 0.45160999E+03</pdfrwt>
<totfact> 0.66466595E+04</totfact>
</mgrwt>
</event>
<event>
 7    0  0.4793433E-002  0.4534085E+03  0.7546771E-02  0.1026710E+00
         21   -1    0    0  502  501  0.00000000000E+00  0.00000000000E+00  0.19135503399E+03  0.19135503399E+03  0.00000000000E+00 0.  1.
         21   -1    0    0  501  502 -0.00000000000E+00 -0.00000000000E+00 -0.26858362230E+03  0.26858362230E+03  0.00000000000E+00 0.  1.
      99926    2    1    2    0    0  0.00000000000E+00  0.00000000000E+00 -0.77228588313E+02  0.45993865629E+03  0.45340854943E+03 0.  0.
      99925    2    3    3    0    0  0.89718750645E+02 -0.88388444133E+01 -0.11552397213E+03  0.30106252873E+03  0.26299292515E+03 0.  0.
         25    1    3    3    0    0 -0.89718750645E+02  0.88388444133E+01  0.38295383820E+02  0.15887612756E+03  0.12509000000E+03 0.  0.
         25    1    4    4    0    0  0.58393838148E+02 -0.23930373985E+02 -0.95829092093E+02  0.16974459085E+03  0.12509000000E+03 0.  0.
         25    1    4    4    0    0  0.31324912496E+02  0.15091529572E+02 -0.19694880040E+02  0.13131793787E+03  0.12509000000E+03 0.  0.
<mgrwt>
<rscale>  2 0.45340855E+03</rscale>
<asrwt>0</asrwt>
<pdfrwt beam="1">  1       21 0.28140446E-01 0.45340855E+03</pdfrwt>
<pdfrwt beam="2">  1       21 0.39497592E-01 0.45340855E+03</pdfrwt>
<totfact> 0.69056969E+04</totfact>
</mgrwt>
</event>
<event>
 7    0  0.4793433E-002  0.4540647E+03  0.7546771E-02  0.1026517E+00
         21   -1    0    0  502  501  0.00000000000E+00  0.00000000000E+00  0.77403849849E+03  0.77403849849E+03  0.00000000000E+00 0.  1.
         21   -1    0    0  501  502 -0.00000000000E+00 -0.00000000000E+00 -0.66590591051E+02  0.66590591051E+02  0.00000000000E+00 0.  1.
      99926    2    1    2    0    0 -0.17763568394E-14 -0.71054273576E-14  0.70744790744E+03  0.84062908954E+03  0.45406466989E+03 0.  0.
      99925    2    3    3    0    0 -0.93580249646E+01 -0.62826762104E+02  0.61694180199E+03  0.67367509021E+03  0.26303263194E+03 0.  0.
         25    1    3    3    0    0  0.93580249646E+01  0.62826762104E+02  0.90506105450E+02  0.16695399933E+03  0.12509000000E+03 0.  0.
         25    1    4    4    0    0  0.12790238846E+02 -0.18908136978E+02  0.21423861825E+03  0.24913209649E+03  0.12509000000E+03 0.  0.
         25    1    4    4    0    0 -0.22148263811E+02 -0.43918625126E+02  0.40270318374E+03  0.42454299372E+03  0.12509000000E+03 0.  0.
<mgrwt>
<rscale>  2 0.45406467E+03</rscale>
<asrwt>0</asrwt>
<pdfrwt beam="1">  1       21 0.11382919E+00 0.45406467E+03</pdfrwt>
<pdfrwt beam="2">  1       21 0.97927344E-02 0.45406467E+03</pdfrwt>
<totfact> 0.46199604E+04</totfact>
</mgrwt>
</event>
<event>
 7    0  0.4793433E-002  0.4573784E+03  0.7546771E-02  0.1025544E+00
         21   -1    0    0  502  501  0.00000000000E+00  0.00000000000E+00  0.27821052380E+03  0.27821052380E+03  0.00000000000E+00 0. -1.
         21   -1    0    0  501  502 -0.00000000000E+00 -0.00000000000E+00 -0.18798262452E+03  0.18798262452E+03  0.00000000000E+00 0. -1.
      99926    2    1    2    0    0  0.14210854715E-13 -0.71054273576E-14  0.90227899285E+02  0.46619314832E+03  0.45737837479E+03 0.  0.
      99925    2    3    3    0    0  0.99741476931E+02 -0.57941897260E+02  0.60304219140E+02  0.29342578910E+03  0.26297617607E+03 0.  0.
         25    1    4    4    0    0  0.82252034343E+01 -0.23424177335E+02  0.15716036114E+02  0.12849454442E+03  0.12509000000E+03 0.  0.
         25    1    3    3    0    0 -0.99741476931E+02  0.57941897260E+02  0.29923680146E+02  0.17276735922E+03  0.12509000000E+03 0.  0.
         25    1    4    4    0    0  0.91516273497E+02 -0.34517719925E+02  0.44588183026E+02  0.16493124467E+03  0.12509000000E+03 0.  0.
<mgrwt>
<rscale>  2 0.45737837E+03</rscale>
<asrwt>0</asrwt>
<pdfrwt beam="1">  1       21 0.40913313E-01 0.45737837E+03</pdfrwt>
<pdfrwt beam="2">  1       21 0.27644503E-01 0.45737837E+03</pdfrwt>
<totfact> 0.66456388E+04</totfact>
</mgrwt>
</event>
<event>
 7    0  0.4793433E-002  0.4438346E+03  0.7546771E-02  0.1029577E+00
         21   -1    0    0  502  501  0.00000000000E+00  0.00000000000E+00  0.16301677134E+03  0.16301677134E+03  0.00000000000E+00 0. -1.
         21   -1    0    0  501  502 -0.00000000000E+00 -0.00000000000E+00 -0.30209957008E+03  0.30209957008E+03  0.00000000000E+00 0. -1.
      99926    2    1    2    0    0  0.00000000000E+00  0.00000000000E+00 -0.13908279874E+03  0.46511634142E+03  0.44383463829E+03 0.  0.
      99925    2    3    3    0    0  0.70666594636E+02  0.51445180339E+02 -0.14439930685E+03  0.31242008234E+03  0.26289688825E+03 0.  0.
         25    1    4    4    0    0 -0.10008241987E+01  0.17824356396E+02 -0.88115451145E+02  0.15404723354E+03  0.12509000000E+03 0.  0.
         25    1    3    3    0    0 -0.70666594636E+02 -0.51445180339E+02  0.53165081109E+01  0.15269625908E+03  0.12509000000E+03 0.  0.
         25    1    4    4    0    0  0.71667418835E+02  0.33620823943E+02 -0.56283855710E+02  0.15837284880E+03  0.12509000000E+03 0.  0.
<mgrwt>
<rscale>  2 0.44383464E+03</rscale>
<asrwt>0</asrwt>
<pdfrwt beam="1">  1       21 0.23973055E-01 0.44383464E+03</pdfrwt>
<pdfrwt beam="2">  1       21 0.44426407E-01 0.44383464E+03</pdfrwt>
<totfact> 0.74155451E+04</totfact>
</mgrwt>
</event>
<event>
 7    0  0.4793433E-002  0.4551350E+03  0.7546771E-02  0.1026202E+00
         21   -1    0    0  502  501  0.00000000000E+00  0.00000000000E+00  0.22455201281E+03  0.22455201281E+03  0.00000000000E+00 0.  1.
         21   -1    0    0  501  502 -0.00000000000E+00 -0.00000000000E+00 -0.23062352406E+03  0.23062352406E+03  0.00000000000E+00 0.  1.
      99926    2    1    2    0    0  0.00000000000E+00  0.00000000000E+00 -0.60715112541E+01  0.45517553687E+03  0.45513504162E+03 0.  0.
      99925    2    3    3    0    0  0.10903689768E+03  0.25051304263E+02  0.14762701340E+02  0.28606555663E+03  0.26286679600E+03 0.  0.
         25    1    3    3    0    0 -0.10903689768E+03 -0.25051304263E+02 -0.20834212594E+02  0.16910998024E+03  0.12509000000E+03 0.  0.
         25    1    4    4    0    0  0.29396901415E+02  0.23881720552E+02 -0.23779398820E+02  0.13284382672E+03  0.12509000000E+03 0.  0.
         25    1    4    4    0    0  0.79639996269E+02  0.11695837106E+01  0.38542100160E+02  0.15322172991E+03  0.12509000000E+03 0.  0.
<mgrwt>
<rscale>  2 0.45513504E+03</rscale>
<asrwt>0</asrwt>
<pdfrwt beam="1">  1       21 0.33022355E-01 0.45513504E+03</pdfrwt>
<pdfrwt beam="2">  1       21 0.33915224E-01 0.45513504E+03</pdfrwt>
<totfact> 0.68459140E+04</totfact>
</mgrwt>
</event>
<event>
 7    0  0.4793433E-002  0.4552835E+03  0.7546771E-02  0.1026158E+00
         21   -1    0    0  502  501  0.00000000000E+00  0.00000000000E+00  0.44796700795E+02  0.44796700795E+02  0.00000000000E+00 0.  1.
         21   -1    0    0  501  502 -0.00000000000E+00 -0.00000000000E+00 -0.11567985083E+04  0.11567985083E+04  0.00000000000E+00 0.  1.
      99926    2    1    2    0    0 -0.71054273576E-14 -0.35527136788E-14 -0.11120018075E+04  0.12015952091E+04  0.45528345745E+03 0.  0.
      99925    2    3    3    0    0  0.56413365994E+02 -0.20452414411E+02 -0.95366196385E+03  0.99107256588E+03  0.26296942869E+03 0.  0.
         25    1    4    4    0    0  0.42751693324E+02 -0.23700040127E+02 -0.36055931311E+03  0.38475956850E+03  0.12509000000E+03 0.  0.
         25    1    4    4    0    0  0.13661672670E+02  0.32476257165E+01 -0.59310265074E+03  0.60631299737E+03  0.12509000000E+03 0.  0.
         25    1    3    3    0    0 -0.56413365994E+02  0.20452414411E+02 -0.15833984366E+03  0.21052264322E+03  0.12509000000E+03 0.  0.
<mgrwt>
<rscale>  2 0.45528346E+03</rscale>
<asrwt>0</asrwt>
<pdfrwt beam="1">  1       21 0.65877510E-02 0.45528346E+03</pdfrwt>
<pdfrwt beam="2">  1       21 0.17011740E+00 0.45528346E+03</pdfrwt>
<totfact> 0.32034639E+04</totfact>
</mgrwt>
</event>
<event>
 7    0  0.4793433E-002  0.4718347E+03  0.7546771E-02  0.1021404E+00
         21   -1    0    0  502  501  0.00000000000E+00  0.00000000000E+00  0.92149832474E+02  0.92149832474E+02  0.00000000000E+00 0.  1.
         21   -1    0    0  501  502 -0.00000000000E+00 -0.00000000000E+00 -0.60398365740E+03  0.60398365740E+03  0.00000000000E+00 0.  1.
      99926    2    1    2    0    0  0.00000000000E+00  0.88817841970E-15 -0.51183382492E+03  0.69613348987E+03  0.47183468650E+03 0.  0.
      99925    2    3    3    0    0 -0.65007654413E+02  0.65550224423E+01 -0.15438590381E+03  0.31183479372E+03  0.26293909529E+03 0.  0.
         25    1    3    3    0    0  0.65007654413E+02 -0.65550224423E+01 -0.35744792111E+03  0.38429869615E+03  0.12509000000E+03 0.  0.
         25    1    4    4    0    0 -0.74897185923E+00  0.17353945435E+02 -0.98345395721E+02  0.16006575318E+03  0.12509000000E+03 0.  0.
         25    1    4    4    0    0 -0.64258682554E+02 -0.10798922992E+02 -0.56040508089E+02  0.15176904055E+03  0.12509000000E+03 0.  0.
<mgrwt>
<rscale>  2 0.47183469E+03</rscale>
<asrwt>0</asrwt>
<pdfrwt beam="1">  1       21 0.13551446E-01 0.47183469E+03</pdfrwt>
<pdfrwt beam="2">  1       21 0.88821124E-01 0.47183469E+03</pdfrwt>
<totfact> 0.46618674E+04</totfact>
</mgrwt>
</event>
<event>
 7    0  0.4793433E-002  0.4516347E+03  0.7546771E-02  0.1027236E+00
         21   -1    0    0  502  501  0.00000000000E+00  0.00000000000E+00  0.10370238984E+03  0.10370238984E+03  0.00000000000E+00 0.  1.
         21   -1    0    0  501  502 -0.00000000000E+00 -0.00000000000E+00 -0.49172898112E+03  0.49172898112E+03  0.00000000000E+00 0.  1.
      99926    2    1    2    0    0  0.17763568394E-14 -0.35527136788E-14 -0.38802659129E+03  0.59543137096E+03  0.45163467757E+03 0.  0.
      99925    2    3    3    0    0  0.94669489389E+01  0.20119139238E+02 -0.10299843110E+03  0.28336893637E+03  0.26304918628E+03 0.  0.
         25    1    4    4    0    0 -0.21161520160E+02  0.10683879759E+02 -0.17534200138E+02  0.12851813684E+03  0.12509000000E+03 0.  0.
         25    1    3    3    0    0 -0.94669489389E+01 -0.20119139238E+02 -0.28502816018E+03  0.31206243459E+03  0.12509000000E+03 0.  0.
         25    1    4    4    0    0  0.30628469099E+02  0.94352594791E+01 -0.85464230966E+02  0.15485079953E+03  0.12509000000E+03 0.  0.
<mgrwt>
<rscale>  2 0.45163468E+03</rscale>
<asrwt>0</asrwt>
<pdfrwt beam="1">  1       21 0.15250352E-01 0.45163468E+03</pdfrwt>
<pdfrwt beam="2">  1       21 0.72313084E-01 0.45163468E+03</pdfrwt>
<totfact> 0.60554722E+04</totfact>
</mgrwt>
</event>
<event>
 7    0  0.4793433E-002  0.4561283E+03  0.7546771E-02  0.1025910E+00
         21   -1    0    0  502  501  0.00000000000E+00  0.00000000000E+00  0.28492498077E+04  0.28492498077E+04  0.00000000000E+00 0.  1.
         21   -1    0    0  501  502 -0.00000000000E+00 -0.00000000000E+00 -0.18255072750E+02  0.18255072750E+02  0.00000000000E+00 0.  1.
      99926    2    1    2    0    0 -0.71054273576E-14  0.00000000000E+00  0.28309947350E+04  0.28675048805E+04  0.45612832634E+03 0.  0.
      99925    2    3    3    0    0  0.54845158990E+02 -0.98568524555E+02  0.18936740869E+04  0.19151702487E+04  0.26296727658E+03 0.  0.
         25    1    4    4    0    0  0.36918518855E+02 -0.88392429545E+02  0.94122956707E+03  0.95432531385E+03  0.12509000000E+03 0.  0.
         25    1    3    3    0    0 -0.54845158990E+02  0.98568524555E+02  0.93732064806E+03  0.95233463177E+03  0.12509000000E+03 0.  0.
         25    1    4    4    0    0  0.17926640136E+02 -0.10176095010E+02  0.95244451984E+03  0.96084493484E+03  0.12509000000E+03 0.  0.
<mgrwt>
<rscale>  2 0.45612833E+03</rscale>
<asrwt>0</asrwt>
<pdfrwt beam="1">  1       21 0.41900702E+00 0.45612833E+03</pdfrwt>
<pdfrwt beam="2">  1       21 0.26845715E-02 0.45612833E+03</pdfrwt>
<totfact> 0.40197037E+03</totfact>
</mgrwt>
</event>
<event>
 7    0  0.4793433E-002  0.4574830E+03  0.7546771E-02  0.1025514E+00
         21   -1    0    0  502  501  0.00000000000E+00  0.00000000000E+00  0.10066802222E+04  0.10066802222E+04  0.00000000000E+00 0. -1.
         21   -1    0    0  501  502 -0.00000000000E+00 -0.00000000000E+00 -0.51975463309E+02  0.51975463309E+02  0.00000000000E+00 0. -1.
      99926    2    1    2    0    0  0.00000000000E+00 -0.88817841970E-15  0.95470475890E+03  0.10586556855E+04  0.45748298746E+03 0.  0.
      99925    2    3    3    0    0  0.10538071951E+03 -0.77169473099E+01  0.70721664897E+03  0.76190238734E+03  0.26301180951E+03 0.  0.
         25    1    4    4    0    0  0.93698160797E+02  0.96047196575E+01  0.38484398529E+03  0.41548044129E+03  0.12509000000E+03 0.  0.
         25    1    3    3    0    0 -0.10538071951E+03  0.77169473099E+01  0.24748810993E+03  0.29675329817E+03  0.12509000000E+03 0.  0.
         25    1    4    4    0    0  0.11682558708E+02 -0.17321666967E+02  0.32237266368E+03  0.34642194606E+03  0.12509000000E+03 0.  0.
<mgrwt>
<rscale>  2 0.45748299E+03</rscale>
<asrwt>0</asrwt>
<pdfrwt beam="1">  1       21 0.14804120E+00 0.45748299E+03</pdfrwt>
<pdfrwt beam="2">  1       21 0.76434511E-02 0.45748299E+03</pdfrwt>
<totfact> 0.36253723E+04</totfact>
</mgrwt>
</event>
<event>
 7    0  0.4793433E-002  0.4627780E+03  0.7546771E-02  0.1023979E+00
         21   -1    0    0  502  501  0.00000000000E+00  0.00000000000E+00  0.80665022344E+02  0.80665022344E+02  0.00000000000E+00 0. -1.
         21   -1    0    0  501  502 -0.00000000000E+00 -0.00000000000E+00 -0.66374326342E+03  0.66374326342E+03  0.00000000000E+00 0. -1.
      99926    2    1    2    0    0  0.00000000000E+00  0.00000000000E+00 -0.58307824107E+03  0.74440828576E+03  0.46277798208E+03 0.  0.
      99925    2    3    3    0    0 -0.56030039143E+02  0.23858881454E+02 -0.53137123799E+03  0.59598411732E+03  0.26293167177E+03 0.  0.
         25    1    3    3    0    0  0.56030039143E+02 -0.23858881454E+02 -0.51707003081E+02  0.14842416844E+03  0.12509000000E+03 0.  0.
         25    1    4    4    0    0 -0.20646321470E+02  0.36809799643E+02 -0.33552615756E+03  0.36056420017E+03  0.12509000000E+03 0.  0.
         25    1    4    4    0    0 -0.35383717673E+02 -0.12950918190E+02 -0.19584508043E+03  0.23541991714E+03  0.12509000000E+03 0.  0.
<mgrwt>
<rscale>  2 0.46277798E+03</rscale>
<asrwt>0</asrwt>
<pdfrwt beam="1">  1       21 0.11862503E-01 0.46277798E+03</pdfrwt>
<pdfrwt beam="2">  1       21 0.97609302E-01 0.46277798E+03</pdfrwt>
<totfact> 0.47580768E+04</totfact>
</mgrwt>
</event>
<event>
 7    0  0.4793433E-002  0.4971220E+03  0.7546771E-02  0.1014533E+00
         21   -1    0    0  502  501  0.00000000000E+00  0.00000000000E+00  0.11249830840E+04  0.11249830840E+04  0.00000000000E+00 0. -1.
         21   -1    0    0  501  502 -0.00000000000E+00 -0.00000000000E+00 -0.54918671858E+02  0.54918671858E+02  0.00000000000E+00 0. -1.
      99926    2    1    2    0    0  0.00000000000E+00  0.00000000000E+00  0.10700644121E+04  0.11799017558E+04  0.49712202460E+03 0.  0.
      99925    2    3    3    0    0  0.11306020821E+02 -0.14432462272E+03  0.73832316958E+03  0.79694329473E+03  0.26275480861E+03 0.  0.
         25    1    3    3    0    0 -0.11306020821E+02  0.14432462272E+03  0.33174124253E+03  0.38295846109E+03  0.12509000000E+03 0.  0.
         25    1    4    4    0    0 -0.70840055200E+01 -0.28829724916E+02  0.30276735634E+03  0.32893299673E+03  0.12509000000E+03 0.  0.
         25    1    4    4    0    0  0.18390026341E+02 -0.11549489780E+03  0.43555581324E+03  0.46801029800E+03  0.12509000000E+03 0.  0.
<mgrwt>
<rscale>  2 0.49712202E+03</rscale>
<asrwt>0</asrwt>
<pdfrwt beam="1">  1       21 0.16543867E+00 0.49712202E+03</pdfrwt>
<pdfrwt beam="2">  1       21 0.80762760E-02 0.49712202E+03</pdfrwt>
<totfact> 0.23928123E+04</totfact>
</mgrwt>
</event>
<event>
 7    0  0.4793433E-002  0.4590223E+03  0.7546771E-02  0.1025065E+00
         21   -1    0    0  502  501  0.00000000000E+00  0.00000000000E+00  0.61182395089E+02  0.61182395089E+02  0.00000000000E+00 0.  1.
         21   -1    0    0  501  502 -0.00000000000E+00 -0.00000000000E+00 -0.86095628010E+03  0.86095628010E+03  0.00000000000E+00 0.  1.
      99926    2    1    2    0    0  0.00000000000E+00  0.00000000000E+00 -0.79977388502E+03  0.92213867519E+03  0.45902229699E+03 0.  0.
      99925    2    3    3    0    0 -0.10783092046E+03 -0.23561059745E+02 -0.42414231752E+03  0.51112868317E+03  0.26300797384E+03 0.  0.
         25    1    4    4    0    0 -0.31330765481E+02  0.22049656968E+02 -0.21482248859E+03  0.25152338647E+03  0.12509000000E+03 0.  0.
         25    1    3    3    0    0  0.10783092046E+03  0.23561059745E+02 -0.37563156749E+03  0.41100999202E+03  0.12509000000E+03 0.  0.
         25    1    4    4    0    0 -0.76500154981E+02 -0.45610716713E+02 -0.20931982893E+03  0.25960529670E+03  0.12509000000E+03 0.  0.
<mgrwt>
<rscale>  2 0.45902230E+03</rscale>
<asrwt>0</asrwt>
<pdfrwt beam="1">  1       21 0.89974110E-02 0.45902230E+03</pdfrwt>
<pdfrwt beam="2">  1       21 0.12661122E+00 0.45902230E+03</pdfrwt>
<totfact> 0.40984855E+04</totfact>
</mgrwt>
</event>
<event>
 7    0  0.4793433E-002  0.4584894E+03  0.7546771E-02  0.1025220E+00
         21   -1    0    0  502  501  0.00000000000E+00  0.00000000000E+00  0.18844342963E+03  0.18844342963E+03  0.00000000000E+00 0. -1.
         21   -1    0    0  501  502 -0.00000000000E+00 -0.00000000000E+00 -0.27888013761E+03  0.27888013761E+03  0.00000000000E+00 0. -1.
      99926    2    1    2    0    0  0.00000000000E+00  0.00000000000E+00 -0.90436707984E+02  0.46732356725E+03  0.45848938739E+03 0.  0.
      99925    2    3    3    0    0 -0.61172652713E+02 -0.22825490069E+02  0.41470608465E+02  0.27416522632E+03  0.26302787593E+03 0.  0.
         25    1    3    3    0    0  0.61172652713E+02  0.22825490069E+02 -0.13190731645E+03  0.19315834093E+03  0.12509000000E+03 0.  0.
         25    1    4    4    0    0 -0.27845492183E+02 -0.17414534966E+02  0.61245342565E+02  0.14309834922E+03  0.12509000000E+03 0.  0.
         25    1    4    4    0    0 -0.33327160530E+02 -0.54109551031E+01 -0.19774734099E+02  0.13106687710E+03  0.12509000000E+03 0.  0.
<mgrwt>
<rscale>  2 0.45848939E+03</rscale>
<asrwt>0</asrwt>
<pdfrwt beam="1">  1       21 0.27712269E-01 0.45848939E+03</pdfrwt>
<pdfrwt beam="2">  1       21 0.41011785E-01 0.45848939E+03</pdfrwt>
<totfact> 0.65794071E+04</totfact>
</mgrwt>
</event>
<event>
 7    0  0.4793433E-002  0.4605181E+03  0.7546771E-02  0.1024631E+00
         21   -1    0    0  502  501  0.00000000000E+00  0.00000000000E+00  0.62269156489E+02  0.62269156489E+02  0.00000000000E+00 0.  1.
         21   -1    0    0  501  502 -0.00000000000E+00 -0.00000000000E+00 -0.85145238816E+03  0.85145238816E+03  0.00000000000E+00 0.  1.
      99926    2    1    2    0    0  0.71054273576E-14  0.00000000000E+00 -0.78918323167E+03  0.91372154465E+03  0.46051806480E+03 0.  0.
      99925    2    3    3    0    0 -0.56385176186E+02  0.55386493142E+02 -0.66895105485E+03  0.72306416567E+03  0.26282945454E+03 0.  0.
         25    1    4    4    0    0  0.73999583081E+01  0.46753039277E+02 -0.32060954760E+03  0.34738824991E+03  0.12509000000E+03 0.  0.
         25    1    3    3    0    0  0.56385176186E+02 -0.55386493142E+02 -0.12023217683E+03  0.19065737898E+03  0.12509000000E+03 0.  0.
         25    1    4    4    0    0 -0.63785134494E+02  0.86334538653E+01 -0.34834150725E+03  0.37567591576E+03  0.12509000000E+03 0.  0.
<mgrwt>
<rscale>  2 0.46051806E+03</rscale>
<asrwt>0</asrwt>
<pdfrwt beam="1">  1       21 0.91572289E-02 0.46051806E+03</pdfrwt>
<pdfrwt beam="2">  1       21 0.12521359E+00 0.46051806E+03</pdfrwt>
<totfact> 0.40852372E+04</totfact>
</mgrwt>
</event>
<event>
 7    0  0.4793433E-002  0.4561777E+03  0.7546771E-02  0.1025896E+00
         21   -1    0    0  502  501  0.00000000000E+00  0.00000000000E+00  0.44447416737E+03  0.44447416737E+03  0.00000000000E+00 0. -1.
         21   -1    0    0  501  502 -0.00000000000E+00 -0.00000000000E+00 -0.11704735271E+03  0.11704735271E+03  0.00000000000E+00 0. -1.
      99926    2    1    2    0    0  0.00000000000E+00  0.00000000000E+00  0.32742681466E+03  0.56152152008E+03  0.45617770502E+03 0.  0.
      99925    2    3    3    0    0 -0.70492212395E+02 -0.76833453679E+01  0.31616839119E+03  0.41729098932E+03  0.26294701439E+03 0.  0.
         25    1    4    4    0    0 -0.49093345126E+02 -0.40703855648E+02  0.14748548976E+03  0.20363309699E+03  0.12509000000E+03 0.  0.
         25    1    3    3    0    0  0.70492212395E+02  0.76833453679E+01  0.11258423467E+02  0.14423053076E+03  0.12509000000E+03 0.  0.
         25    1    4    4    0    0 -0.21398867269E+02  0.33020510280E+02  0.16868290143E+03  0.21365789233E+03  0.12509000000E+03 0.  0.
<mgrwt>
<rscale>  2 0.45617771E+03</rscale>
<asrwt>0</asrwt>
<pdfrwt beam="1">  1       21 0.65363847E-01 0.45617771E+03</pdfrwt>
<pdfrwt beam="2">  1       21 0.17212846E-01 0.45617771E+03</pdfrwt>
<totfact> 0.60545555E+04</totfact>
</mgrwt>
</event>
<event>
 7    0  0.4793433E-002  0.4535596E+03  0.7546771E-02  0.1026666E+00
         21   -1    0    0  502  501  0.00000000000E+00  0.00000000000E+00  0.10006026816E+03  0.10006026816E+03  0.00000000000E+00 0.  1.
         21   -1    0    0  501  502 -0.00000000000E+00 -0.00000000000E+00 -0.51398091054E+03  0.51398091054E+03  0.00000000000E+00 0.  1.
      99926    2    1    2    0    0  0.00000000000E+00  0.00000000000E+00 -0.41392064237E+03  0.61404117870E+03  0.45355955613E+03 0.  0.
      99925    2    3    3    0    0 -0.11040998244E+03 -0.13408880601E+02 -0.24581110414E+03  0.37681030540E+03  0.26304513878E+03 0.  0.
         25    1    4    4    0    0 -0.36320457602E+02 -0.35154251761E+02 -0.87677477263E+02  0.16090321680E+03  0.12509000000E+03 0.  0.
         25    1    3    3    0    0  0.11040998244E+03  0.13408880601E+02 -0.16810953823E+03  0.23723087330E+03  0.12509000000E+03 0.  0.
         25    1    4    4    0    0 -0.74089524838E+02  0.21745371160E+02 -0.15813362688E+03  0.21590708860E+03  0.12509000000E+03 0.  0.
<mgrwt>
<rscale>  2 0.45355956E+03</rscale>
<asrwt>0</asrwt>
<pdfrwt beam="1">  1       21 0.14714746E-01 0.45355956E+03</pdfrwt>
<pdfrwt beam="2">  1       21 0.75585427E-01 0.45355956E+03</pdfrwt>
<totfact> 0.58484733E+04</totfact>
</mgrwt>
</event>
<event>
 7    0  0.4793433E-002  0.4404490E+03  0.7546771E-02  0.1030609E+00
         21   -1    0    0  502  501  0.00000000000E+00  0.00000000000E+00  0.47114367343E+02  0.47114367343E+02  0.00000000000E+00 0.  1.
         21   -1    0    0  501  502 -0.00000000000E+00 -0.00000000000E+00 -0.10293852998E+04  0.10293852998E+04  0.00000000000E+00 0.  1.
      99926    2    1    2    0    0  0.00000000000E+00  0.13322676296E-14 -0.98227093249E+03  0.10764996672E+04  0.44044903067E+03 0.  0.
      99925    2    3    3    0    0  0.34988463144E+02  0.12166840546E+01 -0.85254573817E+03  0.89291914802E+03  0.26314387007E+03 0.  0.
         25    1    3    3    0    0 -0.34988463144E+02 -0.12166840546E+01 -0.12972519433E+03  0.18358051916E+03  0.12509000000E+03 0.  0.
         25    1    4    4    0    0 -0.18995166590E+02  0.18872396921E+02 -0.39570189963E+03  0.41586594618E+03  0.12509000000E+03 0.  0.
         25    1    4    4    0    0  0.53983629734E+02 -0.17655712866E+02 -0.45684383853E+03  0.47705320184E+03  0.12509000000E+03 0.  0.
<mgrwt>
<rscale>  2 0.44044903E+03</rscale>
<asrwt>0</asrwt>
<pdfrwt beam="1">  1       21 0.69285843E-02 0.44044903E+03</pdfrwt>
<pdfrwt beam="2">  1       21 0.15138017E+00 0.44044903E+03</pdfrwt>
<totfact> 0.40754138E+04</totfact>
</mgrwt>
</event>
<event>
 7    0  0.4793433E-002  0.4534508E+03  0.7546771E-02  0.1026698E+00
         21   -1    0    0  502  501  0.00000000000E+00  0.00000000000E+00  0.64065278400E+03  0.64065278400E+03  0.00000000000E+00 0.  1.
         21   -1    0    0  501  502 -0.00000000000E+00 -0.00000000000E+00 -0.80237533583E+02  0.80237533583E+02  0.00000000000E+00 0.  1.
      99926    2    1    2    0    0 -0.61062266354E-15 -0.71054273576E-14  0.56041525042E+03  0.72089031759E+03  0.45345076589E+03 0.  0.
      99925    2    3    3    0    0 -0.44140258432E+00  0.56413339065E+02  0.19969763584E+03  0.33495332113E+03  0.26292949990E+03 0.  0.
         25    1    3    3    0    0  0.44140258432E+00 -0.56413339065E+02  0.36071761458E+03  0.38593699645E+03  0.12509000000E+03 0.  0.
         25    1    4    4    0    0  0.58971239815E+01 -0.12562931657E+02  0.97269172675E+02  0.15906414862E+03  0.12509000000E+03 0.  0.
         25    1    4    4    0    0 -0.63385265659E+01  0.68976270721E+02  0.10242846316E+03  0.17588917251E+03  0.12509000000E+03 0.  0.
<mgrwt>
<rscale>  2 0.45345077E+03</rscale>
<asrwt>0</asrwt>
<pdfrwt beam="1">  1       21 0.94213642E-01 0.45345077E+03</pdfrwt>
<pdfrwt beam="2">  1       21 0.11799638E-01 0.45345077E+03</pdfrwt>
<totfact> 0.52419254E+04</totfact>
</mgrwt>
</event>
<event>
 7    0  0.4793433E-002  0.4571011E+03  0.7546771E-02  0.1025625E+00
         21   -1    0    0  502  501  0.00000000000E+00  0.00000000000E+00  0.35366986743E+03  0.35366986743E+03  0.00000000000E+00 0.  1.
         21   -1    0    0  501  502 -0.00000000000E+00 -0.00000000000E+00 -0.14769523855E+03  0.14769523855E+03  0.00000000000E+00 0.  1.
      99926    2    1    2    0    0  0.00000000000E+00  0.00000000000E+00  0.20597462888E+03  0.50136510599E+03  0.45710110671E+03 0.  0.
      99925    2    3    3    0    0 -0.35317476878E+02 -0.57948962475E+02  0.26483134610E+02  0.27230155358E+03  0.26237639611E+03 0.  0.
         25    1    3    3    0    0  0.35317476878E+02  0.57948962475E+02  0.17949149427E+03  0.22906355241E+03  0.12509000000E+03 0.  0.
         25    1    4    4    0    0  0.18026404276E+02 -0.34687571162E+02  0.29371232749E+02  0.13430694791E+03  0.12509000000E+03 0.  0.
         25    1    4    4    0    0 -0.53343881155E+02 -0.23261391313E+02 -0.28880981388E+01  0.13799460567E+03  0.12509000000E+03 0.  0.
<mgrwt>
<rscale>  2 0.45710111E+03</rscale>
<asrwt>0</asrwt>
<pdfrwt beam="1">  1       21 0.52010275E-01 0.45710111E+03</pdfrwt>
<pdfrwt beam="2">  1       21 0.21719888E-01 0.45710111E+03</pdfrwt>
<totfact> 0.64099089E+04</totfact>
</mgrwt>
</event>
<event>
 7    0  0.4793433E-002  0.4121198E+03  0.7546771E-02  0.1039662E+00
         21   -1    0    0  502  501  0.00000000000E+00  0.00000000000E+00  0.16391863953E+03  0.16391863953E+03  0.00000000000E+00 0.  1.
         21   -1    0    0  501  502 -0.00000000000E+00 -0.00000000000E+00 -0.25903513805E+03  0.25903513805E+03  0.00000000000E+00 0.  1.
      99926    2    1    2    0    0 -0.71054273576E-14 -0.35527136788E-14 -0.95116498523E+02  0.42295377758E+03  0.41211982441E+03 0.  0.
      99925    2    3    3    0    0  0.63796201517E+02 -0.11467759725E+02 -0.71996578209E+02  0.28018296944E+03  0.26290211914E+03 0.  0.
         25    1    3    3    0    0 -0.63796201517E+02  0.11467759725E+02 -0.23119920314E+02  0.14277080814E+03  0.12509000000E+03 0.  0.
         25    1    4    4    0    0  0.47666851077E+02  0.27352532132E+02 -0.18875488880E+02  0.13792781404E+03  0.12509000000E+03 0.  0.
         25    1    4    4    0    0  0.16129350440E+02 -0.38820291857E+02 -0.53121089329E+02  0.14225515540E+03  0.12509000000E+03 0.  0.
<mgrwt>
<rscale>  2 0.41211982E+03</rscale>
<asrwt>0</asrwt>
<pdfrwt beam="1">  1       21 0.24105683E-01 0.41211982E+03</pdfrwt>
<pdfrwt beam="2">  1       21 0.38093402E-01 0.41211982E+03</pdfrwt>
<totfact> 0.10145299E+05</totfact>
</mgrwt>
</event>
<event>
 7    0  0.4793433E-002  0.4107923E+03  0.7546771E-02  0.1040105E+00
         21   -1    0    0  502  501  0.00000000000E+00  0.00000000000E+00  0.16084742547E+04  0.16084742547E+04  0.00000000000E+00 0. -1.
         21   -1    0    0  501  502 -0.00000000000E+00 -0.00000000000E+00 -0.26228326883E+02  0.26228326883E+02  0.00000000000E+00 0. -1.
      99926    2    1    2    0    0  0.35527136788E-14  0.00000000000E+00  0.15822459278E+04  0.16347025816E+04  0.41079234917E+03 0.  0.
      99925    2    3    3    0    0 -0.19212630684E+02  0.59369214204E+02  0.99384196274E+03  0.10299211641E+04  0.26291049520E+03 0.  0.
         25    1    4    4    0    0 -0.49360992453E+02  0.31435320348E+02  0.47926068780E+03  0.49876146795E+03  0.12509000000E+03 0.  0.
         25    1    3    3    0    0  0.19212630684E+02 -0.59369214204E+02  0.58840396504E+03  0.60478141750E+03  0.12509000000E+03 0.  0.
         25    1    4    4    0    0  0.30148361770E+02  0.27933893856E+02  0.51458127494E+03  0.53115969610E+03  0.12509000000E+03 0.  0.
<mgrwt>
<rscale>  2 0.41079235E+03</rscale>
<asrwt>0</asrwt>
<pdfrwt beam="1">  1       21 0.23654027E+00 0.41079235E+03</pdfrwt>
<pdfrwt beam="2">  1       21 0.38571080E-02 0.41079235E+03</pdfrwt>
<totfact> 0.29580117E+04</totfact>
</mgrwt>
</event>
<event>
 7    0  0.4793433E-002  0.4527087E+03  0.7546771E-02  0.1026917E+00
         21   -1    0    0  502  501  0.00000000000E+00  0.00000000000E+00  0.23693794710E+03  0.23693794710E+03  0.00000000000E+00 0.  1.
         21   -1    0    0  501  502 -0.00000000000E+00 -0.00000000000E+00 -0.21624352058E+03  0.21624352058E+03  0.00000000000E+00 0.  1.
      99926    2    1    2    0    0  0.00000000000E+00 -0.35527136788E-14  0.20694426519E+02  0.45318146768E+03  0.45270871800E+03 0.  0.
      99925    2    3    3    0    0 -0.10775355740E+03 -0.90609038400E+01  0.37656025999E+02  0.28696434140E+03  0.26313043881E+03 0.  0.
         25    1    3    3    0    0  0.10775355740E+03  0.90609038400E+01 -0.16961599480E+02  0.16621712628E+03  0.12509000000E+03 0.  0.
         25    1    4    4    0    0 -0.75404397436E+02 -0.38930786884E+02  0.30171509568E+02  0.15414038215E+03  0.12509000000E+03 0.  0.
         25    1    4    4    0    0 -0.32349159967E+02  0.29869883044E+02  0.74845164318E+01  0.13282395925E+03  0.12509000000E+03 0.  0.
<mgrwt>
<rscale>  2 0.45270872E+03</rscale>
<asrwt>0</asrwt>
<pdfrwt beam="1">  1       21 0.34843816E-01 0.45270872E+03</pdfrwt>
<pdfrwt beam="2">  1       21 0.31800517E-01 0.45270872E+03</pdfrwt>
<totfact> 0.69949329E+04</totfact>
</mgrwt>
</event>
<event>
 7    0  0.4793433E-002  0.4588714E+03  0.7546771E-02  0.1025109E+00
         21   -1    0    0  502  501  0.00000000000E+00  0.00000000000E+00  0.99790071796E+02  0.99790071796E+02  0.00000000000E+00 0. -1.
         21   -1    0    0  501  502 -0.00000000000E+00 -0.00000000000E+00 -0.52751472983E+03  0.52751472983E+03  0.00000000000E+00 0. -1.
      99926    2    1    2    0    0  0.00000000000E+00  0.00000000000E+00 -0.42772465803E+03  0.62730480162E+03  0.45887136656E+03 0.  0.
      99925    2    3    3    0    0 -0.88024407047E+02 -0.90182805619E+00 -0.16316416145E+03  0.32170886909E+03  0.26291622875E+03 0.  0.
         25    1    4    4    0    0 -0.75559936586E+02 -0.21240391369E+02 -0.67154648422E+02  0.16222735018E+03  0.12509000000E+03 0.  0.
         25    1    4    4    0    0 -0.12464470461E+02  0.20338563313E+02 -0.96009513027E+02  0.15948151891E+03  0.12509000000E+03 0.  0.
         25    1    3    3    0    0  0.88024407047E+02  0.90182805619E+00 -0.26456049658E+03  0.30559593253E+03  0.12509000000E+03 0.  0.
<mgrwt>
<rscale>  2 0.45887137E+03</rscale>
<asrwt>0</asrwt>
<pdfrwt beam="1">  1       21 0.14675011E-01 0.45887137E+03</pdfrwt>
<pdfrwt beam="2">  1       21 0.77575694E-01 0.45887137E+03</pdfrwt>
<totfact> 0.55318049E+04</totfact>
</mgrwt>
</event>
<event>
 7    0  0.4793433E-002  0.4491832E+03  0.7546771E-02  0.1027966E+00
         21   -1    0    0  502  501  0.00000000000E+00  0.00000000000E+00  0.81839360895E+03  0.81839360895E+03  0.00000000000E+00 0. -1.
         21   -1    0    0  501  502 -0.00000000000E+00 -0.00000000000E+00 -0.61634637120E+02  0.61634637120E+02  0.00000000000E+00 0. -1.
      99926    2    1    2    0    0  0.00000000000E+00  0.17763568394E-14  0.75675897183E+03  0.88002824607E+03  0.44918322813E+03 0.  0.
      99925    2    3    3    0    0  0.10711361811E+03 -0.89033161787E+01  0.48862915853E+03  0.56523672600E+03  0.26302377390E+03 0.  0.
         25    1    3    3    0    0 -0.10711361811E+03  0.89033161787E+01  0.26812981330E+03  0.31479152007E+03  0.12509000000E+03 0.  0.
         25    1    4    4    0    0  0.41852954796E+02 -0.41947894136E+02  0.21737766079E+03  0.25770496921E+03  0.12509000000E+03 0.  0.
         25    1    4    4    0    0  0.65260663316E+02  0.33044577958E+02  0.27125149774E+03  0.30753175679E+03  0.12509000000E+03 0.  0.
<mgrwt>
<rscale>  2 0.44918323E+03</rscale>
<asrwt>0</asrwt>
<pdfrwt beam="1">  1       21 0.12035200E+00 0.44918323E+03</pdfrwt>
<pdfrwt beam="2">  1       21 0.90639177E-02 0.44918323E+03</pdfrwt>
<totfact> 0.46176446E+04</totfact>
</mgrwt>
</event>
<event>
 7    0  0.4793433E-002  0.4582942E+03  0.7546771E-02  0.1025277E+00
         21   -1    0    0  502  501  0.00000000000E+00  0.00000000000E+00  0.27054150811E+03  0.27054150811E+03  0.00000000000E+00 0. -1.
         21   -1    0    0  501  502 -0.00000000000E+00 -0.00000000000E+00 -0.19408630385E+03  0.19408630385E+03  0.00000000000E+00 0. -1.
      99926    2    1    2    0    0  0.00000000000E+00 -0.35527136788E-14  0.76455204251E+02  0.46462781196E+03  0.45829423452E+03 0.  0.
      99925    2    3    3    0    0 -0.55738156654E+02  0.24241225110E+02 -0.52406015906E+02  0.27503060401E+03  0.26306095023E+03 0.  0.
         25    1    4    4    0    0 -0.48084601002E+02  0.28331356314E+02  0.51258802344E+01  0.13707143157E+03  0.12509000000E+03 0.  0.
         25    1    4    4    0    0 -0.76535556516E+01 -0.40901312047E+01 -0.57531896141E+02  0.13795917244E+03  0.12509000000E+03 0.  0.
         25    1    3    3    0    0  0.55738156654E+02 -0.24241225110E+02  0.12886122016E+03  0.18959720795E+03  0.12509000000E+03 0.  0.
<mgrwt>
<rscale>  2 0.45829423E+03</rscale>
<asrwt>0</asrwt>
<pdfrwt beam="1">  1       21 0.39785516E-01 0.45829423E+03</pdfrwt>
<pdfrwt beam="2">  1       21 0.28542104E-01 0.45829423E+03</pdfrwt>
<totfact> 0.66089992E+04</totfact>
</mgrwt>
</event>
<event>
 7    0  0.4793433E-002  0.4573945E+03  0.7546771E-02  0.1025540E+00
         21   -1    0    0  502  501  0.00000000000E+00  0.00000000000E+00  0.57024725367E+03  0.57024725367E+03  0.00000000000E+00 0.  1.
         21   -1    0    0  501  502 -0.00000000000E+00 -0.00000000000E+00 -0.91718886504E+02  0.91718886504E+02  0.00000000000E+00 0.  1.
      99926    2    1    2    0    0  0.00000000000E+00  0.00000000000E+00  0.47852836717E+03  0.66196614018E+03  0.45739454802E+03 0.  0.
      99925    2    3    3    0    0  0.40572656570E+02  0.66127599187E+02  0.42417734441E+03  0.50505679817E+03  0.26293906143E+03 0.  0.
         25    1    4    4    0    0  0.14556940508E+02 -0.83741714982E+01  0.19916482837E+03  0.23578839714E+03  0.12509000000E+03 0.  0.
         25    1    4    4    0    0  0.26015716062E+02  0.74501770685E+02  0.22501251604E+03  0.26926840103E+03  0.12509000000E+03 0.  0.
         25    1    3    3    0    0 -0.40572656570E+02 -0.66127599187E+02  0.54351022760E+02  0.15690934201E+03  0.12509000000E+03 0.  0.
<mgrwt>
<rscale>  2 0.45739455E+03</rscale>
<asrwt>0</asrwt>
<pdfrwt beam="1">  1       21 0.83859889E-01 0.45739455E+03</pdfrwt>
<pdfrwt beam="2">  1       21 0.13488072E-01 0.45739455E+03</pdfrwt>
<totfact> 0.53990041E+04</totfact>
</mgrwt>
</event>
<event>
 7    0  0.4793433E-002  0.4254354E+03  0.7546771E-02  0.1035312E+00
         21   -1    0    0  502  501  0.00000000000E+00  0.00000000000E+00  0.48413638942E+02  0.48413638942E+02  0.00000000000E+00 0.  1.
         21   -1    0    0  501  502 -0.00000000000E+00 -0.00000000000E+00 -0.93462971110E+03  0.93462971110E+03  0.00000000000E+00 0.  1.
      99926    2    1    2    0    0  0.00000000000E+00  0.00000000000E+00 -0.88621607216E+03  0.98304335004E+03  0.42543542578E+03 0.  0.
      99925    2    3    3    0    0 -0.30643018559E+02  0.73206121777E+02 -0.62609873212E+03  0.68369961862E+03  0.26295896123E+03 0.  0.
         25    1    3    3    0    0  0.30643018559E+02 -0.73206121777E+02 -0.26011734004E+03  0.29934373142E+03  0.12509000000E+03 0.  0.
         25    1    4    4    0    0 -0.73555559591E+01 -0.25283531804E+01 -0.31996364223E+03  0.34363459841E+03  0.12509000000E+03 0.  0.
         25    1    4    4    0    0 -0.23287462600E+02  0.75734474958E+02 -0.30613508989E+03  0.34006502021E+03  0.12509000000E+03 0.  0.
<mgrwt>
<rscale>  2 0.42543543E+03</rscale>
<asrwt>0</asrwt>
<pdfrwt beam="1">  1       21 0.71196530E-02 0.42543543E+03</pdfrwt>
<pdfrwt beam="2">  1       21 0.13744554E+00 0.42543543E+03</pdfrwt>
<totfact> 0.50532590E+04</totfact>
</mgrwt>
</event>
<event>
 7    0  0.4793433E-002  0.4499450E+03  0.7546771E-02  0.1027738E+00
         21   -1    0    0  502  501  0.00000000000E+00  0.00000000000E+00  0.70096954153E+02  0.70096954153E+02  0.00000000000E+00 0. -1.
         21   -1    0    0  501  502 -0.00000000000E+00 -0.00000000000E+00 -0.72203742441E+03  0.72203742441E+03  0.00000000000E+00 0. -1.
      99926    2    1    2    0    0  0.00000000000E+00  0.14210854715E-13 -0.65194047025E+03  0.79213437856E+03  0.44994499324E+03 0.  0.
      99925    2    3    3    0    0  0.32888215694E+02  0.98037578850E+02 -0.35539661895E+03  0.45408295430E+03  0.26304290720E+03 0.  0.
         25    1    3    3    0    0 -0.32888215694E+02 -0.98037578850E+02 -0.29654385131E+03  0.33805142426E+03  0.12509000000E+03 0.  0.
         25    1    4    4    0    0  0.56934934546E+02  0.56010705877E+02 -0.18089644204E+03  0.23398678764E+03  0.12509000000E+03 0.  0.
         25    1    4    4    0    0 -0.24046718852E+02  0.42026872973E+02 -0.17450017690E+03  0.22009616666E+03  0.12509000000E+03 0.  0.
<mgrwt>
<rscale>  2 0.44994499E+03</rscale>
<asrwt>0</asrwt>
<pdfrwt beam="1">  1       21 0.10308375E-01 0.44994499E+03</pdfrwt>
<pdfrwt beam="2">  1       21 0.10618198E+00 0.44994499E+03</pdfrwt>
<totfact> 0.50106129E+04</totfact>
</mgrwt>
</event>
<event>
 7    0  0.4793433E-002  0.4522263E+03  0.7546771E-02  0.1027060E+00
         21   -1    0    0  502  501  0.00000000000E+00  0.00000000000E+00  0.10484637201E+03  0.10484637201E+03  0.00000000000E+00 0. -1.
         21   -1    0    0  501  502 -0.00000000000E+00 -0.00000000000E+00 -0.48763884707E+03  0.48763884707E+03  0.00000000000E+00 0. -1.
      99926    2    1    2    0    0  0.35527136788E-14  0.14210854715E-13 -0.38279247506E+03  0.59248521907E+03  0.45222633256E+03 0.  0.
      99925    2    3    3    0    0  0.23566463584E+02  0.85676653239E+02 -0.15524219242E+03  0.31803575861E+03  0.26296527971E+03 0.  0.
         25    1    3    3    0    0 -0.23566463584E+02 -0.85676653239E+02 -0.22755028264E+03  0.27444946046E+03  0.12509000000E+03 0.  0.
         25    1    4    4    0    0  0.24349982047E+02  0.83006891744E+02 -0.93258869339E+02  0.17840344871E+03  0.12509000000E+03 0.  0.
         25    1    4    4    0    0 -0.78351846342E+00  0.26697614949E+01 -0.61983323079E+02  0.13963230990E+03  0.12509000000E+03 0.  0.
<mgrwt>
<rscale>  2 0.45222633E+03</rscale>
<asrwt>0</asrwt>
<pdfrwt beam="1">  1       21 0.15418585E-01 0.45222633E+03</pdfrwt>
<pdfrwt beam="2">  1       21 0.71711592E-01 0.45222633E+03</pdfrwt>
<totfact> 0.60457589E+04</totfact>
</mgrwt>
</event>
<event>
 7    0  0.4793433E-002  0.4551090E+03  0.7546771E-02  0.1026209E+00
         21   -1    0    0  502  501  0.00000000000E+00  0.00000000000E+00  0.91037108698E+02  0.91037108698E+02  0.00000000000E+00 0. -1.
         21   -1    0    0  501  502 -0.00000000000E+00 -0.00000000000E+00 -0.56879047656E+03  0.56879047656E+03  0.00000000000E+00 0. -1.
      99926    2    1    2    0    0 -0.31571967263E-15  0.00000000000E+00 -0.47775336786E+03  0.65982758525E+03  0.45510895592E+03 0.  0.
      99925    2    3    3    0    0 -0.77190493021E-02 -0.78042490327E+02 -0.41947522398E+03  0.50128900790E+03  0.26313604001E+03 0.  0.
         25    1    4    4    0    0 -0.26506622829E+02 -0.52941397348E+02 -0.26686717846E+03  0.30061768352E+03  0.12509000000E+03 0.  0.
         25    1    4    4    0    0  0.26498903780E+02 -0.25101092979E+02 -0.15260804552E+03  0.20067132438E+03  0.12509000000E+03 0.  0.
         25    1    3    3    0    0  0.77190493021E-02  0.78042490327E+02 -0.58278143879E+02  0.15853857736E+03  0.12509000000E+03 0.  0.
<mgrwt>
<rscale>  2 0.45510896E+03</rscale>
<asrwt>0</asrwt>
<pdfrwt beam="1">  1       21 0.13387810E-01 0.45510896E+03</pdfrwt>
<pdfrwt beam="2">  1       21 0.83645657E-01 0.45510896E+03</pdfrwt>
<totfact> 0.55091095E+04</totfact>
</mgrwt>
</event>
<event>
 7    0  0.4793433E-002  0.4554583E+03  0.7546771E-02  0.1026107E+00
         21   -1    0    0  502  501  0.00000000000E+00  0.00000000000E+00  0.11676177050E+04  0.11676177050E+04  0.00000000000E+00 0.  1.
         21   -1    0    0  501  502 -0.00000000000E+00 -0.00000000000E+00 -0.44415710688E+02  0.44415710688E+02  0.00000000000E+00 0.  1.
      99926    2    1    2    0    0 -0.14210854715E-13  0.00000000000E+00  0.11232019943E+04  0.12120334157E+04  0.45545831941E+03 0.  0.
      99925    2    3    3    0    0 -0.70989445525E+02  0.19240870723E+02  0.93736563666E+03  0.97625306790E+03  0.26268993756E+03 0.  0.
         25    1    4    4    0    0 -0.19148454268E+02  0.42483706936E+02  0.51979667603E+03  0.53666341516E+03  0.12509000000E+03 0.  0.
         25    1    3    3    0    0  0.70989445525E+02 -0.19240870723E+02  0.18583635765E+03  0.23578034780E+03  0.12509000000E+03 0.  0.
         25    1    4    4    0    0 -0.51840991256E+02 -0.23242836213E+02  0.41756896064E+03  0.43958965274E+03  0.12509000000E+03 0.  0.
<mgrwt>
<rscale>  2 0.45545832E+03</rscale>
<asrwt>0</asrwt>
<pdfrwt beam="1">  1       21 0.17170847E+00 0.45545832E+03</pdfrwt>
<pdfrwt beam="2">  1       21 0.65317229E-02 0.45545832E+03</pdfrwt>
<totfact> 0.31663686E+04</totfact>
</mgrwt>
</event>
<event>
 7    0  0.4793433E-002  0.4540178E+03  0.7546771E-02  0.1026531E+00
         21   -1    0    0  502  501  0.00000000000E+00  0.00000000000E+00  0.73211934557E+03  0.73211934557E+03  0.00000000000E+00 0. -1.
         21   -1    0    0  501  502 -0.00000000000E+00 -0.00000000000E+00 -0.70388860437E+02  0.70388860437E+02  0.00000000000E+00 0. -1.
      99926    2    1    2    0    0  0.14210854715E-13 -0.35527136788E-14  0.66173048513E+03  0.80250820601E+03  0.45401782537E+03 0.  0.
      99925    2    3    3    0    0  0.86116433876E+02 -0.18195416185E+02  0.29339467448E+03  0.40367755164E+03  0.26292207464E+03 0.  0.
         25    1    3    3    0    0 -0.86116433876E+02  0.18195416185E+02  0.36833581066E+03  0.39883065437E+03  0.12509000000E+03 0.  0.
         25    1    4    4    0    0  0.84515330309E+02 -0.44451898370E+01  0.14948183417E+03  0.21249688849E+03  0.12509000000E+03 0.  0.
         25    1    4    4    0    0  0.16011035673E+01 -0.13750226348E+02  0.14391284031E+03  0.19118066315E+03  0.12509000000E+03 0.  0.
<mgrwt>
<rscale>  2 0.45401783E+03</rscale>
<asrwt>0</asrwt>
<pdfrwt beam="1">  1       21 0.10766461E+00 0.45401783E+03</pdfrwt>
<pdfrwt beam="2">  1       21 0.10351303E-01 0.45401783E+03</pdfrwt>
<totfact> 0.48012731E+04</totfact>
</mgrwt>
</event>
<event>
 7    0  0.4793433E-002  0.4496385E+03  0.7546771E-02  0.1027830E+00
         21   -1    0    0  502  501  0.00000000000E+00  0.00000000000E+00  0.22741878160E+04  0.22741878160E+04  0.00000000000E+00 0.  1.
         21   -1    0    0  501  502 -0.00000000000E+00 -0.00000000000E+00 -0.22224946714E+02  0.22224946714E+02  0.00000000000E+00 0.  1.
      99926    2    1    2    0    0  0.00000000000E+00  0.00000000000E+00  0.22519628693E+04  0.22964127627E+04  0.44963853495E+03 0.  0.
      99925    2    3    3    0    0 -0.65816857562E+02 -0.75728385470E+02  0.12192175713E+04  0.12512921928E+04  0.26300954055E+03 0.  0.
         25    1    4    4    0    0 -0.26570539883E+02 -0.59408334563E+01  0.44938851995E+03  0.46726741493E+03  0.12509000000E+03 0.  0.
         25    1    3    3    0    0  0.65816857562E+02  0.75728385470E+02  0.10327452980E+04  0.10451205700E+04  0.12509000000E+03 0.  0.
         25    1    4    4    0    0 -0.39246317679E+02 -0.69787552014E+02  0.76982905135E+03  0.78402477784E+03  0.12509000000E+03 0.  0.
<mgrwt>
<rscale>  2 0.44963853E+03</rscale>
<asrwt>0</asrwt>
<pdfrwt beam="1">  1       21 0.33443923E+00 0.44963853E+03</pdfrwt>
<pdfrwt beam="2">  1       21 0.32683761E-02 0.44963853E+03</pdfrwt>
<totfact> 0.98498359E+03</totfact>
</mgrwt>
</event>
<event>
 7    0  0.4793433E-002  0.4489769E+03  0.7546771E-02  0.1028028E+00
         21   -1    0    0  502  501  0.00000000000E+00  0.00000000000E+00  0.18824697421E+03  0.18824697421E+03  0.00000000000E+00 0. -1.
         21   -1    0    0  501  502 -0.00000000000E+00 -0.00000000000E+00 -0.26770721958E+03  0.26770721958E+03  0.00000000000E+00 0. -1.
      99926    2    1    2    0    0  0.00000000000E+00 -0.71054273576E-14 -0.79460245366E+02  0.45595419379E+03  0.44897694400E+03 0.  0.
      99925    2    3    3    0    0 -0.44186169958E+02 -0.59730570619E+02  0.28539546272E+02  0.27475921104E+03  0.26297900993E+03 0.  0.
         25    1    3    3    0    0  0.44186169958E+02  0.59730570619E+02 -0.10799979164E+03  0.18119498276E+03  0.12509000000E+03 0.  0.
         25    1    4    4    0    0 -0.37820442201E+02 -0.68509527766E+02  0.10698672172E+02  0.14793887565E+03  0.12509000000E+03 0.  0.
         25    1    4    4    0    0 -0.63657277567E+01  0.87789571472E+01  0.17840874100E+02  0.12682033538E+03  0.12509000000E+03 0.  0.
<mgrwt>
<rscale>  2 0.44897694E+03</rscale>
<asrwt>0</asrwt>
<pdfrwt beam="1">  1       21 0.27683379E-01 0.44897694E+03</pdfrwt>
<pdfrwt beam="2">  1       21 0.39368709E-01 0.44897694E+03</pdfrwt>
<totfact> 0.71866438E+04</totfact>
</mgrwt>
</event>
<event>
 7    0  0.4793433E-002  0.4601004E+03  0.7546771E-02  0.1024752E+00
         21   -1    0    0  502  501  0.00000000000E+00  0.00000000000E+00  0.56419595406E+03  0.56419595406E+03  0.00000000000E+00 0.  1.
         21   -1    0    0  501  502 -0.00000000000E+00 -0.00000000000E+00 -0.93802688181E+02  0.93802688181E+02  0.00000000000E+00 0.  1.
      99926    2    1    2    0    0 -0.71054273576E-14 -0.17763568394E-14  0.47039326588E+03  0.65799864224E+03  0.46010041144E+03 0.  0.
      99925    2    3    3    0    0  0.41848243077E+02  0.15341406705E+02  0.45069843101E+03  0.52375249210E+03  0.26306075924E+03 0.  0.
         25    1    4    4    0    0 -0.50421587482E+01 -0.15453359544E+02  0.17353308376E+03  0.21453547246E+03  0.12509000000E+03 0.  0.
         25    1    3    3    0    0 -0.41848243077E+02 -0.15341406705E+02  0.19694834864E+02  0.13424615014E+03  0.12509000000E+03 0.  0.
         25    1    4    4    0    0  0.46890401825E+02  0.30794766249E+02  0.27716534726E+03  0.30921701964E+03  0.12509000000E+03 0.  0.
<mgrwt>
<rscale>  2 0.46010041E+03</rscale>
<asrwt>0</asrwt>
<pdfrwt beam="1">  1       21 0.82969992E-01 0.46010041E+03</pdfrwt>
<pdfrwt beam="2">  1       21 0.13794513E-01 0.46010041E+03</pdfrwt>
<totfact> 0.53075465E+04</totfact>
</mgrwt>
</event>
<event>
 7    0  0.4793433E-002  0.4669456E+03  0.7546771E-02  0.1022786E+00
         21   -1    0    0  502  501  0.00000000000E+00  0.00000000000E+00  0.16478574374E+03  0.16478574374E+03  0.00000000000E+00 0. -1.
         21   -1    0    0  501  502 -0.00000000000E+00 -0.00000000000E+00 -0.33079043641E+03  0.33079043641E+03  0.00000000000E+00 0. -1.
      99926    2    1    2    0    0  0.00000000000E+00  0.35527136788E-14 -0.16600469267E+03  0.49557618016E+03  0.46694559892E+03 0.  0.
      99925    2    3    3    0    0 -0.11903761681E+03 -0.31744527585E+02 -0.11974933051E+03  0.31401424616E+03  0.26284477431E+03 0.  0.
         25    1    4    4    0    0 -0.94902547630E+02 -0.22959114810E+02 -0.91681094614E+02  0.18326632454E+03  0.12509000000E+03 0.  0.
         25    1    3    3    0    0  0.11903761681E+03  0.31744527585E+02 -0.46255362155E+02  0.18156193400E+03  0.12509000000E+03 0.  0.
         25    1    4    4    0    0 -0.24135069185E+02 -0.87854127754E+01 -0.28068235899E+02  0.13074792162E+03  0.12509000000E+03 0.  0.
<mgrwt>
<rscale>  2 0.46694560E+03</rscale>
<asrwt>0</asrwt>
<pdfrwt beam="1">  1       21 0.24233198E-01 0.46694560E+03</pdfrwt>
<pdfrwt beam="2">  1       21 0.48645652E-01 0.46694560E+03</pdfrwt>
<totfact> 0.59715610E+04</totfact>
</mgrwt>
</event>
<event>
 7    0  0.4793433E-002  0.4523635E+03  0.7546771E-02  0.1027020E+00
         21   -1    0    0  502  501  0.00000000000E+00  0.00000000000E+00  0.38215644635E+02  0.38215644635E+02  0.00000000000E+00 0. -1.
         21   -1    0    0  501  502 -0.00000000000E+00 -0.00000000000E+00 -0.13386711980E+04  0.13386711980E+04  0.00000000000E+00 0. -1.
      99926    2    1    2    0    0 -0.71054273576E-14 -0.71054273576E-14 -0.13004555534E+04  0.13768868426E+04  0.45236349449E+03 0.  0.
      99925    2    3    3    0    0 -0.62131589398E+02 -0.42637206628E+02 -0.10670449991E+04  0.11015574749E+04  0.26299348779E+03 0.  0.
         25    1    3    3    0    0  0.62131589398E+02  0.42637206628E+02 -0.23341055422E+03  0.27532936769E+03  0.12509000000E+03 0.  0.
         25    1    4    4    0    0 -0.45150398957E+02  0.11534539768E+02 -0.44858990201E+03  0.46802992684E+03  0.12509000000E+03 0.  0.
         25    1    4    4    0    0 -0.16981190442E+02 -0.54171746397E+02 -0.61845509713E+03  0.63352754810E+03  0.12509000000E+03 0.  0.
<mgrwt>
<rscale>  2 0.45236349E+03</rscale>
<asrwt>0</asrwt>
<pdfrwt beam="1">  1       21 0.56199484E-02 0.45236349E+03</pdfrwt>
<pdfrwt beam="2">  1       21 0.19686339E+00 0.45236349E+03</pdfrwt>
<totfact> 0.27513990E+04</totfact>
</mgrwt>
</event>
<event>
 7    0  0.4793433E-002  0.4589591E+03  0.7546771E-02  0.1025084E+00
         21   -1    0    0  502  501  0.00000000000E+00  0.00000000000E+00  0.13856900818E+04  0.13856900818E+04  0.00000000000E+00 0. -1.
         21   -1    0    0  501  502 -0.00000000000E+00 -0.00000000000E+00 -0.38003344615E+02  0.38003344615E+02  0.00000000000E+00 0. -1.
      99926    2    1    2    0    0  0.35527136788E-14  0.00000000000E+00  0.13476867372E+04  0.14236934264E+04  0.45895907315E+03 0.  0.
      99925    2    3    3    0    0  0.18735620520E+02 -0.11528080646E+03  0.85095580987E+03  0.89830803447E+03  0.26304153024E+03 0.  0.
         25    1    4    4    0    0  0.17343341257E+02 -0.19045478828E+02  0.32544959677E+03  0.34961188465E+03  0.12509000000E+03 0.  0.
         25    1    4    4    0    0  0.13922792626E+01 -0.96235327627E+02  0.52550621310E+03  0.54869614982E+03  0.12509000000E+03 0.  0.
         25    1    3    3    0    0 -0.18735620520E+02  0.11528080646E+03  0.49673092729E+03  0.52538539191E+03  0.12509000000E+03 0.  0.
<mgrwt>
<rscale>  2 0.45895907E+03</rscale>
<asrwt>0</asrwt>
<pdfrwt beam="1">  1       21 0.20377792E+00 0.45895907E+03</pdfrwt>
<pdfrwt beam="2">  1       21 0.55887281E-02 0.45895907E+03</pdfrwt>
<totfact> 0.24931578E+04</totfact>
</mgrwt>
</event>
<event>
 7    0  0.4793433E-002  0.4476891E+03  0.7546771E-02  0.1028413E+00
         21   -1    0    0  502  501  0.00000000000E+00  0.00000000000E+00  0.39679717584E+02  0.39679717584E+02  0.00000000000E+00 0. -1.
         21   -1    0    0  501  502 -0.00000000000E+00 -0.00000000000E+00 -0.12627703730E+04  0.12627703730E+04  0.00000000000E+00 0. -1.
      99926    2    1    2    0    0  0.00000000000E+00  0.00000000000E+00 -0.12230906554E+04  0.13024500906E+04  0.44768905180E+03 0.  0.
      99925    2    3    3    0    0  0.86078281121E+02  0.50364754533E+02 -0.88054290291E+03  0.92438587670E+03  0.26303491438E+03 0.  0.
         25    1    4    4    0    0  0.13196731222E+02  0.45305310013E+02 -0.48739169925E+03  0.50539578691E+03  0.12509000000E+03 0.  0.
         25    1    3    3    0    0 -0.86078281121E+02 -0.50364754533E+02 -0.34254775251E+03  0.37806421390E+03  0.12509000000E+03 0.  0.
         25    1    4    4    0    0  0.72881549899E+02  0.50594445207E+01 -0.39315120366E+03  0.41899008978E+03  0.12509000000E+03 0.  0.
<mgrwt>
<rscale>  2 0.44768905E+03</rscale>
<asrwt>0</asrwt>
<pdfrwt beam="1">  1       21 0.58352532E-02 0.44768905E+03</pdfrwt>
<pdfrwt beam="2">  1       21 0.18570150E+00 0.44768905E+03</pdfrwt>
<totfact> 0.30755447E+04</totfact>
</mgrwt>
</event>
<event>
 7    0  0.4793433E-002  0.4633425E+03  0.7546771E-02  0.1023816E+00
         21   -1    0    0  502  501  0.00000000000E+00  0.00000000000E+00  0.13438894276E+03  0.13438894276E+03  0.00000000000E+00 0. -1.
         21   -1    0    0  501  502 -0.00000000000E+00 -0.00000000000E+00 -0.39937482568E+03  0.39937482568E+03  0.00000000000E+00 0. -1.
      99926    2    1    2    0    0  0.00000000000E+00 -0.35527136788E-14 -0.26498588291E+03  0.53376376844E+03  0.46334246768E+03 0.  0.
      99925    2    3    3    0    0  0.46176045645E+02 -0.20388446316E+02 -0.39080404790E+02  0.27065027756E+03  0.26301402771E+03 0.  0.
         25    1    4    4    0    0  0.36223505588E+01 -0.28310102053E+02 -0.50291776370E+02  0.13780912224E+03  0.12509000000E+03 0.  0.
         25    1    3    3    0    0 -0.46176045645E+02  0.20388446316E+02 -0.22590547812E+03  0.26311349088E+03  0.12509000000E+03 0.  0.
         25    1    4    4    0    0  0.42553695086E+02  0.79216557368E+01  0.11211371580E+02  0.13284115532E+03  0.12509000000E+03 0.  0.
<mgrwt>
<rscale>  2 0.46334247E+03</rscale>
<asrwt>0</asrwt>
<pdfrwt beam="1">  1       21 0.19763080E-01 0.46334247E+03</pdfrwt>
<pdfrwt beam="2">  1       21 0.58731593E-01 0.46334247E+03</pdfrwt>
<totfact> 0.58956448E+04</totfact>
</mgrwt>
</event>
<event>
 7    0  0.4793433E-002  0.4464290E+03  0.7546771E-02  0.1028792E+00
         21   -1    0    0  502  501  0.00000000000E+00  0.00000000000E+00  0.17398032926E+03  0.17398032926E+03  0.00000000000E+00 0.  1.
         21   -1    0    0  501  502 -0.00000000000E+00 -0.00000000000E+00 -0.28638124305E+03  0.28638124305E+03  0.00000000000E+00 0.  1.
      99926    2    1    2    0    0  0.00000000000E+00  0.00000000000E+00 -0.11240091379E+03  0.46036157231E+03  0.44642895498E+03 0.  0.
      99925    2    3    3    0    0  0.89789610950E+02 -0.53401690290E+02 -0.60178343506E+02  0.28922239005E+03  0.26289587885E+03 0.  0.
         25    1    3    3    0    0 -0.89789610950E+02  0.53401690290E+02 -0.52222570279E+02  0.17113918227E+03  0.12509000000E+03 0.  0.
         25    1    4    4    0    0  0.48814312138E+02  0.22175252996E+01 -0.58058757680E+02  0.14630817452E+03  0.12509000000E+03 0.  0.
         25    1    4    4    0    0  0.40975298813E+02 -0.55619215589E+02 -0.21195858267E+01  0.14291421553E+03  0.12509000000E+03 0.  0.
<mgrwt>
<rscale>  2 0.44642895E+03</rscale>
<asrwt>0</asrwt>
<pdfrwt beam="1">  1       21 0.25585343E-01 0.44642895E+03</pdfrwt>
<pdfrwt beam="2">  1       21 0.42114888E-01 0.44642895E+03</pdfrwt>
<totfact> 0.72997556E+04</totfact>
</mgrwt>
</event>
<event>
 7    0  0.4793433E-002  0.4189594E+03  0.7546771E-02  0.1037406E+00
         21   -1    0    0  502  501  0.00000000000E+00  0.00000000000E+00  0.45034911526E+02  0.45034911526E+02  0.00000000000E+00 0. -1.
         21   -1    0    0  501  502 -0.00000000000E+00 -0.00000000000E+00 -0.97439405075E+03  0.97439405075E+03  0.00000000000E+00 0. -1.
      99926    2    1    2    0    0  0.00000000000E+00  0.00000000000E+00 -0.92935913922E+03  0.10194289623E+04  0.41895942461E+03 0.  0.
      99925    2    3    3    0    0  0.56578028381E+02 -0.47953059985E+02 -0.59001580390E+03  0.65023798651E+03  0.26304034100E+03 0.  0.
         25    1    4    4    0    0  0.66395539302E+02 -0.18092864832E+02 -0.27530439446E+03  0.31012213257E+03  0.12509000000E+03 0.  0.
         25    1    4    4    0    0 -0.98175109212E+01 -0.29860195153E+02 -0.31471140943E+03  0.34011585394E+03  0.12509000000E+03 0.  0.
         25    1    3    3    0    0 -0.56578028381E+02  0.47953059985E+02 -0.33934333533E+03  0.36919097577E+03  0.12509000000E+03 0.  0.
<mgrwt>
<rscale>  2 0.41895942E+03</rscale>
<asrwt>0</asrwt>
<pdfrwt beam="1">  1       21 0.66227816E-02 0.41895942E+03</pdfrwt>
<pdfrwt beam="2">  1       21 0.14329323E+00 0.41895942E+03</pdfrwt>
<totfact> 0.51440914E+04</totfact>
</mgrwt>
</event>
<event>
 7    0  0.4793433E-002  0.4525009E+03  0.7546771E-02  0.1026979E+00
         21   -1    0    0  502  501  0.00000000000E+00  0.00000000000E+00  0.10743614869E+03  0.10743614869E+03  0.00000000000E+00 0.  1.
         21   -1    0    0  501  502 -0.00000000000E+00 -0.00000000000E+00 -0.47646228841E+03  0.47646228841E+03  0.00000000000E+00 0.  1.
      99926    2    1    2    0    0  0.00000000000E+00 -0.14210854715E-13 -0.36902613972E+03  0.58389843710E+03  0.45250093155E+03 0.  0.
      99925    2    3    3    0    0  0.62577133916E+02  0.73177775282E+02 -0.30358981538E+03  0.41301746938E+03  0.26295583190E+03 0.  0.
         25    1    4    4    0    0  0.45711981221E+02  0.18796352659E+02 -0.19952797640E+03  0.24062794844E+03  0.12509000000E+03 0.  0.
         25    1    4    4    0    0  0.16865152695E+02  0.54381422623E+02 -0.10406183898E+03  0.17238952095E+03  0.12509000000E+03 0.  0.
         25    1    3    3    0    0 -0.62577133916E+02 -0.73177775282E+02 -0.65436324339E+02  0.17088096772E+03  0.12509000000E+03 0.  0.
<mgrwt>
<rscale>  2 0.45250093E+03</rscale>
<asrwt>0</asrwt>
<pdfrwt beam="1">  1       21 0.15799434E-01 0.45250093E+03</pdfrwt>
<pdfrwt beam="2">  1       21 0.70067984E-01 0.45250093E+03</pdfrwt>
<totfact> 0.60874130E+04</totfact>
</mgrwt>
</event>
<event>
 7    0  0.4793433E-002  0.4553618E+03  0.7546771E-02  0.1026135E+00
         21   -1    0    0  502  501  0.00000000000E+00  0.00000000000E+00  0.21812715677E+03  0.21812715677E+03  0.00000000000E+00 0.  1.
         21   -1    0    0  501  502 -0.00000000000E+00 -0.00000000000E+00 -0.23765309948E+03  0.23765309948E+03  0.00000000000E+00 0.  1.
      99926    2    1    2    0    0  0.00000000000E+00  0.35527136788E-14 -0.19525942704E+02  0.45578025625E+03  0.45536181169E+03 0.  0.
      99925    2    3    3    0    0  0.10878164754E+03 -0.31336326390E+02 -0.22264203574E+02  0.28704846207E+03  0.26284161129E+03 0.  0.
         25    1    4    4    0    0  0.64523178626E+02  0.22614361611E+02 -0.36117913228E+01  0.14260155352E+03  0.12509000000E+03 0.  0.
         25    1    4    4    0    0  0.44258468913E+02 -0.53950688001E+02 -0.18652412251E+02  0.14444690855E+03  0.12509000000E+03 0.  0.
         25    1    3    3    0    0 -0.10878164754E+03  0.31336326390E+02  0.27382608696E+01  0.16873179418E+03  0.12509000000E+03 0.  0.
<mgrwt>
<rscale>  2 0.45536181E+03</rscale>
<asrwt>0</asrwt>
<pdfrwt beam="1">  1       21 0.32077523E-01 0.45536181E+03</pdfrwt>
<pdfrwt beam="2">  1       21 0.34948985E-01 0.45536181E+03</pdfrwt>
<totfact> 0.68291331E+04</totfact>
</mgrwt>
</event>
<event>
 7    0  0.4793433E-002  0.4590864E+03  0.7546771E-02  0.1025047E+00
         21   -1    0    0  502  501  0.00000000000E+00  0.00000000000E+00  0.16456972931E+03  0.16456972931E+03  0.00000000000E+00 0. -1.
         21   -1    0    0  501  502 -0.00000000000E+00 -0.00000000000E+00 -0.32016874693E+03  0.32016874693E+03  0.00000000000E+00 0. -1.
      99926    2    1    2    0    0  0.71054273576E-14  0.00000000000E+00 -0.15559901762E+03  0.48473847624E+03  0.45908641459E+03 0.  0.
      99925    2    3    3    0    0  0.59455267656E+02  0.78129604534E+02 -0.16509062865E+03  0.32543762019E+03  0.26270813656E+03 0.  0.
         25    1    4    4    0    0 -0.87312527365E+01  0.38964973413E+02 -0.61558198519E+02  0.14502214945E+03  0.12509000000E+03 0.  0.
         25    1    4    4    0    0  0.68186520392E+02  0.39164631121E+02 -0.10353243013E+03  0.18041547074E+03  0.12509000000E+03 0.  0.
         25    1    3    3    0    0 -0.59455267656E+02 -0.78129604534E+02  0.94916110315E+01  0.15930085604E+03  0.12509000000E+03 0.  0.
<mgrwt>
<rscale>  2 0.45908641E+03</rscale>
<asrwt>0</asrwt>
<pdfrwt beam="1">  1       21 0.24201431E-01 0.45908641E+03</pdfrwt>
<pdfrwt beam="2">  1       21 0.47083638E-01 0.45908641E+03</pdfrwt>
<totfact> 0.64247295E+04</totfact>
</mgrwt>
</event>
<event>
 7    0  0.4793433E-002  0.4759755E+03  0.7546771E-02  0.1020247E+00
         21   -1    0    0  502  501  0.00000000000E+00  0.00000000000E+00  0.11119138092E+03  0.11119138092E+03  0.00000000000E+00 0. -1.
         21   -1    0    0  501  502 -0.00000000000E+00 -0.00000000000E+00 -0.50937554870E+03  0.50937554870E+03  0.00000000000E+00 0. -1.
      99926    2    1    2    0    0 -0.71054273576E-14  0.00000000000E+00 -0.39818416778E+03  0.62056692962E+03  0.47597550637E+03 0.  0.
      99925    2    3    3    0    0 -0.36811190520E+02  0.41956937714E+02 -0.90382533918E+02  0.28366219193E+03  0.26302050932E+03 0.  0.
         25    1    4    4    0    0 -0.37240314607E+02 -0.14610850979E+02 -0.37954976224E+02  0.13670554604E+03  0.12509000000E+03 0.  0.
         25    1    3    3    0    0  0.36811190520E+02 -0.41956937714E+02 -0.30780163386E+03  0.33690473769E+03  0.12509000000E+03 0.  0.
         25    1    4    4    0    0  0.42912408724E+00  0.56567788693E+02 -0.52427557695E+02  0.14695664589E+03  0.12509000000E+03 0.  0.
<mgrwt>
<rscale>  2 0.47597551E+03</rscale>
<asrwt>0</asrwt>
<pdfrwt beam="1">  1       21 0.16351674E-01 0.47597551E+03</pdfrwt>
<pdfrwt beam="2">  1       21 0.74908168E-01 0.47597551E+03</pdfrwt>
<totfact> 0.48825036E+04</totfact>
</mgrwt>
</event>
<event>
 7    0  0.4793433E-002  0.4521656E+03  0.7546771E-02  0.1027078E+00
         21   -1    0    0  502  501  0.00000000000E+00  0.00000000000E+00  0.10937684480E+03  0.10937684480E+03  0.00000000000E+00 0.  1.
         21   -1    0    0  501  502 -0.00000000000E+00 -0.00000000000E+00 -0.46731489882E+03  0.46731489882E+03  0.00000000000E+00 0.  1.
      99926    2    1    2    0    0  0.14210854715E-13 -0.71054273576E-14 -0.35793805402E+03  0.57669174362E+03  0.45216558543E+03 0.  0.
      99925    2    3    3    0    0 -0.90973573515E+02  0.60587376696E+02 -0.20485489023E+03  0.35079578432E+03  0.26295462527E+03 0.  0.
         25    1    4    4    0    0 -0.86169706496E+02  0.44353077219E+02 -0.10598077853E+03  0.19045169281E+03  0.12509000000E+03 0.  0.
         25    1    3    3    0    0  0.90973573515E+02 -0.60587376696E+02 -0.15308316379E+03  0.22589595930E+03  0.12509000000E+03 0.  0.
         25    1    4    4    0    0 -0.48038670192E+01  0.16234299478E+02 -0.98874111703E+02  0.16034409151E+03  0.12509000000E+03 0.  0.
<mgrwt>
<rscale>  2 0.45216559E+03</rscale>
<asrwt>0</asrwt>
<pdfrwt beam="1">  1       21 0.16084831E-01 0.45216559E+03</pdfrwt>
<pdfrwt beam="2">  1       21 0.68722777E-01 0.45216559E+03</pdfrwt>
<totfact> 0.61503121E+04</totfact>
</mgrwt>
</event>
<event>
 7    0  0.4793433E-002  0.4495780E+03  0.7546771E-02  0.1027848E+00
         21   -1    0    0  502  501  0.00000000000E+00  0.00000000000E+00  0.46064207753E+03  0.46064207753E+03  0.00000000000E+00 0. -1.
         21   -1    0    0  501  502 -0.00000000000E+00 -0.00000000000E+00 -0.10969491105E+03  0.10969491105E+03  0.00000000000E+00 0. -1.
      99926    2    1    2    0    0  0.00000000000E+00  0.00000000000E+00  0.35094716648E+03  0.57033698858E+03  0.44957798755E+03 0.  0.
      99925    2    3    3    0    0  0.88074463799E+02 -0.28351810112E+02  0.15145383802E+03  0.31734285326E+03  0.26307277539E+03 0.  0.
         25    1    4    4    0    0  0.13655281695E+02 -0.83695415782E+01  0.37982772678E+02  0.13170692869E+03  0.12509000000E+03 0.  0.
         25    1    3    3    0    0 -0.88074463799E+02  0.28351810112E+02  0.19949332846E+03  0.25299413533E+03  0.12509000000E+03 0.  0.
         25    1    4    4    0    0  0.74419182104E+02 -0.19982268534E+02  0.11347106534E+03  0.18563592457E+03  0.12509000000E+03 0.  0.
<mgrwt>
<rscale>  2 0.44957799E+03</rscale>
<asrwt>0</asrwt>
<pdfrwt beam="1">  1       21 0.67741481E-01 0.44957799E+03</pdfrwt>
<pdfrwt beam="2">  1       21 0.16131605E-01 0.44957799E+03</pdfrwt>
<totfact> 0.63209125E+04</totfact>
</mgrwt>
</event>
<event>
 7    0  0.4793433E-002  0.4283577E+03  0.7546771E-02  0.1034380E+00
         21   -1    0    0  502  501  0.00000000000E+00  0.00000000000E+00  0.33419509988E+03  0.33419509988E+03  0.00000000000E+00 0. -1.
         21   -1    0    0  501  502 -0.00000000000E+00 -0.00000000000E+00 -0.13726286933E+03  0.13726286933E+03  0.00000000000E+00 0. -1.
      99926    2    1    2    0    0 -0.35527136788E-14  0.00000000000E+00  0.19693223054E+03  0.47145796921E+03  0.42835769318E+03 0.  0.
      99925    2    3    3    0    0  0.17264173878E+02  0.63324484460E+02  0.66331392008E+02  0.27907260293E+03  0.26300878713E+03 0.  0.
         25    1    4    4    0    0 -0.64476984260E+01  0.55734331996E+02  0.41021463248E+01  0.13715766214E+03  0.12509000000E+03 0.  0.
         25    1    3    3    0    0 -0.17264173878E+02 -0.63324484460E+02  0.13060083854E+03  0.19238536628E+03  0.12509000000E+03 0.  0.
         25    1    4    4    0    0  0.23711872304E+02  0.75901524645E+01  0.62229245684E+02  0.14191494080E+03  0.12509000000E+03 0.  0.
<mgrwt>
<rscale>  2 0.42835769E+03</rscale>
<asrwt>0</asrwt>
<pdfrwt beam="1">  1       21 0.49146338E-01 0.42835769E+03</pdfrwt>
<pdfrwt beam="2">  1       21 0.20185716E-01 0.42835769E+03</pdfrwt>
<totfact> 0.83671316E+04</totfact>
</mgrwt>
</event>
<event>
 7    0  0.4793433E-002  0.4448539E+03  0.7546771E-02  0.1029268E+00
         21   -1    0    0  502  501  0.00000000000E+00  0.00000000000E+00  0.11815286131E+03  0.11815286131E+03  0.00000000000E+00 0. -1.
         21   -1    0    0  501  502 -0.00000000000E+00 -0.00000000000E+00 -0.41872661754E+03  0.41872661754E+03  0.00000000000E+00 0. -1.
      99926    2    1    2    0    0  0.00000000000E+00  0.00000000000E+00 -0.30057375623E+03  0.53687947884E+03  0.44485389946E+03 0.  0.
      99925    2    3    3    0    0  0.89124192015E+01  0.41622814375E+02 -0.30462727380E+03  0.40468330266E+03  0.26298081607E+03 0.  0.
         25    1    3    3    0    0 -0.89124192015E+01 -0.41622814375E+02  0.40535175625E+01  0.13219617618E+03  0.12509000000E+03 0.  0.
         25    1    4    4    0    0  0.32168243875E+02  0.41068658140E+02 -0.19029640658E+03  0.23362718389E+03  0.12509000000E+03 0.  0.
         25    1    4    4    0    0 -0.23255824674E+02  0.55415623469E+00 -0.11433086721E+03  0.17105611877E+03  0.12509000000E+03 0.  0.
<mgrwt>
<rscale>  2 0.44485390E+03</rscale>
<asrwt>0</asrwt>
<pdfrwt beam="1">  1       21 0.17375421E-01 0.44485390E+03</pdfrwt>
<pdfrwt beam="2">  1       21 0.61577445E-01 0.44485390E+03</pdfrwt>
<totfact> 0.68043465E+04</totfact>
</mgrwt>
</event>
<event>
 7    0  0.4793433E-002  0.4445079E+03  0.7546771E-02  0.1029373E+00
         21   -1    0    0  502  501  0.00000000000E+00  0.00000000000E+00  0.38015457162E+03  0.38015457162E+03  0.00000000000E+00 0. -1.
         21   -1    0    0  501  502 -0.00000000000E+00 -0.00000000000E+00 -0.12993879604E+03  0.12993879604E+03  0.00000000000E+00 0. -1.
      99926    2    1    2    0    0 -0.17763568394E-14  0.00000000000E+00  0.25021577558E+03  0.51009336765E+03  0.44450794073E+03 0.  0.
      99925    2    3    3    0    0  0.13994119251E+02 -0.74628776367E+02  0.79077123251E+02  0.28492401793E+03  0.26298900155E+03 0.  0.
         25    1    4    4    0    0 -0.12956998127E+02 -0.28452711970E+02  0.74277597125E+02  0.14880225184E+03  0.12509000000E+03 0.  0.
         25    1    3    3    0    0 -0.13994119251E+02  0.74628776367E+02  0.17113865233E+03  0.22516934972E+03  0.12509000000E+03 0.  0.
         25    1    4    4    0    0  0.26951117378E+02 -0.46176064397E+02  0.47995261256E+01  0.13612176609E+03  0.12509000000E+03 0.  0.
<mgrwt>
<rscale>  2 0.44450794E+03</rscale>
<asrwt>0</asrwt>
<pdfrwt beam="1">  1       21 0.55905084E-01 0.44450794E+03</pdfrwt>
<pdfrwt beam="2">  1       21 0.19108647E-01 0.44450794E+03</pdfrwt>
<totfact> 0.70234779E+04</totfact>
</mgrwt>
</event>
<event>
 7    0  0.4793433E-002  0.4459195E+03  0.7546771E-02  0.1028946E+00
         21   -1    0    0  502  501  0.00000000000E+00  0.00000000000E+00  0.54368558472E+02  0.54368558472E+02  0.00000000000E+00 0.  1.
         21   -1    0    0  501  502 -0.00000000000E+00 -0.00000000000E+00 -0.91433465085E+03  0.91433465085E+03  0.00000000000E+00 0.  1.
      99926    2    1    2    0    0  0.22204460493E-14  0.00000000000E+00 -0.85996609238E+03  0.96870320932E+03  0.44591953053E+03 0.  0.
      99925    2    3    3    0    0 -0.38785380009E+01  0.93566707992E+02 -0.64627441201E+03  0.70397426444E+03  0.26294367737E+03 0.  0.
         25    1    4    4    0    0 -0.35394381183E+02  0.36266452352E+02 -0.26455706714E+03  0.29699489500E+03  0.12509000000E+03 0.  0.
         25    1    4    4    0    0  0.31515843182E+02  0.57300255640E+02 -0.38171734488E+03  0.40697936944E+03  0.12509000000E+03 0.  0.
         25    1    3    3    0    0  0.38785380009E+01 -0.93566707992E+02 -0.21369168037E+03  0.26472894488E+03  0.12509000000E+03 0.  0.
<mgrwt>
<rscale>  2 0.44591953E+03</rscale>
<asrwt>0</asrwt>
<pdfrwt beam="1">  1       21 0.79953766E-02 0.44591953E+03</pdfrwt>
<pdfrwt beam="2">  1       21 0.13446097E+00 0.44591953E+03</pdfrwt>
<totfact> 0.43392128E+04</totfact>
</mgrwt>
</event>
<event>
 7    0  0.4793433E-002  0.4510169E+03  0.7546771E-02  0.1027419E+00
         21   -1    0    0  502  501  0.00000000000E+00  0.00000000000E+00  0.13771495838E+04  0.13771495838E+04  0.00000000000E+00 0.  1.
         21   -1    0    0  501  502 -0.00000000000E+00 -0.00000000000E+00 -0.36927037499E+02  0.36927037499E+02  0.00000000000E+00 0.  1.
      99926    2    1    2    0    0  0.00000000000E+00 -0.71054273576E-14  0.13402225463E+04  0.14140766213E+04  0.45101687030E+03 0.  0.
      99925    2    3    3    0    0  0.98608386664E+02 -0.38174979600E+02  0.93311866087E+03  0.97525772401E+03  0.26312782063E+03 0.  0.
         25    1    4    4    0    0  0.72669249171E+02  0.14075150993E+02  0.49720874853E+03  0.51801831759E+03  0.12509000000E+03 0.  0.
         25    1    4    4    0    0  0.25939137493E+02 -0.52250130593E+02  0.43590991235E+03  0.45723940642E+03  0.12509000000E+03 0.  0.
         25    1    3    3    0    0 -0.98608386664E+02  0.38174979600E+02  0.40710388546E+03  0.43881889732E+03  0.12509000000E+03 0.  0.
<mgrwt>
<rscale>  2 0.45101687E+03</rscale>
<asrwt>0</asrwt>
<pdfrwt beam="1">  1       21 0.20252196E+00 0.45101687E+03</pdfrwt>
<pdfrwt beam="2">  1       21 0.54304476E-02 0.45101687E+03</pdfrwt>
<totfact> 0.26778609E+04</totfact>
</mgrwt>
</event>
<event>
 7    0  0.4793433E-002  0.4524841E+03  0.7546771E-02  0.1026984E+00
         21   -1    0    0  502  501  0.00000000000E+00  0.00000000000E+00  0.14948720908E+03  0.14948720908E+03  0.00000000000E+00 0. -1.
         21   -1    0    0  501  502 -0.00000000000E+00 -0.00000000000E+00 -0.34240701754E+03  0.34240701754E+03  0.00000000000E+00 0. -1.
      99926    2    1    2    0    0  0.17763568394E-14  0.00000000000E+00 -0.19291980846E+03  0.49189422662E+03  0.45248411871E+03 0.  0.
      99925    2    3    3    0    0  0.62118046488E+01 -0.76385487151E+02 -0.34699347430E+02  0.27612918878E+03  0.26300181562E+03 0.  0.
         25    1    4    4    0    0 -0.12908713449E+02 -0.49829319026E+02 -0.53514752808E+02  0.14546797856E+03  0.12509000000E+03 0.  0.
         25    1    4    4    0    0  0.19120518098E+02 -0.26556168125E+02  0.18815405378E+02  0.13066121022E+03  0.12509000000E+03 0.  0.
         25    1    3    3    0    0 -0.62118046488E+01  0.76385487151E+02 -0.15822046103E+03  0.21576503784E+03  0.12509000000E+03 0.  0.
<mgrwt>
<rscale>  2 0.45248412E+03</rscale>
<asrwt>0</asrwt>
<pdfrwt beam="1">  1       21 0.21983413E-01 0.45248412E+03</pdfrwt>
<pdfrwt beam="2">  1       21 0.50353973E-01 0.45248412E+03</pdfrwt>
<totfact> 0.67175630E+04</totfact>
</mgrwt>
</event>
<event>
 7    0  0.4793433E-002  0.4504252E+03  0.7546771E-02  0.1027595E+00
         21   -1    0    0  502  501  0.00000000000E+00  0.00000000000E+00  0.70583020914E+02  0.70583020914E+02  0.00000000000E+00 0.  1.
         21   -1    0    0  501  502 -0.00000000000E+00 -0.00000000000E+00 -0.71859641968E+03  0.71859641968E+03  0.00000000000E+00 0.  1.
      99926    2    1    2    0    0  0.14210854715E-13  0.00000000000E+00 -0.64801339877E+03  0.78917944060E+03  0.45042515968E+03 0.  0.
      99925    2    3    3    0    0 -0.81656889260E+02  0.71110351267E+02 -0.38979568584E+03  0.48250628397E+03  0.26295837647E+03 0.  0.
         25    1    4    4    0    0 -0.61071678386E+02  0.11249148417E+02 -0.23741649645E+03  0.27544580978E+03  0.12509000000E+03 0.  0.
         25    1    4    4    0    0 -0.20585210874E+02  0.59861202850E+02 -0.15237918939E+03  0.20706047419E+03  0.12509000000E+03 0.  0.
         25    1    3    3    0    0  0.81656889260E+02 -0.71110351267E+02 -0.25821771293E+03  0.30667315662E+03  0.12509000000E+03 0.  0.
<mgrwt>
<rscale>  2 0.45042516E+03</rscale>
<asrwt>0</asrwt>
<pdfrwt beam="1">  1       21 0.10379856E-01 0.45042516E+03</pdfrwt>
<pdfrwt beam="2">  1       21 0.10567595E+00 0.45042516E+03</pdfrwt>
<totfact> 0.50066274E+04</totfact>
</mgrwt>
</event>
<event>
 7    0  0.4793433E-002  0.4599470E+03  0.7546771E-02  0.1024797E+00
         21   -1    0    0  502  501  0.00000000000E+00  0.00000000000E+00  0.20162374123E+04  0.20162374123E+04  0.00000000000E+00 0.  1.
         21   -1    0    0  501  502 -0.00000000000E+00 -0.00000000000E+00 -0.26230944055E+02  0.26230944055E+02  0.00000000000E+00 0.  1.
      99926    2    1    2    0    0  0.00000000000E+00  0.88817841970E-15  0.19900064683E+04  0.20424683564E+04  0.45994700027E+03 0.  0.
      99925    2    3    3    0    0  0.11481049257E+03 -0.72860686420E+01  0.11311246245E+04  0.11669341962E+04  0.26278882413E+03 0.  0.
         25    1    4    4    0    0  0.71222418002E+02 -0.14360715205E+02  0.43926210542E+03  0.46246899175E+03  0.12509000000E+03 0.  0.
         25    1    4    4    0    0  0.43588074571E+02  0.70746465625E+01  0.69186251909E+03  0.70446520445E+03  0.12509000000E+03 0.  0.
         25    1    3    3    0    0 -0.11481049257E+03  0.72860686420E+01  0.85888184378E+03  0.87553416020E+03  0.12509000000E+03 0.  0.
<mgrwt>
<rscale>  2 0.45994700E+03</rscale>
<asrwt>0</asrwt>
<pdfrwt beam="1">  1       21 0.29650540E+00 0.45994700E+03</pdfrwt>
<pdfrwt beam="2">  1       21 0.38574931E-02 0.45994700E+03</pdfrwt>
<totfact> 0.12540179E+04</totfact>
</mgrwt>
</event>
<event>
 7    0  0.4793433E-002  0.4559739E+03  0.7546771E-02  0.1025955E+00
         21   -1    0    0  502  501  0.00000000000E+00  0.00000000000E+00  0.29129156120E+03  0.29129156120E+03  0.00000000000E+00 0. -1.
         21   -1    0    0  501  502 -0.00000000000E+00 -0.00000000000E+00 -0.17843990881E+03  0.17843990881E+03  0.00000000000E+00 0. -1.
      99926    2    1    2    0    0  0.00000000000E+00  0.14210854715E-13  0.11285165239E+03  0.46973147001E+03  0.45597385723E+03 0.  0.
      99925    2    3    3    0    0  0.70717113487E+02 -0.83877722899E+02  0.38788436439E+02  0.28760719762E+03  0.26301516075E+03 0.  0.
         25    1    3    3    0    0 -0.70717113487E+02  0.83877722899E+02  0.74063215947E+02  0.18212427239E+03  0.12509000000E+03 0.  0.
         25    1    4    4    0    0  0.42702845434E+02 -0.22080278296E+01  0.28717062561E+02  0.13527965914E+03  0.12509000000E+03 0.  0.
         25    1    4    4    0    0  0.28014268053E+02 -0.81669695070E+02  0.10071373878E+02  0.15232753848E+03  0.12509000000E+03 0.  0.
<mgrwt>
<rscale>  2 0.45597386E+03</rscale>
<asrwt>0</asrwt>
<pdfrwt beam="1">  1       21 0.42836995E-01 0.45597386E+03</pdfrwt>
<pdfrwt beam="2">  1       21 0.26241163E-01 0.45597386E+03</pdfrwt>
<totfact> 0.66937128E+04</totfact>
</mgrwt>
</event>
<event>
 7    0  0.4793433E-002  0.4479294E+03  0.7546771E-02  0.1028341E+00
         21   -1    0    0  502  501  0.00000000000E+00  0.00000000000E+00  0.39041329315E+02  0.39041329315E+02  0.00000000000E+00 0. -1.
         21   -1    0    0  501  502 -0.00000000000E+00 -0.00000000000E+00 -0.12847972026E+04  0.12847972026E+04  0.00000000000E+00 0. -1.
      99926    2    1    2    0    0 -0.71054273576E-14  0.00000000000E+00 -0.12457558732E+04  0.13238385319E+04  0.44792941716E+03 0.  0.
      99925    2    3    3    0    0  0.50368244304E+02  0.11548579160E+02 -0.10644301764E+04  0.10975713311E+04  0.26264214567E+03 0.  0.
         25    1    4    4    0    0 -0.79803157116E+01  0.26503513369E+02 -0.47063120958E+03  0.48775748605E+03  0.12509000000E+03 0.  0.
         25    1    3    3    0    0 -0.50368244304E+02 -0.11548579160E+02 -0.18132569684E+03  0.22626720078E+03  0.12509000000E+03 0.  0.
         25    1    4    4    0    0  0.58348560015E+02 -0.14954934209E+02 -0.59379896683E+03  0.60981384505E+03  0.12509000000E+03 0.  0.
<mgrwt>
<rscale>  2 0.44792942E+03</rscale>
<asrwt>0</asrwt>
<pdfrwt beam="1">  1       21 0.57413719E-02 0.44792942E+03</pdfrwt>
<pdfrwt beam="2">  1       21 0.18894077E+00 0.44792942E+03</pdfrwt>
<totfact> 0.30048595E+04</totfact>
</mgrwt>
</event>
<event>
 7    0  0.4793433E-002  0.4483037E+03  0.7546771E-02  0.1028229E+00
         21   -1    0    0  502  501  0.00000000000E+00  0.00000000000E+00  0.47958939010E+03  0.47958939010E+03  0.00000000000E+00 0.  1.
         21   -1    0    0  501  502 -0.00000000000E+00 -0.00000000000E+00 -0.10476471859E+03  0.10476471859E+03  0.00000000000E+00 0.  1.
      99926    2    1    2    0    0  0.00000000000E+00  0.00000000000E+00  0.37482467151E+03  0.58435410870E+03  0.44830368053E+03 0.  0.
      99925    2    3    3    0    0  0.96400922736E+02  0.44801078722E+02  0.22351298156E+03  0.36109862685E+03  0.26293324405E+03 0.  0.
         25    1    4    4    0    0  0.16264838753E+02  0.16207262686E+01  0.12556959584E+03  0.17799551464E+03  0.12509000000E+03 0.  0.
         25    1    4    4    0    0  0.80136083983E+02  0.43180352454E+02  0.97943385724E+02  0.18310311221E+03  0.12509000000E+03 0.  0.
         25    1    3    3    0    0 -0.96400922736E+02 -0.44801078722E+02  0.15131168995E+03  0.22325548185E+03  0.12509000000E+03 0.  0.
<mgrwt>
<rscale>  2 0.44830368E+03</rscale>
<asrwt>0</asrwt>
<pdfrwt beam="1">  1       21 0.70527851E-01 0.44830368E+03</pdfrwt>
<pdfrwt beam="2">  1       21 0.15406576E-01 0.44830368E+03</pdfrwt>
<totfact> 0.62916515E+04</totfact>
</mgrwt>
</event>
<event>
 7    0  0.4793433E-002  0.4564080E+03  0.7546771E-02  0.1025828E+00
         21   -1    0    0  502  501  0.00000000000E+00  0.00000000000E+00  0.45137776509E+03  0.45137776509E+03  0.00000000000E+00 0.  1.
         21   -1    0    0  501  502 -0.00000000000E+00 -0.00000000000E+00 -0.11537356413E+03  0.11537356413E+03  0.00000000000E+00 0.  1.
      99926    2    1    2    0    0  0.14210854715E-13  0.00000000000E+00  0.33600420096E+03  0.56675132922E+03  0.45640798209E+03 0.  0.
      99925    2    3    3    0    0  0.88151360124E+02 -0.23778403365E+02  0.29709810693E+03  0.40707269255E+03  0.26287795100E+03 0.  0.
         25    1    4    4    0    0  0.43170398558E+02  0.84369437917E+01  0.19745754732E+03  0.23784838958E+03  0.12509000000E+03 0.  0.
         25    1    3    3    0    0 -0.88151360124E+02  0.23778403365E+02  0.38906094031E+02  0.15967863668E+03  0.12509000000E+03 0.  0.
         25    1    4    4    0    0  0.44980961566E+02 -0.32215347157E+02  0.99640559603E+02  0.16922430296E+03  0.12509000000E+03 0.  0.
<mgrwt>
<rscale>  2 0.45640798E+03</rscale>
<asrwt>0</asrwt>
<pdfrwt beam="1">  1       21 0.66379083E-01 0.45640798E+03</pdfrwt>
<pdfrwt beam="2">  1       21 0.16966701E-01 0.45640798E+03</pdfrwt>
<totfact> 0.60100926E+04</totfact>
</mgrwt>
</event>
<event>
 7    0  0.4793433E-002  0.4807925E+03  0.7546771E-02  0.1018918E+00
         21   -1    0    0  502  501  0.00000000000E+00  0.00000000000E+00  0.39752059601E+03  0.39752059601E+03  0.00000000000E+00 0.  1.
         21   -1    0    0  501  502 -0.00000000000E+00 -0.00000000000E+00 -0.14537700127E+03  0.14537700127E+03  0.00000000000E+00 0.  1.
      99926    2    1    2    0    0  0.35527136788E-14  0.00000000000E+00  0.25214359474E+03  0.54289759728E+03  0.48079247993E+03 0.  0.
      99925    2    3    3    0    0  0.21197237360E+02  0.80301678456E+02  0.33730454294E+02  0.27785139290E+03  0.26299424054E+03 0.  0.
         25    1    4    4    0    0  0.19816964342E+02  0.62509203946E+02  0.51331344405E+02  0.15027484045E+03  0.12509000000E+03 0.  0.
         25    1    3    3    0    0 -0.21197237360E+02 -0.80301678456E+02  0.21841314045E+03  0.26504620438E+03  0.12509000000E+03 0.  0.
         25    1    4    4    0    0  0.13802730178E+01  0.17792474510E+02 -0.17600890111E+02  0.12757655245E+03  0.12509000000E+03 0.  0.
<mgrwt>
<rscale>  2 0.48079248E+03</rscale>
<asrwt>0</asrwt>
<pdfrwt beam="1">  1       21 0.58458911E-01 0.48079248E+03</pdfrwt>
<pdfrwt beam="2">  1       21 0.21378971E-01 0.48079248E+03</pdfrwt>
<totfact> 0.51073608E+04</totfact>
</mgrwt>
</event>
<event>
 7    0  0.4793433E-002  0.4564600E+03  0.7546771E-02  0.1025813E+00
         21   -1    0    0  502  501  0.00000000000E+00  0.00000000000E+00  0.38422575438E+03  0.38422575438E+03  0.00000000000E+00 0.  1.
         21   -1    0    0  501  502 -0.00000000000E+00 -0.00000000000E+00 -0.13556854537E+03  0.13556854537E+03  0.00000000000E+00 0.  1.
      99926    2    1    2    0    0  0.00000000000E+00  0.00000000000E+00  0.24865720901E+03  0.51979429975E+03  0.45645997247E+03 0.  0.
      99925    2    3    3    0    0  0.76151931168E+02  0.81943329948E+01  0.59366246754E+02  0.28032647268E+03  0.26304432386E+03 0.  0.
         25    1    3    3    0    0 -0.76151931168E+02 -0.81943329948E+01  0.18929096225E+03  0.23946782708E+03  0.12509000000E+03 0.  0.
         25    1    4    4    0    0  0.45491269549E+02 -0.23499598336E+02  0.59527269503E+02  0.14769120028E+03  0.12509000000E+03 0.  0.
         25    1    4    4    0    0  0.30660661619E+02  0.31693931331E+02 -0.16102274851E+00  0.13263527239E+03  0.12509000000E+03 0.  0.
<mgrwt>
<rscale>  2 0.45645997E+03</rscale>
<asrwt>0</asrwt>
<pdfrwt beam="1">  1       21 0.56503787E-01 0.45645997E+03</pdfrwt>
<pdfrwt beam="2">  1       21 0.19936551E-01 0.45645997E+03</pdfrwt>
<totfact> 0.63166420E+04</totfact>
</mgrwt>
</event>
<event>
 7    0  0.4793433E-002  0.4540218E+03  0.7546771E-02  0.1026529E+00
         21   -1    0    0  502  501  0.00000000000E+00  0.00000000000E+00  0.20044156836E+03  0.20044156836E+03  0.00000000000E+00 0. -1.
         21   -1    0    0  501  502 -0.00000000000E+00 -0.00000000000E+00 -0.25710213626E+03  0.25710213626E+03  0.00000000000E+00 0. -1.
      99926    2    1    2    0    0 -0.71054273576E-14  0.00000000000E+00 -0.56660567899E+02  0.45754370462E+03  0.45402182952E+03 0.  0.
      99925    2    3    3    0    0 -0.51232291380E+02 -0.47314685448E+02  0.52964908718E+02  0.27718661337E+03  0.26298994266E+03 0.  0.
         25    1    4    4    0    0 -0.66323380067E+02 -0.23109860083E+02  0.21248828815E+02  0.14502371255E+03  0.12509000000E+03 0.  0.
         25    1    4    4    0    0  0.15091088687E+02 -0.24204825365E+02  0.31716079903E+02  0.13216290082E+03  0.12509000000E+03 0.  0.
         25    1    3    3    0    0  0.51232291380E+02  0.47314685448E+02 -0.10962547662E+03  0.18035709125E+03  0.12509000000E+03 0.  0.
<mgrwt>
<rscale>  2 0.45402183E+03</rscale>
<asrwt>0</asrwt>
<pdfrwt beam="1">  1       21 0.29476701E-01 0.45402183E+03</pdfrwt>
<pdfrwt beam="2">  1       21 0.37809137E-01 0.45402183E+03</pdfrwt>
<totfact> 0.68895791E+04</totfact>
</mgrwt>
</event>
<event>
 7    0  0.4793433E-002  0.4882176E+03  0.7546771E-02  0.1016901E+00
         21   -1    0    0  502  501  0.00000000000E+00  0.00000000000E+00  0.26558376326E+03  0.26558376326E+03  0.00000000000E+00 0.  1.
         21   -1    0    0  501  502 -0.00000000000E+00 -0.00000000000E+00 -0.22437030434E+03  0.22437030434E+03  0.00000000000E+00 0.  1.
      99926    2    1    2    0    0  0.00000000000E+00 -0.35527136788E-14  0.41213458923E+02  0.48995406760E+03  0.48821761455E+03 0.  0.
      99925    2    3    3    0    0 -0.13254150295E+03 -0.10554657886E+02 -0.25003488002E+02  0.29576126915E+03  0.26300361805E+03 0.  0.
         25    1    4    4    0    0 -0.31257095889E+02  0.92463688528E+01  0.10704062283E+02  0.12970962350E+03  0.12509000000E+03 0.  0.
         25    1    3    3    0    0  0.13254150295E+03  0.10554657886E+02  0.66216946924E+02  0.19419279845E+03  0.12509000000E+03 0.  0.
         25    1    4    4    0    0 -0.10128440707E+03 -0.19801026739E+02 -0.35707550285E+02  0.16605164565E+03  0.12509000000E+03 0.  0.
<mgrwt>
<rscale>  2 0.48821761E+03</rscale>
<asrwt>0</asrwt>
<pdfrwt beam="1">  1       21 0.39056436E-01 0.48821761E+03</pdfrwt>
<pdfrwt beam="2">  1       21 0.32995633E-01 0.48821761E+03</pdfrwt>
<totfact> 0.51108406E+04</totfact>
</mgrwt>
</event>
<event>
 7    0  0.4793433E-002  0.4531888E+03  0.7546771E-02  0.1026775E+00
         21   -1    0    0  502  501  0.00000000000E+00  0.00000000000E+00  0.12265593917E+03  0.12265593917E+03  0.00000000000E+00 0. -1.
         21   -1    0    0  501  502 -0.00000000000E+00 -0.00000000000E+00 -0.41861009038E+03  0.41861009038E+03  0.00000000000E+00 0. -1.
      99926    2    1    2    0    0  0.00000000000E+00  0.00000000000E+00 -0.29595415121E+03  0.54126602955E+03  0.45318876324E+03 0.  0.
      99925    2    3    3    0    0 -0.38314009022E+02  0.98584231321E+02 -0.14781381656E+03  0.32040435156E+03  0.26386210448E+03 0.  0.
         25    1    4    4    0    0 -0.86287266997E+01  0.56608039914E+01 -0.70038736509E+02  0.14373389419E+03  0.12509000000E+03 0.  0.
         25    1    3    3    0    0  0.38314009022E+02 -0.98584231321E+02 -0.14814033465E+03  0.22086167799E+03  0.12509000000E+03 0.  0.
         25    1    4    4    0    0 -0.29685282323E+02  0.92923427329E+02 -0.77775080049E+02  0.17667045738E+03  0.12509000000E+03 0.  0.
<mgrwt>
<rscale>  2 0.45318876E+03</rscale>
<asrwt>0</asrwt>
<pdfrwt beam="1">  1       21 0.18037638E-01 0.45318876E+03</pdfrwt>
<pdfrwt beam="2">  1       21 0.61560306E-01 0.45318876E+03</pdfrwt>
<totfact> 0.63350538E+04</totfact>
</mgrwt>
</event>
<event>
 7    0  0.4793433E-002  0.4548101E+03  0.7546771E-02  0.1026297E+00
         21   -1    0    0  502  501  0.00000000000E+00  0.00000000000E+00  0.54460501841E+03  0.54460501841E+03  0.00000000000E+00 0. -1.
         21   -1    0    0  501  502 -0.00000000000E+00 -0.00000000000E+00 -0.94955152015E+02  0.94955152015E+02  0.00000000000E+00 0. -1.
      99926    2    1    2    0    0  0.00000000000E+00  0.71054273576E-14  0.44964986640E+03  0.63956017043E+03  0.45481008041E+03 0.  0.
      99925    2    3    3    0    0  0.93979909954E+02  0.58412186476E+02  0.31567467306E+03  0.42545489834E+03  0.26290143459E+03 0.  0.
         25    1    4    4    0    0  0.32130239218E+02  0.23587298126E+01  0.18847561744E+03  0.22849175554E+03  0.12509000000E+03 0.  0.
         25    1    4    4    0    0  0.61849670737E+02  0.56053456664E+02  0.12719905562E+03  0.19696314281E+03  0.12509000000E+03 0.  0.
         25    1    3    3    0    0 -0.93979909954E+02 -0.58412186476E+02  0.13397519334E+03  0.21410527209E+03  0.12509000000E+03 0.  0.
<mgrwt>
<rscale>  2 0.45481008E+03</rscale>
<asrwt>0</asrwt>
<pdfrwt beam="1">  1       21 0.80088972E-01 0.45481008E+03</pdfrwt>
<pdfrwt beam="2">  1       21 0.13963993E-01 0.45481008E+03</pdfrwt>
<totfact> 0.56391440E+04</totfact>
</mgrwt>
</event>
<event>
 7    0  0.4793433E-002  0.4544497E+03  0.7546771E-02  0.1026403E+00
         21   -1    0    0  502  501  0.00000000000E+00  0.00000000000E+00  0.35945317293E+04  0.35945317293E+04  0.00000000000E+00 0.  1.
         21   -1    0    0  501  502 -0.00000000000E+00 -0.00000000000E+00 -0.14363800882E+02  0.14363800882E+02  0.00000000000E+00 0.  1.
      99926    2    1    2    0    0 -0.35527136788E-14  0.22204460493E-14  0.35801679284E+04  0.36088955301E+04  0.45444972450E+03 0.  0.
      99925    2    3    3    0    0  0.16686192412E+02 -0.17494798087E+01  0.13683956311E+04  0.13935252016E+04  0.26291518490E+03 0.  0.
         25    1    3    3    0    0 -0.16686192412E+02  0.17494798087E+01  0.22117722972E+04  0.22153703286E+04  0.12509000000E+03 0.  0.
         25    1    4    4    0    0 -0.21523439713E+02 -0.27489730980E+02  0.64348101761E+03  0.65645584154E+03  0.12509000000E+03 0.  0.
         25    1    4    4    0    0  0.38209632125E+02  0.25740251171E+02  0.72491461353E+03  0.73706936005E+03  0.12509000000E+03 0.  0.
<mgrwt>
<rscale>  2 0.45444972E+03</rscale>
<asrwt>0</asrwt>
<pdfrwt beam="1">  1       21 0.52860698E+00 0.45444972E+03</pdfrwt>
<pdfrwt beam="2">  1       21 0.21123262E-02 0.45444972E+03</pdfrwt>
<totfact> 0.10398726E+03</totfact>
</mgrwt>
</event>
<event>
 7    0  0.4793433E-002  0.4532472E+03  0.7546771E-02  0.1026758E+00
         21   -1    0    0  502  501  0.00000000000E+00  0.00000000000E+00  0.70083851228E+02  0.70083851228E+02  0.00000000000E+00 0. -1.
         21   -1    0    0  501  502 -0.00000000000E+00 -0.00000000000E+00 -0.73281160046E+03  0.73281160046E+03  0.00000000000E+00 0. -1.
      99926    2    1    2    0    0  0.00000000000E+00  0.00000000000E+00 -0.66272774924E+03  0.80289545169E+03  0.45324721371E+03 0.  0.
      99925    2    3    3    0    0  0.52081823751E+02 -0.75942319664E+02 -0.52898289815E+03  0.59791997615E+03  0.26306964679E+03 0.  0.
         25    1    4    4    0    0 -0.64681904683E+01 -0.38646734682E+02 -0.30721216815E+03  0.33400932913E+03  0.12509000000E+03 0.  0.
         25    1    4    4    0    0  0.58550014219E+02 -0.37295584982E+02 -0.22177073000E+03  0.26391064702E+03  0.12509000000E+03 0.  0.
         25    1    3    3    0    0 -0.52081823751E+02  0.75942319664E+02 -0.13374485109E+03  0.20497547554E+03  0.12509000000E+03 0.  0.
<mgrwt>
<rscale>  2 0.45324721E+03</rscale>
<asrwt>0</asrwt>
<pdfrwt beam="1">  1       21 0.10306448E-01 0.45324721E+03</pdfrwt>
<pdfrwt beam="2">  1       21 0.10776642E+00 0.45324721E+03</pdfrwt>
<totfact> 0.48285839E+04</totfact>
</mgrwt>
</event>
<event>
 7    0  0.4793433E-002  0.4621755E+03  0.7546771E-02  0.1024152E+00
         21   -1    0    0  502  501  0.00000000000E+00  0.00000000000E+00  0.36121939624E+03  0.36121939624E+03  0.00000000000E+00 0.  1.
         21   -1    0    0  501  502 -0.00000000000E+00 -0.00000000000E+00 -0.14783687923E+03  0.14783687923E+03  0.00000000000E+00 0.  1.
      99926    2    1    2    0    0  0.14210854715E-13  0.00000000000E+00  0.21338251701E+03  0.50905627548E+03  0.46217550026E+03 0.  0.
      99925    2    3    3    0    0 -0.92025238115E+02  0.71537879590E+02  0.16269184749E+03  0.33072129645E+03  0.26329000365E+03 0.  0.
         25    1    4    4    0    0 -0.47342060924E+02  0.53970076130E+02  0.41560812778E+02  0.15009613289E+03  0.12509000000E+03 0.  0.
         25    1    3    3    0    0  0.92025238115E+02 -0.71537879590E+02  0.50690669523E+02  0.17833497902E+03  0.12509000000E+03 0.  0.
         25    1    4    4    0    0 -0.44683177190E+02  0.17567803461E+02  0.12113103471E+03  0.18062516356E+03  0.12509000000E+03 0.  0.
<mgrwt>
<rscale>  2 0.46217550E+03</rscale>
<asrwt>0</asrwt>
<pdfrwt beam="1">  1       21 0.53120499E-01 0.46217550E+03</pdfrwt>
<pdfrwt beam="2">  1       21 0.21740718E-01 0.46217550E+03</pdfrwt>
<totfact> 0.61085119E+04</totfact>
</mgrwt>
</event>
<event>
 7    0  0.4793433E-002  0.4525940E+03  0.7546771E-02  0.1026951E+00
         21   -1    0    0  502  501  0.00000000000E+00  0.00000000000E+00  0.12433196724E+03  0.12433196724E+03  0.00000000000E+00 0. -1.
         21   -1    0    0  501  502 -0.00000000000E+00 -0.00000000000E+00 -0.41188385867E+03  0.41188385867E+03  0.00000000000E+00 0. -1.
      99926    2    1    2    0    0 -0.71054273576E-14 -0.14210854715E-13 -0.28755189143E+03  0.53621582590E+03  0.45259399210E+03 0.  0.
      99925    2    3    3    0    0  0.49232744269E+02  0.90068577446E+02 -0.13137952990E+03  0.31133024087E+03  0.26292532448E+03 0.  0.
         25    1    3    3    0    0 -0.49232744269E+02 -0.90068577446E+02 -0.15617236153E+03  0.22488558503E+03  0.12509000000E+03 0.  0.
         25    1    4    4    0    0  0.43345927827E+02  0.82107339232E+01 -0.62132707195E+02  0.14647275178E+03  0.12509000000E+03 0.  0.
         25    1    4    4    0    0  0.58868164422E+01  0.81857843523E+02 -0.69246822708E+02  0.16485748909E+03  0.12509000000E+03 0.  0.
<mgrwt>
<rscale>  2 0.45259399E+03</rscale>
<asrwt>0</asrwt>
<pdfrwt beam="1">  1       21 0.18284113E-01 0.45259399E+03</pdfrwt>
<pdfrwt beam="2">  1       21 0.60571156E-01 0.45259399E+03</pdfrwt>
<totfact> 0.63996665E+04</totfact>
</mgrwt>
</event>
<event>
 7    0  0.4793433E-002  0.4521971E+03  0.7546771E-02  0.1027069E+00
         21   -1    0    0  502  501  0.00000000000E+00  0.00000000000E+00  0.51300948722E+03  0.51300948722E+03  0.00000000000E+00 0. -1.
         21   -1    0    0  501  502 -0.00000000000E+00 -0.00000000000E+00 -0.99648340107E+02  0.99648340107E+02  0.00000000000E+00 0. -1.
      99926    2    1    2    0    0  0.00000000000E+00  0.00000000000E+00  0.41336114711E+03  0.61265782732E+03  0.45219705377E+03 0.  0.
      99925    2    3    3    0    0  0.63480909603E+02 -0.36213539770E+02  0.37181415543E+03  0.46194317321E+03  0.26420537986E+03 0.  0.
         25    1    4    4    0    0  0.74719704993E+02 -0.21028263217E+02  0.18746095453E+03  0.23835758797E+03  0.12509000000E+03 0.  0.
         25    1    4    4    0    0 -0.11238795390E+02 -0.15185276552E+02  0.18435320090E+03  0.22358558524E+03  0.12509000000E+03 0.  0.
         25    1    3    3    0    0 -0.63480909603E+02  0.36213539770E+02  0.41546991675E+02  0.15071465411E+03  0.12509000000E+03 0.  0.
<mgrwt>
<rscale>  2 0.45219705E+03</rscale>
<asrwt>0</asrwt>
<pdfrwt beam="1">  1       21 0.75442571E-01 0.45219705E+03</pdfrwt>
<pdfrwt beam="2">  1       21 0.14654168E-01 0.45219705E+03</pdfrwt>
<totfact> 0.59205692E+04</totfact>
</mgrwt>
</event>
<event>
 7    0  0.4793433E-002  0.4507626E+03  0.7546771E-02  0.1027495E+00
         21   -1    0    0  502  501  0.00000000000E+00  0.00000000000E+00  0.11700269495E+03  0.11700269495E+03  0.00000000000E+00 0. -1.
         21   -1    0    0  501  502 -0.00000000000E+00 -0.00000000000E+00 -0.43415013454E+03  0.43415013454E+03  0.00000000000E+00 0. -1.
      99926    2    1    2    0    0  0.00000000000E+00  0.00000000000E+00 -0.31714743959E+03  0.55115282950E+03  0.45076262381E+03 0.  0.
      99925    2    3    3    0    0  0.43337094932E+02  0.99928006476E+02 -0.19099229563E+03  0.34276295756E+03  0.26295375604E+03 0.  0.
         25    1    4    4    0    0  0.59137965065E+01  0.68595211952E+02 -0.13749354017E+03  0.19822274789E+03  0.12509000000E+03 0.  0.
         25    1    3    3    0    0 -0.43337094932E+02 -0.99928006476E+02 -0.12615514396E+03  0.20838987193E+03  0.12509000000E+03 0.  0.
         25    1    4    4    0    0  0.37423298425E+02  0.31332794525E+02 -0.53498755460E+02  0.14454020968E+03  0.12509000000E+03 0.  0.
<mgrwt>
<rscale>  2 0.45076262E+03</rscale>
<asrwt>0</asrwt>
<pdfrwt beam="1">  1       21 0.17206279E-01 0.45076262E+03</pdfrwt>
<pdfrwt beam="2">  1       21 0.63845607E-01 0.45076262E+03</pdfrwt>
<totfact> 0.63906016E+04</totfact>
</mgrwt>
</event>
<event>
 7    0  0.4793433E-002  0.4611945E+03  0.7546771E-02  0.1024435E+00
         21   -1    0    0  502  501  0.00000000000E+00  0.00000000000E+00  0.13531854391E+03  0.13531854391E+03  0.00000000000E+00 0.  1.
         21   -1    0    0  501  502 -0.00000000000E+00 -0.00000000000E+00 -0.39296234552E+03  0.39296234552E+03  0.00000000000E+00 0.  1.
      99926    2    1    2    0    0  0.00000000000E+00 -0.88817841970E-15 -0.25764380161E+03  0.52828088943E+03  0.46119450304E+03 0.  0.
      99925    2    3    3    0    0  0.20671689661E+02 -0.58543419770E+01 -0.29518910247E+03  0.39592247531E+03  0.26297606005E+03 0.  0.
         25    1    3    3    0    0 -0.20671689661E+02  0.58543419770E+01  0.37545300859E+02  0.13235841413E+03  0.12509000000E+03 0.  0.
         25    1    4    4    0    0 -0.22892141621E+02  0.48869862308E+01 -0.17750504115E+03  0.21841126463E+03  0.12509000000E+03 0.  0.
         25    1    4    4    0    0  0.43563831282E+02 -0.10741328208E+02 -0.11768406132E+03  0.17751121068E+03  0.12509000000E+03 0.  0.
<mgrwt>
<rscale>  2 0.46119450E+03</rscale>
<asrwt>0</asrwt>
<pdfrwt beam="1">  1       21 0.19899786E-01 0.46119450E+03</pdfrwt>
<pdfrwt beam="2">  1       21 0.57788581E-01 0.46119450E+03</pdfrwt>
<totfact> 0.60306770E+04</totfact>
</mgrwt>
</event>
<event>
 7    0  0.4793433E-002  0.4570265E+03  0.7546771E-02  0.1025647E+00
         21   -1    0    0  502  501  0.00000000000E+00  0.00000000000E+00  0.51489305734E+03  0.51489305734E+03  0.00000000000E+00 0. -1.
         21   -1    0    0  501  502 -0.00000000000E+00 -0.00000000000E+00 -0.10141581226E+03  0.10141581226E+03  0.00000000000E+00 0. -1.
      99926    2    1    2    0    0  0.00000000000E+00  0.00000000000E+00  0.41347724507E+03  0.61630886960E+03  0.45702646592E+03 0.  0.
      99925    2    3    3    0    0  0.80986085725E+02 -0.32125211293E+02  0.15814345901E+03  0.31893095232E+03  0.26290078630E+03 0.  0.
         25    1    3    3    0    0 -0.80986085725E+02  0.32125211293E+02  0.25533378606E+03  0.29737791728E+03  0.12509000000E+03 0.  0.
         25    1    4    4    0    0  0.60546473850E+02 -0.23669079452E+02  0.42748328772E+02  0.14731268965E+03  0.12509000000E+03 0.  0.
         25    1    4    4    0    0  0.20439611876E+02 -0.84561318416E+01  0.11539513024E+03  0.17161826267E+03  0.12509000000E+03 0.  0.
<mgrwt>
<rscale>  2 0.45702647E+03</rscale>
<asrwt>0</asrwt>
<pdfrwt beam="1">  1       21 0.75719566E-01 0.45702647E+03</pdfrwt>
<pdfrwt beam="2">  1       21 0.14914090E-01 0.45702647E+03</pdfrwt>
<totfact> 0.56771438E+04</totfact>
</mgrwt>
</event>
<event>
 7    0  0.4793433E-002  0.4554485E+03  0.7546771E-02  0.1026110E+00
         21   -1    0    0  502  501  0.00000000000E+00  0.00000000000E+00  0.10170758199E+04  0.10170758199E+04  0.00000000000E+00 0.  1.
         21   -1    0    0  501  502 -0.00000000000E+00 -0.00000000000E+00 -0.50987666906E+02  0.50987666906E+02  0.00000000000E+00 0.  1.
      99926    2    1    2    0    0  0.00000000000E+00  0.00000000000E+00  0.96608815296E+03  0.10680634868E+04  0.45544845206E+03 0.  0.
      99925    2    3    3    0    0 -0.76434905729E+02  0.69826818308E+02  0.49846969781E+03  0.57305580293E+03  0.26306431583E+03 0.  0.
         25    1    3    3    0    0  0.76434905729E+02 -0.69826818308E+02  0.46761845515E+03  0.49500768384E+03  0.12509000000E+03 0.  0.
         25    1    4    4    0    0 -0.14335081824E+02  0.50834044412E+02  0.18618245124E+03  0.23043655937E+03  0.12509000000E+03 0.  0.
         25    1    4    4    0    0 -0.62099823905E+02  0.18992773897E+02  0.31228724657E+03  0.34261924356E+03  0.12509000000E+03 0.  0.
<mgrwt>
<rscale>  2 0.45544845E+03</rscale>
<asrwt>0</asrwt>
<pdfrwt beam="1">  1       21 0.14956996E+00 0.45544845E+03</pdfrwt>
<pdfrwt beam="2">  1       21 0.74981870E-02 0.45544845E+03</pdfrwt>
<totfact> 0.36493615E+04</totfact>
</mgrwt>
</event>
<event>
 7    0  0.4793433E-002  0.4543872E+03  0.7546771E-02  0.1026422E+00
         21   -1    0    0  502  501  0.00000000000E+00  0.00000000000E+00  0.27402272883E+03  0.27402272883E+03  0.00000000000E+00 0. -1.
         21   -1    0    0  501  502 -0.00000000000E+00 -0.00000000000E+00 -0.18836730490E+03  0.18836730490E+03  0.00000000000E+00 0. -1.
      99926    2    1    2    0    0 -0.35527136788E-14  0.00000000000E+00  0.85655423927E+02  0.46239003373E+03  0.45438716052E+03 0.  0.
      99925    2    3    3    0    0 -0.16878929118E+02 -0.80792363763E+02  0.13195394927E+03  0.30553543278E+03  0.26292156942E+03 0.  0.
         25    1    4    4    0    0 -0.31744370955E+02 -0.55857455670E+02  0.35795560658E+02  0.14510889257E+03  0.12509000000E+03 0.  0.
         25    1    3    3    0    0  0.16878929118E+02  0.80792363763E+02 -0.46298525340E+02  0.15685460095E+03  0.12509000000E+03 0.  0.
         25    1    4    4    0    0  0.14865441837E+02 -0.24934908093E+02  0.96158388609E+02  0.16042654021E+03  0.12509000000E+03 0.  0.
<mgrwt>
<rscale>  2 0.45438716E+03</rscale>
<asrwt>0</asrwt>
<pdfrwt beam="1">  1       21 0.40297460E-01 0.45438716E+03</pdfrwt>
<pdfrwt beam="2">  1       21 0.27701074E-01 0.45438716E+03</pdfrwt>
<totfact> 0.68336650E+04</totfact>
</mgrwt>
</event>
<event>
 7    0  0.4793433E-002  0.4540745E+03  0.7546771E-02  0.1026514E+00
         21   -1    0    0  502  501  0.00000000000E+00  0.00000000000E+00  0.26277801535E+03  0.26277801535E+03  0.00000000000E+00 0. -1.
         21   -1    0    0  501  502 -0.00000000000E+00 -0.00000000000E+00 -0.19615764152E+03  0.19615764152E+03  0.00000000000E+00 0. -1.
      99926    2    1    2    0    0  0.71054273576E-14  0.35527136788E-14  0.66620373832E+02  0.45893565687E+03  0.45407451254E+03 0.  0.
      99925    2    3    3    0    0  0.62547659901E+02 -0.29465116487E+02 -0.47476803990E+02  0.27605297061E+03  0.26300340837E+03 0.  0.
         25    1    4    4    0    0  0.65319010962E+02 -0.35616626118E+02 -0.12991503085E+02  0.14612119799E+03  0.12509000000E+03 0.  0.
         25    1    3    3    0    0 -0.62547659901E+02  0.29465116487E+02  0.11409717782E+03  0.18288268626E+03  0.12509000000E+03 0.  0.
         25    1    4    4    0    0 -0.27713510613E+01  0.61515096309E+01 -0.34485300904E+02  0.12993177262E+03  0.12509000000E+03 0.  0.
<mgrwt>
<rscale>  2 0.45407451E+03</rscale>
<asrwt>0</asrwt>
<pdfrwt beam="1">  1       21 0.38643826E-01 0.45407451E+03</pdfrwt>
<pdfrwt beam="2">  1       21 0.28846712E-01 0.45407451E+03</pdfrwt>
<totfact> 0.68764323E+04</totfact>
</mgrwt>
</event>
<event>
 7    0  0.4793433E-002  0.4656849E+03  0.7546771E-02  0.1023145E+00
         21   -1    0    0  502  501  0.00000000000E+00  0.00000000000E+00  0.77854487852E+02  0.77854487852E+02  0.00000000000E+00 0. -1.
         21   -1    0    0  501  502 -0.00000000000E+00 -0.00000000000E+00 -0.69637093822E+03  0.69637093822E+03  0.00000000000E+00 0. -1.
      99926    2    1    2    0    0  0.00000000000E+00  0.00000000000E+00 -0.61851645037E+03  0.77422542607E+03  0.46568488380E+03 0.  0.
      99925    2    3    3    0    0  0.55913395883E+02  0.85026890044E+02 -0.50024491088E+03  0.57424656463E+03  0.26297959286E+03 0.  0.
         25    1    3    3    0    0 -0.55913395883E+02 -0.85026890044E+02 -0.11827153949E+03  0.19997886144E+03  0.12509000000E+03 0.  0.
         25    1    4    4    0    0 -0.66367002205E+00  0.31290335969E+02 -0.29089161975E+03  0.31819014461E+03  0.12509000000E+03 0.  0.
         25    1    4    4    0    0  0.56577065905E+02  0.53736554075E+02 -0.20935329112E+03  0.25605642002E+03  0.12509000000E+03 0.  0.
<mgrwt>
<rscale>  2 0.46568488E+03</rscale>
<asrwt>0</asrwt>
<pdfrwt beam="1">  1       21 0.11449189E-01 0.46568488E+03</pdfrwt>
<pdfrwt beam="2">  1       21 0.10240749E+00 0.46568488E+03</pdfrwt>
<totfact> 0.45130814E+04</totfact>
</mgrwt>
</event>
<event>
 7    0  0.4793433E-002  0.4546380E+03  0.7546771E-02  0.1026348E+00
         21   -1    0    0  502  501  0.00000000000E+00  0.00000000000E+00  0.23553965283E+02  0.23553965283E+02  0.00000000000E+00 0. -1.
         21   -1    0    0  501  502 -0.00000000000E+00 -0.00000000000E+00 -0.21938523886E+04  0.21938523886E+04  0.00000000000E+00 0. -1.
      99926    2    1    2    0    0  0.00000000000E+00  0.00000000000E+00 -0.21702984234E+04  0.22174063539E+04  0.45463797904E+03 0.  0.
      99925    2    3    3    0    0  0.11122438371E+02 -0.52055418223E+02 -0.18514250324E+04  0.18707635655E+04  0.26296043850E+03 0.  0.
         25    1    3    3    0    0 -0.11122438371E+02  0.52055418223E+02 -0.31887339095E+03  0.34664278841E+03  0.12509000000E+03 0.  0.
         25    1    4    4    0    0  0.16550084806E+02 -0.37745215674E+02 -0.12044102620E+04  0.12115899446E+04  0.12509000000E+03 0.  0.
         25    1    4    4    0    0 -0.54276464351E+01 -0.14310202549E+02 -0.64701477041E+03  0.65917362089E+03  0.12509000000E+03 0.  0.
<mgrwt>
<rscale>  2 0.45463798E+03</rscale>
<asrwt>0</asrwt>
<pdfrwt beam="1">  1       21 0.34638174E-02 0.45463798E+03</pdfrwt>
<pdfrwt beam="2">  1       21 0.32262545E+00 0.45463798E+03</pdfrwt>
<totfact> 0.10503559E+04</totfact>
</mgrwt>
</event>
<event>
 7    0  0.4793433E-002  0.4573423E+03  0.7546771E-02  0.1025555E+00
         21   -1    0    0  502  501  0.00000000000E+00  0.00000000000E+00  0.29022595101E+02  0.29022595101E+02  0.00000000000E+00 0.  1.
         21   -1    0    0  501  502 -0.00000000000E+00 -0.00000000000E+00 -0.18017166486E+04  0.18017166486E+04  0.00000000000E+00 0.  1.
      99926    2    1    2    0    0  0.00000000000E+00  0.00000000000E+00 -0.17726940535E+04  0.18307392437E+04  0.45734229098E+03 0.  0.
      99925    2    3    3    0    0 -0.45143655138E+02 -0.57191471761E+02 -0.14709397995E+04  0.14960573769E+04  0.26308737574E+03 0.  0.
         25    1    4    4    0    0 -0.61233881869E+00 -0.32060844806E+02 -0.90730424003E+03  0.91644790621E+03  0.12509000000E+03 0.  0.
         25    1    4    4    0    0 -0.44531316319E+02 -0.25130626956E+02 -0.56363555946E+03  0.57960947071E+03  0.12509000000E+03 0.  0.
         25    1    3    3    0    0  0.45143655138E+02  0.57191471761E+02 -0.30175425405E+03  0.33468186682E+03  0.12509000000E+03 0.  0.
<mgrwt>
<rscale>  2 0.45734229E+03</rscale>
<asrwt>0</asrwt>
<pdfrwt beam="1">  1       21 0.42680288E-02 0.45734229E+03</pdfrwt>
<pdfrwt beam="2">  1       21 0.26495833E+00 0.45734229E+03</pdfrwt>
<totfact> 0.16376444E+04</totfact>
</mgrwt>
</event>
<event>
 7    0  0.4793433E-002  0.4511503E+03  0.7546771E-02  0.1027380E+00
         21   -1    0    0  502  501  0.00000000000E+00  0.00000000000E+00  0.31264170799E+03  0.31264170799E+03  0.00000000000E+00 0.  1.
         21   -1    0    0  501  502 -0.00000000000E+00 -0.00000000000E+00 -0.16275546254E+03  0.16275546254E+03  0.00000000000E+00 0.  1.
      99926    2    1    2    0    0 -0.14210854715E-13  0.17763568394E-14  0.14988624546E+03  0.47539717053E+03  0.45115028890E+03 0.  0.
      99925    2    3    3    0    0 -0.81044391375E+02  0.14294404359E+02  0.18344259790E+02  0.27609005710E+03  0.26290052186E+03 0.  0.
         25    1    3    3    0    0  0.81044391375E+02 -0.14294404359E+02  0.13154198567E+03  0.19930711343E+03  0.12509000000E+03 0.  0.
         25    1    4    4    0    0 -0.35139377641E+02 -0.26279660258E+02  0.31279270454E+02  0.13620314704E+03  0.12509000000E+03 0.  0.
         25    1    4    4    0    0 -0.45905013734E+02  0.40574064618E+02 -0.12935010665E+02  0.13988691006E+03  0.12509000000E+03 0.  0.
<mgrwt>
<rscale>  2 0.45115029E+03</rscale>
<asrwt>0</asrwt>
<pdfrwt beam="1">  1       21 0.45976722E-01 0.45115029E+03</pdfrwt>
<pdfrwt beam="2">  1       21 0.23934627E-01 0.45115029E+03</pdfrwt>
<totfact> 0.69124736E+04</totfact>
</mgrwt>
</event>
<event>
 7    0  0.4793433E-002  0.4657912E+03  0.7546771E-02  0.1023115E+00
         21   -1    0    0  502  501  0.00000000000E+00  0.00000000000E+00  0.10702134857E+04  0.10702134857E+04  0.00000000000E+00 0. -1.
         21   -1    0    0  501  502 -0.00000000000E+00 -0.00000000000E+00 -0.50681822511E+02  0.50681822511E+02  0.00000000000E+00 0. -1.
      99926    2    1    2    0    0  0.00000000000E+00  0.14210854715E-13  0.10195316632E+04  0.11208953082E+04  0.46579124049E+03 0.  0.
      99925    2    3    3    0    0  0.28340641019E+01 -0.72434287617E+02  0.87457872727E+03  0.91616714777E+03  0.26309605570E+03 0.  0.
         25    1    3    3    0    0 -0.28340641019E+01  0.72434287617E+02  0.14495293590E+03  0.20472816042E+03  0.12509000000E+03 0.  0.
         25    1    4    4    0    0  0.16370879708E+01 -0.22311039573E+02  0.29642223977E+03  0.32251219337E+03  0.12509000000E+03 0.  0.
         25    1    4    4    0    0  0.11969761311E+01 -0.50123248044E+02  0.57815648750E+03  0.59365495440E+03  0.12509000000E+03 0.  0.
<mgrwt>
<rscale>  2 0.46579124E+03</rscale>
<asrwt>0</asrwt>
<pdfrwt beam="1">  1       21 0.15738432E+00 0.46579124E+03</pdfrwt>
<pdfrwt beam="2">  1       21 0.74532099E-02 0.46579124E+03</pdfrwt>
<totfact> 0.31991683E+04</totfact>
</mgrwt>
</event>
<event>
 7    0  0.4793433E-002  0.4545664E+03  0.7546771E-02  0.1026369E+00
         21   -1    0    0  502  501  0.00000000000E+00  0.00000000000E+00  0.56586547868E+02  0.56586547868E+02  0.00000000000E+00 0.  1.
         21   -1    0    0  501  502 -0.00000000000E+00 -0.00000000000E+00 -0.91289621367E+03  0.91289621367E+03  0.00000000000E+00 0.  1.
      99926    2    1    2    0    0  0.00000000000E+00  0.00000000000E+00 -0.85630966580E+03  0.96948276154E+03  0.45456636608E+03 0.  0.
      99925    2    3    3    0    0  0.54511187280E+02 -0.11037062732E+02 -0.74834325198E+03  0.79513385587E+03  0.26292002526E+03 0.  0.
         25    1    4    4    0    0 -0.15813050882E+01 -0.31032067967E+02 -0.39991667688E+03  0.42017418569E+03  0.12509000000E+03 0.  0.
         25    1    3    3    0    0 -0.54511187280E+02  0.11037062732E+02 -0.10796641382E+03  0.17434890566E+03  0.12509000000E+03 0.  0.
         25    1    4    4    0    0  0.56092492368E+02  0.19995005235E+02 -0.34842657509E+03  0.37495967019E+03  0.12509000000E+03 0.  0.
<mgrwt>
<rscale>  2 0.45456637E+03</rscale>
<asrwt>0</asrwt>
<pdfrwt beam="1">  1       21 0.83215525E-02 0.45456637E+03</pdfrwt>
<pdfrwt beam="2">  1       21 0.13424942E+00 0.45456637E+03</pdfrwt>
<totfact> 0.40498945E+04</totfact>
</mgrwt>
</event>
<event>
 7    0  0.4793433E-002  0.4548166E+03  0.7546771E-02  0.1026295E+00
         21   -1    0    0  502  501  0.00000000000E+00  0.00000000000E+00  0.27337677518E+03  0.27337677518E+03  0.00000000000E+00 0. -1.
         21   -1    0    0  501  502 -0.00000000000E+00 -0.00000000000E+00 -0.18916943538E+03  0.18916943538E+03  0.00000000000E+00 0. -1.
      99926    2    1    2    0    0  0.00000000000E+00  0.00000000000E+00  0.84207339802E+02  0.46254621056E+03  0.45481657932E+03 0.  0.
      99925    2    3    3    0    0  0.11126228083E+03  0.16261780702E+02  0.62908660466E+02  0.29300305237E+03  0.26315308945E+03 0.  0.
         25    1    4    4    0    0  0.28290953374E+02 -0.91323133553E+01  0.78375970991E+00  0.12857643474E+03  0.12509000000E+03 0.  0.
         25    1    4    4    0    0  0.82971327455E+02  0.25394094057E+02  0.62124900756E+02  0.16442661763E+03  0.12509000000E+03 0.  0.
         25    1    3    3    0    0 -0.11126228083E+03 -0.16261780702E+02  0.21298679336E+02  0.16954315819E+03  0.12509000000E+03 0.  0.
<mgrwt>
<rscale>  2 0.45481658E+03</rscale>
<asrwt>0</asrwt>
<pdfrwt beam="1">  1       21 0.40202467E-01 0.45481658E+03</pdfrwt>
<pdfrwt beam="2">  1       21 0.27819034E-01 0.45481658E+03</pdfrwt>
<totfact> 0.68091912E+04</totfact>
</mgrwt>
</event>
<event>
 7    0  0.4793433E-002  0.4413895E+03  0.7546771E-02  0.1030321E+00
         21   -1    0    0  502  501  0.00000000000E+00  0.00000000000E+00  0.96779156395E+02  0.96779156395E+02  0.00000000000E+00 0.  1.
         21   -1    0    0  501  502 -0.00000000000E+00 -0.00000000000E+00 -0.50327133868E+03  0.50327133868E+03  0.00000000000E+00 0.  1.
      99926    2    1    2    0    0 -0.28421709430E-13  0.14210854715E-13 -0.40649218229E+03  0.60005049508E+03  0.44138951322E+03 0.  0.
      99925    2    3    3    0    0 -0.82791872885E+02  0.43687140828E+02 -0.30637546146E+03  0.41448668832E+03  0.26300234014E+03 0.  0.
         25    1    4    4    0    0 -0.78341902184E+02  0.43908352589E+02 -0.16764248790E+03  0.22763327726E+03  0.12509000000E+03 0.  0.
         25    1    4    4    0    0 -0.44499707008E+01 -0.22121176103E+00 -0.13873297356E+03  0.18685341106E+03  0.12509000000E+03 0.  0.
         25    1    3    3    0    0  0.82791872885E+02 -0.43687140828E+02 -0.10011672083E+03  0.18556380676E+03  0.12509000000E+03 0.  0.
<mgrwt>
<rscale>  2 0.44138951E+03</rscale>
<asrwt>0</asrwt>
<pdfrwt beam="1">  1       21 0.14232229E-01 0.44138951E+03</pdfrwt>
<pdfrwt beam="2">  1       21 0.74010489E-01 0.44138951E+03</pdfrwt>
<totfact> 0.65432511E+04</totfact>
</mgrwt>
</event>
<event>
 7    0  0.4793433E-002  0.4333090E+03  0.7546771E-02  0.1032820E+00
         21   -1    0    0  502  501  0.00000000000E+00  0.00000000000E+00  0.81761164243E+02  0.81761164243E+02  0.00000000000E+00 0.  1.
         21   -1    0    0  501  502 -0.00000000000E+00 -0.00000000000E+00 -0.57410114386E+03  0.57410114386E+03  0.00000000000E+00 0.  1.
      99926    2    1    2    0    0 -0.35527136788E-14  0.00000000000E+00 -0.49233997962E+03  0.65586230810E+03  0.43330902559E+03 0.  0.
      99925    2    3    3    0    0  0.12407716468E+02 -0.28910314201E+02 -0.18655800403E+03  0.32398901543E+03  0.26301185440E+03 0.  0.
         25    1    4    4    0    0 -0.31434664229E+02 -0.27015388385E+02 -0.82621585620E+02  0.15553714616E+03  0.12509000000E+03 0.  0.
         25    1    3    3    0    0 -0.12407716468E+02  0.28910314201E+02 -0.30578197559E+03  0.33187329268E+03  0.12509000000E+03 0.  0.
         25    1    4    4    0    0  0.43842380697E+02 -0.18949258160E+01 -0.10393641841E+03  0.16845186927E+03  0.12509000000E+03 0.  0.
<mgrwt>
<rscale>  2 0.43330903E+03</rscale>
<asrwt>0</asrwt>
<pdfrwt beam="1">  1       21 0.12023701E-01 0.43330903E+03</pdfrwt>
<pdfrwt beam="2">  1       21 0.84426637E-01 0.43330903E+03</pdfrwt>
<totfact> 0.65934754E+04</totfact>
</mgrwt>
</event>
<event>
 7    0  0.4793433E-002  0.4515760E+03  0.7546771E-02  0.1027253E+00
         21   -1    0    0  502  501  0.00000000000E+00  0.00000000000E+00  0.85850324199E+03  0.85850324199E+03  0.00000000000E+00 0. -1.
         21   -1    0    0  501  502 -0.00000000000E+00 -0.00000000000E+00 -0.59382677546E+02  0.59382677546E+02  0.00000000000E+00 0. -1.
      99926    2    1    2    0    0 -0.71054273576E-14  0.17763568394E-14  0.79912056445E+03  0.91788591954E+03  0.45157600110E+03 0.  0.
      99925    2    3    3    0    0  0.55311689445E+02  0.15799194265E+02  0.31390245971E+03  0.41351193648E+03  0.26296077629E+03 0.  0.
         25    1    4    4    0    0  0.79401751917E+01 -0.18867492866E+01  0.20424883945E+03  0.23964912418E+03  0.12509000000E+03 0.  0.
         25    1    3    3    0    0 -0.55311689445E+02 -0.15799194265E+02  0.48521810473E+03  0.50437398306E+03  0.12509000000E+03 0.  0.
         25    1    4    4    0    0  0.47371514254E+02  0.17685943552E+02  0.10965362027E+03  0.17386281230E+03  0.12509000000E+03 0.  0.
<mgrwt>
<rscale>  2 0.45157600E+03</rscale>
<asrwt>0</asrwt>
<pdfrwt beam="1">  1       21 0.12625047E+00 0.45157600E+03</pdfrwt>
<pdfrwt beam="2">  1       21 0.87327472E-02 0.45157600E+03</pdfrwt>
<totfact> 0.43626226E+04</totfact>
</mgrwt>
</event>
<event>
 7    0  0.4793433E-002  0.4548135E+03  0.7546771E-02  0.1026296E+00
         21   -1    0    0  502  501  0.00000000000E+00  0.00000000000E+00  0.59749488584E+02  0.59749488584E+02  0.00000000000E+00 0. -1.
         21   -1    0    0  501  502 -0.00000000000E+00 -0.00000000000E+00 -0.86551086529E+03  0.86551086529E+03  0.00000000000E+00 0. -1.
      99926    2    1    2    0    0  0.14210854715E-13  0.00000000000E+00 -0.80576137670E+03  0.92526035387E+03  0.45481350712E+03 0.  0.
      99925    2    3    3    0    0 -0.51619042312E+02 -0.87432597610E+02 -0.40630010362E+03  0.49453329244E+03  0.26301030109E+03 0.  0.
         25    1    4    4    0    0 -0.51135035290E+02 -0.78258050325E+02 -0.21322204748E+03  0.26429200500E+03  0.12509000000E+03 0.  0.
         25    1    4    4    0    0 -0.48400702239E+00 -0.91745472856E+01 -0.19307805614E+03  0.23024128745E+03  0.12509000000E+03 0.  0.
         25    1    3    3    0    0  0.51619042312E+02  0.87432597610E+02 -0.39946127308E+03  0.43072706143E+03  0.12509000000E+03 0.  0.
<mgrwt>
<rscale>  2 0.45481351E+03</rscale>
<asrwt>0</asrwt>
<pdfrwt beam="1">  1       21 0.87866897E-02 0.45481351E+03</pdfrwt>
<pdfrwt beam="2">  1       21 0.12728101E+00 0.45481351E+03</pdfrwt>
<totfact> 0.42220771E+04</totfact>
</mgrwt>
</event>
<event>
 7    0  0.4793433E-002  0.4092716E+03  0.7546771E-02  0.1040616E+00
         21   -1    0    0  502  501  0.00000000000E+00  0.00000000000E+00  0.39709301567E+03  0.39709301567E+03  0.00000000000E+00 0. -1.
         21   -1    0    0  501  502 -0.00000000000E+00 -0.00000000000E+00 -0.10545594799E+03  0.10545594799E+03  0.00000000000E+00 0. -1.
      99926    2    1    2    0    0  0.00000000000E+00  0.71054273576E-14  0.29163706768E+03  0.50254896366E+03  0.40927164772E+03 0.  0.
      99925    2    3    3    0    0  0.45473145915E+02  0.32399265914E+02  0.16098607378E+03  0.31324838326E+03  0.26285074516E+03 0.  0.
         25    1    4    4    0    0  0.44321701557E+02  0.48348403357E+02  0.10074492473E+03  0.17349071818E+03  0.12509000000E+03 0.  0.
         25    1    3    3    0    0 -0.45473145915E+02 -0.32399265914E+02  0.13065099390E+03  0.18930058039E+03  0.12509000000E+03 0.  0.
         25    1    4    4    0    0  0.11514443583E+01 -0.15949137443E+02  0.60241149051E+02  0.13975766508E+03  0.12509000000E+03 0.  0.
<mgrwt>
<rscale>  2 0.40927165E+03</rscale>
<asrwt>0</asrwt>
<pdfrwt beam="1">  1       21 0.58396031E-01 0.40927165E+03</pdfrwt>
<pdfrwt beam="2">  1       21 0.15508228E-01 0.40927165E+03</pdfrwt>
<totfact> 0.95189529E+04</totfact>
</mgrwt>
</event>
<event>
 7    0  0.4793433E-002  0.4582293E+03  0.7546771E-02  0.1025296E+00
         21   -1    0    0  502  501  0.00000000000E+00  0.00000000000E+00  0.14206802894E+04  0.14206802894E+04  0.00000000000E+00 0.  1.
         21   -1    0    0  501  502 -0.00000000000E+00 -0.00000000000E+00 -0.36949565013E+02  0.36949565013E+02  0.00000000000E+00 0.  1.
      99926    2    1    2    0    0  0.00000000000E+00  0.00000000000E+00  0.13837307244E+04  0.14576298544E+04  0.45822928198E+03 0.  0.
      99925    2    3    3    0    0  0.69044984869E+01  0.34138629359E+02  0.51619276695E+03  0.58042820495E+03  0.26311368331E+03 0.  0.
         25    1    3    3    0    0 -0.69044984869E+01 -0.34138629359E+02  0.86753795742E+03  0.87720164944E+03  0.12509000000E+03 0.  0.
         25    1    4    4    0    0 -0.81461066280E+00  0.34320293236E+02  0.18189307268E+03  0.22340802158E+03  0.12509000000E+03 0.  0.
         25    1    4    4    0    0  0.77191091497E+01 -0.18166387686E+00  0.33429969427E+03  0.35702018337E+03  0.12509000000E+03 0.  0.
<mgrwt>
<rscale>  2 0.45822928E+03</rscale>
<asrwt>0</asrwt>
<pdfrwt beam="1">  1       21 0.20892354E+00 0.45822928E+03</pdfrwt>
<pdfrwt beam="2">  1       21 0.54337605E-02 0.45822928E+03</pdfrwt>
<totfact> 0.24222395E+04</totfact>
</mgrwt>
</event>
<event>
 7    0  0.4793433E-002  0.4579042E+03  0.7546771E-02  0.1025391E+00
         21   -1    0    0  502  501  0.00000000000E+00  0.00000000000E+00  0.34082526976E+03  0.34082526976E+03  0.00000000000E+00 0.  1.
         21   -1    0    0  501  502 -0.00000000000E+00 -0.00000000000E+00 -0.15380043319E+03  0.15380043319E+03  0.00000000000E+00 0.  1.
      99926    2    1    2    0    0  0.00000000000E+00  0.00000000000E+00  0.18702483657E+03  0.49462570295E+03  0.45790424383E+03 0.  0.
      99925    2    3    3    0    0 -0.44160904107E+02  0.88837334353E+02  0.52673904738E+02  0.28596344375E+03  0.26297964464E+03 0.  0.
         25    1    4    4    0    0  0.17780160022E+02  0.32934200596E+02  0.28937413253E+02  0.13373734574E+03  0.12509000000E+03 0.  0.
         25    1    3    3    0    0  0.44160904107E+02 -0.88837334353E+02  0.13435093183E+03  0.20866225919E+03  0.12509000000E+03 0.  0.
         25    1    4    4    0    0 -0.61941064128E+02  0.55903133756E+02  0.23736491484E+02  0.15222609802E+03  0.12509000000E+03 0.  0.
<mgrwt>
<rscale>  2 0.45790424E+03</rscale>
<asrwt>0</asrwt>
<pdfrwt beam="1">  1       21 0.50121363E-01 0.45790424E+03</pdfrwt>
<pdfrwt beam="2">  1       21 0.22617711E-01 0.45790424E+03</pdfrwt>
<totfact> 0.64157876E+04</totfact>
</mgrwt>
</event>
<event>
 7    0  0.4793433E-002  0.4586735E+03  0.7546771E-02  0.1025167E+00
         21   -1    0    0  502  501  0.00000000000E+00  0.00000000000E+00  0.27203440826E+02  0.27203440826E+02  0.00000000000E+00 0.  1.
         21   -1    0    0  501  502 -0.00000000000E+00 -0.00000000000E+00 -0.19334078407E+04  0.19334078407E+04  0.00000000000E+00 0.  1.
      99926    2    1    2    0    0  0.00000000000E+00  0.00000000000E+00 -0.19062043999E+04  0.19606112815E+04  0.45867350387E+03 0.  0.
      99925    2    3    3    0    0  0.36720016593E+02 -0.10160007772E+03 -0.10115676793E+04  0.10508347676E+04  0.26327476818E+03 0.  0.
         25    1    3    3    0    0 -0.36720016593E+02  0.10160007772E+03 -0.89463672062E+03  0.90977651398E+03  0.12509000000E+03 0.  0.
         25    1    4    4    0    0 -0.11651917324E+02 -0.52384144643E+02 -0.39033256931E+03  0.41338467382E+03  0.12509000000E+03 0.  0.
         25    1    4    4    0    0  0.48371933916E+02 -0.49215933080E+02 -0.62123510997E+03  0.63745009374E+03  0.12509000000E+03 0.  0.
<mgrwt>
<rscale>  2 0.45867350E+03</rscale>
<asrwt>0</asrwt>
<pdfrwt beam="1">  1       21 0.40005063E-02 0.45867350E+03</pdfrwt>
<pdfrwt beam="2">  1       21 0.28432466E+00 0.45867350E+03</pdfrwt>
<totfact> 0.13961485E+04</totfact>
</mgrwt>
</event>
<event>
 7    0  0.4793433E-002  0.4540824E+03  0.7546771E-02  0.1026512E+00
         21   -1    0    0  502  501  0.00000000000E+00  0.00000000000E+00  0.12338698124E+03  0.12338698124E+03  0.00000000000E+00 0.  1.
         21   -1    0    0  501  502 -0.00000000000E+00 -0.00000000000E+00 -0.41777264482E+03  0.41777264482E+03  0.00000000000E+00 0.  1.
      99926    2    1    2    0    0 -0.71054273576E-14 -0.14210854715E-13 -0.29438566358E+03  0.54115962606E+03  0.45408239556E+03 0.  0.
      99925    2    3    3    0    0  0.60176255157E+02  0.90645926107E+02 -0.15182476147E+03  0.32250696883E+03  0.26291086159E+03 0.  0.
         25    1    4    4    0    0  0.25047040100E+02  0.14490275413E+02 -0.38537705885E+02  0.13405217333E+03  0.12509000000E+03 0.  0.
         25    1    4    4    0    0  0.35129215057E+02  0.76155650694E+02 -0.11328705559E+03  0.18845479550E+03  0.12509000000E+03 0.  0.
         25    1    3    3    0    0 -0.60176255157E+02 -0.90645926107E+02 -0.14256090211E+03  0.21865265723E+03  0.12509000000E+03 0.  0.
<mgrwt>
<rscale>  2 0.45408240E+03</rscale>
<asrwt>0</asrwt>
<pdfrwt beam="1">  1       21 0.18145145E-01 0.45408240E+03</pdfrwt>
<pdfrwt beam="2">  1       21 0.61437152E-01 0.45408240E+03</pdfrwt>
<totfact> 0.62910085E+04</totfact>
</mgrwt>
</event>
<event>
 7    0  0.4793433E-002  0.4528379E+03  0.7546771E-02  0.1026879E+00
         21   -1    0    0  502  501  0.00000000000E+00  0.00000000000E+00  0.38821225777E+02  0.38821225777E+02  0.00000000000E+00 0.  1.
         21   -1    0    0  501  502 -0.00000000000E+00 -0.00000000000E+00 -0.13205541809E+04  0.13205541809E+04  0.00000000000E+00 0.  1.
      99926    2    1    2    0    0  0.00000000000E+00  0.00000000000E+00 -0.12817329551E+04  0.13593754066E+04  0.45283786063E+03 0.  0.
      99925    2    3    3    0    0  0.17797130306E+02 -0.83926801331E+02 -0.59587004746E+03  0.65693972846E+03  0.26296054368E+03 0.  0.
         25    1    4    4    0    0  0.93095704281E+01 -0.78778485119E+02 -0.37011186594E+03  0.39865150097E+03  0.12509000000E+03 0.  0.
         25    1    3    3    0    0 -0.17797130306E+02  0.83926801331E+02 -0.68586290762E+03  0.70243567818E+03  0.12509000000E+03 0.  0.
         25    1    4    4    0    0  0.84875598780E+01 -0.51483162117E+01 -0.22575818153E+03  0.25828822749E+03  0.12509000000E+03 0.  0.
<mgrwt>
<rscale>  2 0.45283786E+03</rscale>
<asrwt>0</asrwt>
<pdfrwt beam="1">  1       21 0.57090025E-02 0.45283786E+03</pdfrwt>
<pdfrwt beam="2">  1       21 0.19419919E+00 0.45283786E+03</pdfrwt>
<totfact> 0.27900938E+04</totfact>
</mgrwt>
</event>
<event>
 7    0  0.4793433E-002  0.4616141E+03  0.7546771E-02  0.1024314E+00
         21   -1    0    0  502  501  0.00000000000E+00  0.00000000000E+00  0.64700987300E+03  0.64700987300E+03  0.00000000000E+00 0.  1.
         21   -1    0    0  501  502 -0.00000000000E+00 -0.00000000000E+00 -0.82335503797E+02  0.82335503797E+02  0.00000000000E+00 0.  1.
      99926    2    1    2    0    0  0.14210854715E-13  0.00000000000E+00  0.56467436921E+03  0.72934537680E+03  0.46161405462E+03 0.  0.
      99925    2    3    3    0    0 -0.71923973603E+02 -0.94100171695E+02  0.33498968989E+03  0.44223832307E+03  0.26330351643E+03 0.  0.
         25    1    4    4    0    0 -0.29994163262E+02 -0.27689960144E+02  0.21441564616E+03  0.25157098628E+03  0.12509000000E+03 0.  0.
         25    1    3    3    0    0  0.71923973603E+02  0.94100171695E+02  0.22968467932E+03  0.28710705374E+03  0.12509000000E+03 0.  0.
         25    1    4    4    0    0 -0.41929810341E+02 -0.66410211551E+02  0.12057404373E+03  0.19066733678E+03  0.12509000000E+03 0.  0.
<mgrwt>
<rscale>  2 0.46161405E+03</rscale>
<asrwt>0</asrwt>
<pdfrwt beam="1">  1       21 0.95148508E-01 0.46161405E+03</pdfrwt>
<pdfrwt beam="2">  1       21 0.12108163E-01 0.46161405E+03</pdfrwt>
<totfact> 0.48752901E+04</totfact>
</mgrwt>
</event>
<event>
 7    0  0.4793433E-002  0.4382970E+03  0.7546771E-02  0.1031271E+00
         21   -1    0    0  502  501  0.00000000000E+00  0.00000000000E+00  0.11456078715E+04  0.11456078715E+04  0.00000000000E+00 0.  1.
         21   -1    0    0  501  502 -0.00000000000E+00 -0.00000000000E+00 -0.41921901408E+02  0.41921901408E+02  0.00000000000E+00 0.  1.
      99926    2    1    2    0    0  0.71054273576E-14  0.00000000000E+00  0.11036859700E+04  0.11875297729E+04  0.43829697804E+03 0.  0.
      99925    2    3    3    0    0  0.49296103338E+02 -0.26891918121E+02  0.49256802894E+03  0.56121840692E+03  0.26303907708E+03 0.  0.
         25    1    4    4    0    0  0.65830773844E+02 -0.13836659190E+02  0.25317217163E+03  0.29029088947E+03  0.12509000000E+03 0.  0.
         25    1    4    4    0    0 -0.16534670506E+02 -0.13055258931E+02  0.23939585731E+03  0.27092751745E+03  0.12509000000E+03 0.  0.
         25    1    3    3    0    0 -0.49296103338E+02  0.26891918121E+02  0.61111794110E+03  0.62631136594E+03  0.12509000000E+03 0.  0.
<mgrwt>
<rscale>  2 0.43829698E+03</rscale>
<asrwt>0</asrwt>
<pdfrwt beam="1">  1       21 0.16847173E+00 0.43829698E+03</pdfrwt>
<pdfrwt beam="2">  1       21 0.61649863E-02 0.43829698E+03</pdfrwt>
<totfact> 0.37158750E+04</totfact>
</mgrwt>
</event>
<event>
 7    0  0.4793433E-002  0.4571009E+03  0.7546771E-02  0.1025625E+00
         21   -1    0    0  502  501  0.00000000000E+00  0.00000000000E+00  0.47978943982E+02  0.47978943982E+02  0.00000000000E+00 0.  1.
         21   -1    0    0  501  502 -0.00000000000E+00 -0.00000000000E+00 -0.10887133718E+04  0.10887133718E+04  0.00000000000E+00 0.  1.
      99926    2    1    2    0    0  0.00000000000E+00  0.00000000000E+00 -0.10407344278E+04  0.11366923158E+04  0.45710094237E+03 0.  0.
      99925    2    3    3    0    0 -0.61977700338E+02 -0.48739412024E+02 -0.44569630437E+03  0.52355722293E+03  0.26315433558E+03 0.  0.
         25    1    4    4    0    0 -0.63139954420E+02 -0.30025340045E+02 -0.18700363592E+03  0.23559720465E+03  0.12509000000E+03 0.  0.
         25    1    4    4    0    0  0.11622540820E+01 -0.18714071979E+02 -0.25869266844E+03  0.28796001829E+03  0.12509000000E+03 0.  0.
         25    1    3    3    0    0  0.61977700338E+02  0.48739412024E+02 -0.59503812346E+03  0.61313509286E+03  0.12509000000E+03 0.  0.
<mgrwt>
<rscale>  2 0.45710094E+03</rscale>
<asrwt>0</asrwt>
<pdfrwt beam="1">  1       21 0.70557276E-02 0.45710094E+03</pdfrwt>
<pdfrwt beam="2">  1       21 0.16010489E+00 0.45710094E+03</pdfrwt>
<totfact> 0.33674946E+04</totfact>
</mgrwt>
</event>
<event>
 7    0  0.4793433E-002  0.4730164E+03  0.7546771E-02  0.1021072E+00
         21   -1    0    0  502  501  0.00000000000E+00  0.00000000000E+00  0.86354963075E+03  0.86354963075E+03  0.00000000000E+00 0. -1.
         21   -1    0    0  501  502 -0.00000000000E+00 -0.00000000000E+00 -0.64774660756E+02  0.64774660756E+02  0.00000000000E+00 0. -1.
      99926    2    1    2    0    0  0.00000000000E+00 -0.14210854715E-13  0.79877496999E+03  0.92832429150E+03  0.47301642415E+03 0.  0.
      99925    2    3    3    0    0 -0.82612481999E+02  0.98765188806E+02  0.52191299164E+03  0.59835543258E+03  0.26278635458E+03 0.  0.
         25    1    3    3    0    0  0.82612481999E+02 -0.98765188806E+02  0.27686197835E+03  0.32996885892E+03  0.12509000000E+03 0.  0.
         25    1    4    4    0    0 -0.58754044997E+02  0.45184339139E+02  0.19329531863E+03  0.24187651935E+03  0.12509000000E+03 0.  0.
         25    1    4    4    0    0 -0.23858437003E+02  0.53580849666E+02  0.32861767300E+03  0.35647891323E+03  0.12509000000E+03 0.  0.
<mgrwt>
<rscale>  2 0.47301642E+03</rscale>
<asrwt>0</asrwt>
<pdfrwt beam="1">  1       21 0.12699259E+00 0.47301642E+03</pdfrwt>
<pdfrwt beam="2">  1       21 0.95256859E-02 0.47301642E+03</pdfrwt>
<totfact> 0.36592550E+04</totfact>
</mgrwt>
</event>
<event>
 7    0  0.4793433E-002  0.4616616E+03  0.7546771E-02  0.1024300E+00
         21   -1    0    0  502  501  0.00000000000E+00  0.00000000000E+00  0.10885063637E+03  0.10885063637E+03  0.00000000000E+00 0. -1.
         21   -1    0    0  501  502 -0.00000000000E+00 -0.00000000000E+00 -0.48950440720E+03  0.48950440720E+03  0.00000000000E+00 0. -1.
      99926    2    1    2    0    0 -0.35527136788E-14  0.00000000000E+00 -0.38065377082E+03  0.59835504357E+03  0.46166163467E+03 0.  0.
      99925    2    3    3    0    0  0.10754547454E+02  0.93822300794E+02 -0.33263636131E+03  0.43442986511E+03  0.26299063561E+03 0.  0.
         25    1    4    4    0    0 -0.33114374212E+02  0.41356639320E+02 -0.14379208950E+03  0.19781457605E+03  0.12509000000E+03 0.  0.
         25    1    3    3    0    0 -0.10754547454E+02 -0.93822300794E+02 -0.48017409515E+02  0.16392517846E+03  0.12509000000E+03 0.  0.
         25    1    4    4    0    0  0.43868921667E+02  0.52465661474E+02 -0.18884427181E+03  0.23661528906E+03  0.12509000000E+03 0.  0.
<mgrwt>
<rscale>  2 0.46166163E+03</rscale>
<asrwt>0</asrwt>
<pdfrwt beam="1">  1       21 0.16007447E-01 0.46166163E+03</pdfrwt>
<pdfrwt beam="2">  1       21 0.71985942E-01 0.46166163E+03</pdfrwt>
<totfact> 0.55784652E+04</totfact>
</mgrwt>
</event>
<event>
 7    0  0.4793433E-002  0.4488260E+03  0.7546771E-02  0.1028073E+00
         21   -1    0    0  502  501  0.00000000000E+00  0.00000000000E+00  0.28262585618E+03  0.28262585618E+03  0.00000000000E+00 0. -1.
         21   -1    0    0  501  502 -0.00000000000E+00 -0.00000000000E+00 -0.17819036211E+03  0.17819036211E+03  0.00000000000E+00 0. -1.
      99926    2    1    2    0    0  0.00000000000E+00 -0.71054273576E-14  0.10443549407E+03  0.46081621829E+03  0.44882604048E+03 0.  0.
      99925    2    3    3    0    0 -0.35078442189E+02 -0.54976126322E+02 -0.21564294248E+02  0.27166990897E+03  0.26284339269E+03 0.  0.
         25    1    4    4    0    0 -0.44760154089E+02  0.22888118856E+01 -0.88857978287E+01  0.13317347918E+03  0.12509000000E+03 0.  0.
         25    1    3    3    0    0  0.35078442189E+02  0.54976126322E+02  0.12599978832E+03  0.18914630932E+03  0.12509000000E+03 0.  0.
         25    1    4    4    0    0  0.96817119005E+01 -0.57264938208E+02 -0.12678496419E+02  0.13849642979E+03  0.12509000000E+03 0.  0.
<mgrwt>
<rscale>  2 0.44882604E+03</rscale>
<asrwt>0</asrwt>
<pdfrwt beam="1">  1       21 0.41562626E-01 0.44882604E+03</pdfrwt>
<pdfrwt beam="2">  1       21 0.26204465E-01 0.44882604E+03</pdfrwt>
<totfact> 0.71566221E+04</totfact>
</mgrwt>
</event>
<event>
 7    0  0.4793433E-002  0.4553356E+03  0.7546771E-02  0.1026143E+00
         21   -1    0    0  502  501  0.00000000000E+00  0.00000000000E+00  0.46446899483E+03  0.46446899483E+03  0.00000000000E+00 0.  1.
         21   -1    0    0  501  502 -0.00000000000E+00 -0.00000000000E+00 -0.11159545774E+03  0.11159545774E+03  0.00000000000E+00 0.  1.
      99926    2    1    2    0    0  0.14210854715E-13 -0.71054273576E-14  0.35287353710E+03  0.57606445257E+03  0.45533561285E+03 0.  0.
      99925    2    3    3    0    0 -0.86491859243E+02  0.44078833027E+02  0.29630001758E+03  0.40792208299E+03  0.26302650083E+03 0.  0.
         25    1    3    3    0    0  0.86491859243E+02 -0.44078833027E+02  0.56573519513E+02  0.16814236958E+03  0.12509000000E+03 0.  0.
         25    1    4    4    0    0 -0.21982731012E+02 -0.86873867321E+01  0.10768668882E+03  0.16674124325E+03  0.12509000000E+03 0.  0.
         25    1    4    4    0    0 -0.64509128231E+02  0.52766219759E+02  0.18861332876E+03  0.24118083974E+03  0.12509000000E+03 0.  0.
<mgrwt>
<rscale>  2 0.45533561E+03</rscale>
<asrwt>0</asrwt>
<pdfrwt beam="1">  1       21 0.68304263E-01 0.45533561E+03</pdfrwt>
<pdfrwt beam="2">  1       21 0.16411097E-01 0.45533561E+03</pdfrwt>
<totfact> 0.60016878E+04</totfact>
</mgrwt>
</event>
<event>
 7    0  0.4793433E-002  0.4519697E+03  0.7546771E-02  0.1027136E+00
         21   -1    0    0  502  501  0.00000000000E+00  0.00000000000E+00  0.15137732163E+03  0.15137732163E+03  0.00000000000E+00 0.  1.
         21   -1    0    0  501  502 -0.00000000000E+00 -0.00000000000E+00 -0.33736333889E+03  0.33736333889E+03  0.00000000000E+00 0.  1.
      99926    2    1    2    0    0  0.71054273576E-14  0.00000000000E+00 -0.18598601726E+03  0.48874066053E+03  0.45196972757E+03 0.  0.
      99925    2    3    3    0    0 -0.58051870388E+02 -0.39518912299E+02 -0.20877698246E+03  0.34348674396E+03  0.26355938758E+03 0.  0.
         25    1    4    4    0    0  0.10917464942E+02 -0.10948788533E+02 -0.11185159723E+03  0.16851514744E+03  0.12509000000E+03 0.  0.
         25    1    3    3    0    0  0.58051870388E+02  0.39518912299E+02  0.22790965202E+02  0.14525391657E+03  0.12509000000E+03 0.  0.
         25    1    4    4    0    0 -0.68969335330E+02 -0.28570123766E+02 -0.96925385228E+02  0.17497159652E+03  0.12509000000E+03 0.  0.
<mgrwt>
<rscale>  2 0.45196973E+03</rscale>
<asrwt>0</asrwt>
<pdfrwt beam="1">  1       21 0.22261371E-01 0.45196973E+03</pdfrwt>
<pdfrwt beam="2">  1       21 0.49612256E-01 0.45196973E+03</pdfrwt>
<totfact> 0.67682742E+04</totfact>
</mgrwt>
</event>
<event>
 7    0  0.4793433E-002  0.4463746E+03  0.7546771E-02  0.1028809E+00
         21   -1    0    0  502  501  0.00000000000E+00  0.00000000000E+00  0.11542346346E+03  0.11542346346E+03  0.00000000000E+00 0.  1.
         21   -1    0    0  501  502 -0.00000000000E+00 -0.00000000000E+00 -0.43156358418E+03  0.43156358418E+03  0.00000000000E+00 0.  1.
      99926    2    1    2    0    0  0.00000000000E+00  0.00000000000E+00 -0.31614012072E+03  0.54698704763E+03  0.44637456732E+03 0.  0.
      99925    2    3    3    0    0  0.68987092336E+02  0.25232737334E+02 -0.10894883882E+03  0.29406088185E+03  0.26307041417E+03 0.  0.
         25    1    4    4    0    0 -0.68510638935E+01  0.17763722496E+02 -0.45998124534E+02  0.13463217474E+03  0.12509000000E+03 0.  0.
         25    1    3    3    0    0 -0.68987092336E+02 -0.25232737334E+02 -0.20719128190E+03  0.25292616578E+03  0.12509000000E+03 0.  0.
         25    1    4    4    0    0  0.75838156230E+02  0.74690148375E+01 -0.62950714285E+02  0.15942870711E+03  0.12509000000E+03 0.  0.
<mgrwt>
<rscale>  2 0.44637457E+03</rscale>
<asrwt>0</asrwt>
<pdfrwt beam="1">  1       21 0.16974039E-01 0.44637457E+03</pdfrwt>
<pdfrwt beam="2">  1       21 0.63465231E-01 0.44637457E+03</pdfrwt>
<totfact> 0.66488916E+04</totfact>
</mgrwt>
</event>
<event>
 7    0  0.4793433E-002  0.4551099E+03  0.7546771E-02  0.1026209E+00
         21   -1    0    0  502  501  0.00000000000E+00  0.00000000000E+00  0.42849760421E+03  0.42849760421E+03  0.00000000000E+00 0.  1.
         21   -1    0    0  501  502 -0.00000000000E+00 -0.00000000000E+00 -0.12084374772E+03  0.12084374772E+03  0.00000000000E+00 0.  1.
      99926    2    1    2    0    0  0.00000000000E+00 -0.17763568394E-14  0.30765385649E+03  0.54934135193E+03  0.45510990489E+03 0.  0.
      99925    2    3    3    0    0 -0.94444289613E+02  0.12444917672E+02  0.26727010423E+03  0.38700541825E+03  0.26318298829E+03 0.  0.
         25    1    3    3    0    0  0.94444289613E+02 -0.12444917672E+02  0.40383752264E+02  0.16233593368E+03  0.12509000000E+03 0.  0.
         25    1    4    4    0    0 -0.43316881701E+02  0.21830731278E+02  0.81113235372E+02  0.15677945695E+03  0.12509000000E+03 0.  0.
         25    1    4    4    0    0 -0.51127407912E+02 -0.93858136061E+01  0.18615686885E+03  0.23022596130E+03  0.12509000000E+03 0.  0.
<mgrwt>
<rscale>  2 0.45510990E+03</rscale>
<asrwt>0</asrwt>
<pdfrwt beam="1">  1       21 0.63014353E-01 0.45510990E+03</pdfrwt>
<pdfrwt beam="2">  1       21 0.17771140E-01 0.45510990E+03</pdfrwt>
<totfact> 0.61856251E+04</totfact>
</mgrwt>
</event>
<event>
 7    0  0.4793433E-002  0.4551563E+03  0.7546771E-02  0.1026195E+00
         21   -1    0    0  502  501  0.00000000000E+00  0.00000000000E+00  0.10031104596E+03  0.10031104596E+03  0.00000000000E+00 0.  1.
         21   -1    0    0  501  502 -0.00000000000E+00 -0.00000000000E+00 -0.51631208437E+03  0.51631208437E+03  0.00000000000E+00 0.  1.
      99926    2    1    2    0    0  0.00000000000E+00  0.00000000000E+00 -0.41600103841E+03  0.61662313033E+03  0.45515625987E+03 0.  0.
      99925    2    3    3    0    0  0.85032524229E+01  0.64224152837E+02 -0.13575836125E+03  0.30296644969E+03  0.26298534156E+03 0.  0.
         25    1    3    3    0    0 -0.85032524229E+01 -0.64224152837E+02 -0.28024267716E+03  0.31365668064E+03  0.12509000000E+03 0.  0.
         25    1    4    4    0    0 -0.93174476966E+01 -0.23834381855E+01 -0.42854869374E+02  0.13257655727E+03  0.12509000000E+03 0.  0.
         25    1    4    4    0    0  0.17820700120E+02  0.66607591022E+02 -0.92903491877E+02  0.17038989242E+03  0.12509000000E+03 0.  0.
<mgrwt>
<rscale>  2 0.45515626E+03</rscale>
<asrwt>0</asrwt>
<pdfrwt beam="1">  1       21 0.14751624E-01 0.45515626E+03</pdfrwt>
<pdfrwt beam="2">  1       21 0.75928248E-01 0.45515626E+03</pdfrwt>
<totfact> 0.57595456E+04</totfact>
</mgrwt>
</event>
<event>
 7    0  0.4793433E-002  0.4544493E+03  0.7546771E-02  0.1026403E+00
         21   -1    0    0  502  501  0.00000000000E+00  0.00000000000E+00  0.22197942356E+03  0.22197942356E+03  0.00000000000E+00 0. -1.
         21   -1    0    0  501  502 -0.00000000000E+00 -0.00000000000E+00 -0.23259385188E+03  0.23259385188E+03  0.00000000000E+00 0. -1.
      99926    2    1    2    0    0  0.00000000000E+00  0.00000000000E+00 -0.10614428313E+02  0.45457327544E+03  0.45444933343E+03 0.  0.
      99925    2    3    3    0    0  0.54591104357E+02  0.70747141877E+02 -0.75357260039E+02  0.28776653362E+03  0.26295534691E+03 0.  0.
         25    1    4    4    0    0  0.33831846634E+01  0.67790819153E+02 -0.33078737713E+02  0.14611212163E+03  0.12509000000E+03 0.  0.
         25    1    4    4    0    0  0.51207919694E+02  0.29563227239E+01 -0.42278522326E+02  0.14165441198E+03  0.12509000000E+03 0.  0.
         25    1    3    3    0    0 -0.54591104357E+02 -0.70747141877E+02  0.64742831725E+02  0.16680674183E+03  0.12509000000E+03 0.  0.
<mgrwt>
<rscale>  2 0.45444933E+03</rscale>
<asrwt>0</asrwt>
<pdfrwt beam="1">  1       21 0.32644033E-01 0.45444933E+03</pdfrwt>
<pdfrwt beam="2">  1       21 0.34204978E-01 0.45444933E+03</pdfrwt>
<totfact> 0.68879210E+04</totfact>
</mgrwt>
</event>
<event>
 7    0  0.4793433E-002  0.4495837E+03  0.7546771E-02  0.1027846E+00
         21   -1    0    0  502  501  0.00000000000E+00  0.00000000000E+00  0.12256368055E+03  0.12256368055E+03  0.00000000000E+00 0. -1.
         21   -1    0    0  501  502 -0.00000000000E+00 -0.00000000000E+00 -0.41228666729E+03  0.41228666729E+03  0.00000000000E+00 0. -1.
      99926    2    1    2    0    0  0.00000000000E+00  0.00000000000E+00 -0.28972298674E+03  0.53485034784E+03  0.44958368024E+03 0.  0.
      99925    2    3    3    0    0 -0.17961409101E+02 -0.10232746573E+03 -0.14820869311E+03  0.31928753597E+03  0.26303078043E+03 0.  0.
         25    1    4    4    0    0 -0.15229291450E+02 -0.19815637756E+02 -0.99222063711E+02  0.16160791084E+03  0.12509000000E+03 0.  0.
         25    1    3    3    0    0  0.17961409101E+02  0.10232746573E+03 -0.14151429363E+03  0.21556281187E+03  0.12509000000E+03 0.  0.
         25    1    4    4    0    0 -0.27321176505E+01 -0.82511827977E+02 -0.48986629404E+02  0.15767962514E+03  0.12509000000E+03 0.  0.
<mgrwt>
<rscale>  2 0.44958368E+03</rscale>
<asrwt>0</asrwt>
<pdfrwt beam="1">  1       21 0.18024071E-01 0.44958368E+03</pdfrwt>
<pdfrwt beam="2">  1       21 0.60630391E-01 0.44958368E+03</pdfrwt>
<totfact> 0.65648219E+04</totfact>
</mgrwt>
</event>
<event>
 7    0  0.4793433E-002  0.4542550E+03  0.7546771E-02  0.1026461E+00
         21   -1    0    0  502  501  0.00000000000E+00  0.00000000000E+00  0.52213480180E+03  0.52213480180E+03  0.00000000000E+00 0.  1.
         21   -1    0    0  501  502 -0.00000000000E+00 -0.00000000000E+00 -0.98799965419E+02  0.98799965419E+02  0.00000000000E+00 0.  1.
      99926    2    1    2    0    0  0.00000000000E+00  0.00000000000E+00  0.42333483638E+03  0.62093476722E+03  0.45425499606E+03 0.  0.
      99925    2    3    3    0    0 -0.98910783959E+02  0.48191806766E+02  0.23493855015E+03  0.36944627407E+03  0.26303732369E+03 0.  0.
         25    1    3    3    0    0  0.98910783959E+02 -0.48191806766E+02  0.18839628623E+03  0.25148849316E+03  0.12509000000E+03 0.  0.
         25    1    4    4    0    0 -0.83276542848E+02  0.11903768904E+02  0.15294676382E+03  0.21474846441E+03  0.12509000000E+03 0.  0.
         25    1    4    4    0    0 -0.15634241111E+02  0.36288037862E+02  0.81991786325E+02  0.15469780965E+03  0.12509000000E+03 0.  0.
<mgrwt>
<rscale>  2 0.45425500E+03</rscale>
<asrwt>0</asrwt>
<pdfrwt beam="1">  1       21 0.76784528E-01 0.45425500E+03</pdfrwt>
<pdfrwt beam="2">  1       21 0.14529407E-01 0.45425500E+03</pdfrwt>
<totfact> 0.57746795E+04</totfact>
</mgrwt>
</event>
<event>
 7    0  0.4793433E-002  0.4532980E+03  0.7546771E-02  0.1026743E+00
         21   -1    0    0  502  501  0.00000000000E+00  0.00000000000E+00  0.54030785135E+03  0.54030785135E+03  0.00000000000E+00 0.  1.
         21   -1    0    0  501  502 -0.00000000000E+00 -0.00000000000E+00 -0.95075020370E+02  0.95075020370E+02  0.00000000000E+00 0.  1.
      99926    2    1    2    0    0  0.00000000000E+00  0.71054273576E-14  0.44523283098E+03  0.63538287172E+03  0.45329804753E+03 0.  0.
      99925    2    3    3    0    0 -0.87930769399E+02 -0.33553953134E+02  0.19775570211E+03  0.34255164833E+03  0.26339443062E+03 0.  0.
         25    1    4    4    0    0 -0.75182829334E+02 -0.33410237800E+02  0.13684633269E+03  0.20283769050E+03  0.12509000000E+03 0.  0.
         25    1    3    3    0    0  0.87930769399E+02  0.33553953134E+02  0.24747712887E+03  0.29283122339E+03  0.12509000000E+03 0.  0.
         25    1    4    4    0    0 -0.12747940065E+02 -0.14371533385E+00  0.60909369424E+02  0.13971395783E+03  0.12509000000E+03 0.  0.
<mgrwt>
<rscale>  2 0.45329805E+03</rscale>
<asrwt>0</asrwt>
<pdfrwt beam="1">  1       21 0.79457036E-01 0.45329805E+03</pdfrwt>
<pdfrwt beam="2">  1       21 0.13981621E-01 0.45329805E+03</pdfrwt>
<totfact> 0.57317605E+04</totfact>
</mgrwt>
</event>
<event>
 7    0  0.4793433E-002  0.4845443E+03  0.7546771E-02  0.1017894E+00
         21   -1    0    0  502  501  0.00000000000E+00  0.00000000000E+00  0.11466650308E+04  0.11466650308E+04  0.00000000000E+00 0.  1.
         21   -1    0    0  501  502 -0.00000000000E+00 -0.00000000000E+00 -0.51188273995E+02  0.51188273995E+02  0.00000000000E+00 0.  1.
      99926    2    1    2    0    0  0.00000000000E+00  0.00000000000E+00  0.10954767568E+04  0.11978533048E+04  0.48454433762E+03 0.  0.
      99925    2    3    3    0    0  0.75767065287E+02  0.11648297320E+03  0.65370604083E+03  0.71814734817E+03  0.26285945796E+03 0.  0.
         25    1    4    4    0    0  0.51898876537E+02  0.90490945276E+02  0.42417729496E+03  0.45437428429E+03  0.12509000000E+03 0.  0.
         25    1    3    3    0    0 -0.75767065287E+02 -0.11648297320E+03  0.44177071600E+03  0.47970595665E+03  0.12509000000E+03 0.  0.
         25    1    4    4    0    0  0.23868188750E+02  0.25992027928E+02  0.22952874586E+03  0.26377306388E+03  0.12509000000E+03 0.  0.
<mgrwt>
<rscale>  2 0.48454434E+03</rscale>
<asrwt>0</asrwt>
<pdfrwt beam="1">  1       21 0.16862719E+00 0.48454434E+03</pdfrwt>
<pdfrwt beam="2">  1       21 0.75276881E-02 0.48454434E+03</pdfrwt>
<totfact> 0.25763512E+04</totfact>
</mgrwt>
</event>
<event>
 7    0  0.4793433E-002  0.4569651E+03  0.7546771E-02  0.1025665E+00
         21   -1    0    0  502  501  0.00000000000E+00  0.00000000000E+00  0.37742892130E+02  0.37742892130E+02  0.00000000000E+00 0.  1.
         21   -1    0    0  501  502 -0.00000000000E+00 -0.00000000000E+00 -0.13831551076E+04  0.13831551076E+04  0.00000000000E+00 0.  1.
      99926    2    1    2    0    0  0.00000000000E+00  0.71054273576E-14 -0.13454122155E+04  0.14208979997E+04  0.45696509287E+03 0.  0.
      99925    2    3    3    0    0  0.14113652011E+02 -0.52420439954E+02 -0.53004811294E+03  0.59420989319E+03  0.26303478370E+03 0.  0.
         25    1    4    4    0    0 -0.11744191275E+02  0.82200247269E+01 -0.22098177863E+03  0.25433432608E+03  0.12509000000E+03 0.  0.
         25    1    4    4    0    0  0.25857843286E+02 -0.60640464681E+02 -0.30906633431E+03  0.33987556711E+03  0.12509000000E+03 0.  0.
         25    1    3    3    0    0 -0.14113652011E+02  0.52420439954E+02 -0.81536410254E+03  0.82668810655E+03  0.12509000000E+03 0.  0.
<mgrwt>
<rscale>  2 0.45696509E+03</rscale>
<asrwt>0</asrwt>
<pdfrwt beam="1">  1       21 0.55504266E-02 0.45696509E+03</pdfrwt>
<pdfrwt beam="2">  1       21 0.20340512E+00 0.45696509E+03</pdfrwt>
<totfact> 0.25390491E+04</totfact>
</mgrwt>
</event>
<event>
 7    0  0.4793433E-002  0.4108508E+03  0.7546771E-02  0.1040086E+00
         21   -1    0    0  502  501  0.00000000000E+00  0.00000000000E+00  0.15743562094E+03  0.15743562094E+03  0.00000000000E+00 0. -1.
         21   -1    0    0  501  502 -0.00000000000E+00 -0.00000000000E+00 -0.26804348075E+03  0.26804348075E+03  0.00000000000E+00 0. -1.
      99926    2    1    2    0    0  0.71054273576E-14  0.00000000000E+00 -0.11060785981E+03  0.42547910169E+03  0.41085078474E+03 0.  0.
      99925    2    3    3    0    0  0.36502507606E+02  0.34756666161E+02 -0.34586803627E+02  0.27066576897E+03  0.26367262392E+03 0.  0.
         25    1    3    3    0    0 -0.36502507606E+02 -0.34756666161E+02 -0.76021056180E+02  0.15481333272E+03  0.12509000000E+03 0.  0.
         25    1    4    4    0    0 -0.29413816692E+01  0.19637053615E+02  0.19194361905E+02  0.12810229205E+03  0.12509000000E+03 0.  0.
         25    1    4    4    0    0  0.39443889276E+02  0.15119612547E+02 -0.53781165533E+02  0.14256347692E+03  0.12509000000E+03 0.  0.
<mgrwt>
<rscale>  2 0.41085078E+03</rscale>
<asrwt>0</asrwt>
<pdfrwt beam="1">  1       21 0.23152298E-01 0.41085078E+03</pdfrwt>
<pdfrwt beam="2">  1       21 0.39418158E-01 0.41085078E+03</pdfrwt>
<totfact> 0.10229094E+05</totfact>
</mgrwt>
</event>
<event>
 7    0  0.4793433E-002  0.4577821E+03  0.7546771E-02  0.1025426E+00
         21   -1    0    0  502  501  0.00000000000E+00  0.00000000000E+00  0.24092605658E+03  0.24092605658E+03  0.00000000000E+00 0. -1.
         21   -1    0    0  501  502 -0.00000000000E+00 -0.00000000000E+00 -0.21745727648E+03  0.21745727648E+03  0.00000000000E+00 0. -1.
      99926    2    1    2    0    0  0.14210854715E-13  0.14210854715E-13  0.23468780095E+02  0.45838333306E+03  0.45778214949E+03 0.  0.
      99925    2    3    3    0    0 -0.77324607939E+02 -0.69253914557E+02 -0.36615960138E+02  0.28508335100E+03  0.26297640352E+03 0.  0.
         25    1    4    4    0    0 -0.59939204929E+02 -0.71263142689E+02 -0.28388932937E+02  0.15850736073E+03  0.12509000000E+03 0.  0.
         25    1    3    3    0    0  0.77324607939E+02  0.69253914557E+02  0.60084740234E+02  0.17329998206E+03  0.12509000000E+03 0.  0.
         25    1    4    4    0    0 -0.17385403010E+02  0.20092281320E+01 -0.82270272016E+01  0.12657599027E+03  0.12509000000E+03 0.  0.
<mgrwt>
<rscale>  2 0.45778215E+03</rscale>
<asrwt>0</asrwt>
<pdfrwt beam="1">  1       21 0.35430303E-01 0.45778215E+03</pdfrwt>
<pdfrwt beam="2">  1       21 0.31979011E-01 0.45778215E+03</pdfrwt>
<totfact> 0.66803381E+04</totfact>
</mgrwt>
</event>
<event>
 7    0  0.4793433E-002  0.4534459E+03  0.7546771E-02  0.1026699E+00
         21   -1    0    0  502  501  0.00000000000E+00  0.00000000000E+00  0.32142164382E+02  0.32142164382E+02  0.00000000000E+00 0.  1.
         21   -1    0    0  501  502 -0.00000000000E+00 -0.00000000000E+00 -0.15992480652E+04  0.15992480652E+04  0.00000000000E+00 0.  1.
      99926    2    1    2    0    0 -0.71054273576E-14  0.17763568394E-14 -0.15671059008E+04  0.16313902296E+04  0.45344589180E+03 0.  0.
      99925    2    3    3    0    0 -0.54235572092E+02  0.13591974479E+02 -0.63990525879E+03  0.69412037637E+03  0.26305535087E+03 0.  0.
         25    1    4    4    0    0 -0.47984219618E+02  0.42179513451E+02 -0.33618076052E+03  0.36434407986E+03  0.12509000000E+03 0.  0.
         25    1    3    3    0    0  0.54235572092E+02 -0.13591974479E+02 -0.92720064201E+03  0.93726985319E+03  0.12509000000E+03 0.  0.
         25    1    4    4    0    0 -0.62513524748E+01 -0.28587538972E+02 -0.30372449826E+03  0.32977629651E+03  0.12509000000E+03 0.  0.
<mgrwt>
<rscale>  2 0.45344589E+03</rscale>
<asrwt>0</asrwt>
<pdfrwt beam="1">  1       21 0.47267878E-02 0.45344589E+03</pdfrwt>
<pdfrwt beam="2">  1       21 0.23518359E+00 0.45344589E+03</pdfrwt>
<totfact> 0.20981673E+04</totfact>
</mgrwt>
</event>
<event>
 7    0  0.4793433E-002  0.4525089E+03  0.7546771E-02  0.1026976E+00
         21   -1    0    0  502  501  0.00000000000E+00  0.00000000000E+00  0.56161549901E+02  0.56161549901E+02  0.00000000000E+00 0.  1.
         21   -1    0    0  501  502 -0.00000000000E+00 -0.00000000000E+00 -0.91149684379E+03  0.91149684379E+03  0.00000000000E+00 0.  1.
      99926    2    1    2    0    0 -0.71054273576E-14  0.00000000000E+00 -0.85533529389E+03  0.96765839369E+03  0.45250889705E+03 0.  0.
      99925    2    3    3    0    0  0.57363642108E+02  0.90795988241E+02 -0.48137024878E+03  0.55896307689E+03  0.26303594050E+03 0.  0.
         25    1    3    3    0    0 -0.57363642108E+02 -0.90795988241E+02 -0.37396504511E+03  0.40869531681E+03  0.12509000000E+03 0.  0.
         25    1    4    4    0    0 -0.91233689577E+01  0.60424212590E+02 -0.23897635805E+03  0.27657102006E+03  0.12509000000E+03 0.  0.
         25    1    4    4    0    0  0.66487011065E+02  0.30371775651E+02 -0.24239389073E+03  0.28239205683E+03  0.12509000000E+03 0.  0.
<mgrwt>
<rscale>  2 0.45250890E+03</rscale>
<asrwt>0</asrwt>
<pdfrwt beam="1">  1       21 0.82590511E-02 0.45250890E+03</pdfrwt>
<pdfrwt beam="2">  1       21 0.13404366E+00 0.45250890E+03</pdfrwt>
<totfact> 0.41231111E+04</totfact>
</mgrwt>
</event>
<event>
 7    0  0.4793433E-002  0.4441100E+03  0.7546771E-02  0.1029493E+00
         21   -1    0    0  502  501  0.00000000000E+00  0.00000000000E+00  0.17782804830E+03  0.17782804830E+03  0.00000000000E+00 0.  1.
         21   -1    0    0  501  502 -0.00000000000E+00 -0.00000000000E+00 -0.27728142250E+03  0.27728142250E+03  0.00000000000E+00 0.  1.
      99926    2    1    2    0    0  0.00000000000E+00  0.14210854715E-13 -0.99453374200E+02  0.45510947080E+03  0.44410996023E+03 0.  0.
      99925    2    3    3    0    0  0.38738892847E+02 -0.58086523325E+02 -0.14030790449E+03  0.30614186776E+03  0.26298629074E+03 0.  0.
         25    1    3    3    0    0 -0.38738892847E+02  0.58086523325E+02  0.40854530294E+02  0.14896760304E+03  0.12509000000E+03 0.  0.
         25    1    4    4    0    0  0.18628469827E+02 -0.69308932483E+02 -0.85391149359E+02  0.16760043108E+03  0.12509000000E+03 0.  0.
         25    1    4    4    0    0  0.20110423020E+02  0.11222409158E+02 -0.54916755135E+02  0.13854143667E+03  0.12509000000E+03 0.  0.
<mgrwt>
<rscale>  2 0.44410996E+03</rscale>
<asrwt>0</asrwt>
<pdfrwt beam="1">  1       21 0.26151184E-01 0.44410996E+03</pdfrwt>
<pdfrwt beam="2">  1       21 0.40776680E-01 0.44410996E+03</pdfrwt>
<totfact> 0.74816325E+04</totfact>
</mgrwt>
</event>
<event>
 7    0  0.4793433E-002  0.4423085E+03  0.7546771E-02  0.1030041E+00
         21   -1    0    0  502  501  0.00000000000E+00  0.00000000000E+00  0.18429508375E+03  0.18429508375E+03  0.00000000000E+00 0.  1.
         21   -1    0    0  501  502 -0.00000000000E+00 -0.00000000000E+00 -0.26538524833E+03  0.26538524833E+03  0.00000000000E+00 0.  1.
      99926    2    1    2    0    0 -0.35527136788E-14 -0.17763568394E-14 -0.81090164579E+02  0.44968033207E+03  0.44230847410E+03 0.  0.
      99925    2    3    3    0    0  0.31652843892E+02  0.10890285001E+02 -0.14911024602E+03  0.30341092169E+03  0.26211413754E+03 0.  0.
         25    1    3    3    0    0 -0.31652843892E+02 -0.10890285001E+02  0.68020081444E+02  0.14626941038E+03  0.12509000000E+03 0.  0.
         25    1    4    4    0    0 -0.22404703228E+02  0.52467608485E+01 -0.82727596339E+02  0.15172627499E+03  0.12509000000E+03 0.  0.
         25    1    4    4    0    0  0.54057547120E+02  0.56435241527E+01 -0.66382649684E+02  0.15168464670E+03  0.12509000000E+03 0.  0.
<mgrwt>
<rscale>  2 0.44230847E+03</rscale>
<asrwt>0</asrwt>
<pdfrwt beam="1">  1       21 0.27102218E-01 0.44230847E+03</pdfrwt>
<pdfrwt beam="2">  1       21 0.39027242E-01 0.44230847E+03</pdfrwt>
<totfact> 0.76380967E+04</totfact>
</mgrwt>
</event>
<event>
 7    0  0.4793433E-002  0.4574440E+03  0.7546771E-02  0.1025525E+00
         21   -1    0    0  502  501  0.00000000000E+00  0.00000000000E+00  0.46964935727E+02  0.46964935727E+02  0.00000000000E+00 0. -1.
         21   -1    0    0  501  502 -0.00000000000E+00 -0.00000000000E+00 -0.11138893582E+04  0.11138893582E+04  0.00000000000E+00 0. -1.
      99926    2    1    2    0    0  0.00000000000E+00 -0.11102230246E-15 -0.10669244225E+04  0.11608542939E+04  0.45744395117E+03 0.  0.
      99925    2    3    3    0    0  0.10970392808E+03 -0.71104436128E+00 -0.76102990847E+03  0.81263824143E+03  0.26301888226E+03 0.  0.
         25    1    4    4    0    0  0.23141714463E+02 -0.74530877607E+01 -0.27039974309E+03  0.29892242577E+03  0.12509000000E+03 0.  0.
         25    1    3    3    0    0 -0.10970392808E+03  0.71104436128E+00 -0.30589451400E+03  0.34821605249E+03  0.12509000000E+03 0.  0.
         25    1    4    4    0    0  0.86562213617E+02  0.67420433994E+01 -0.49063016539E+03  0.51371581566E+03  0.12509000000E+03 0.  0.
<mgrwt>
<rscale>  2 0.45744395E+03</rscale>
<asrwt>0</asrwt>
<pdfrwt beam="1">  1       21 0.69066076E-02 0.45744395E+03</pdfrwt>
<pdfrwt beam="2">  1       21 0.16380727E+00 0.45744395E+03</pdfrwt>
<totfact> 0.32793002E+04</totfact>
</mgrwt>
</event>
<event>
 7    0  0.4793433E-002  0.4518989E+03  0.7546771E-02  0.1027157E+00
         21   -1    0    0  502  501  0.00000000000E+00  0.00000000000E+00  0.11834724454E+04  0.11834724454E+04  0.00000000000E+00 0. -1.
         21   -1    0    0  501  502 -0.00000000000E+00 -0.00000000000E+00 -0.43138439952E+02  0.43138439952E+02  0.00000000000E+00 0. -1.
      99926    2    1    2    0    0  0.00000000000E+00  0.00000000000E+00  0.11403340054E+04  0.12266108853E+04  0.45189890471E+03 0.  0.
      99925    2    3    3    0    0  0.10775792236E+03  0.22509095747E+02  0.71909591480E+03  0.77361257814E+03  0.26317115562E+03 0.  0.
         25    1    4    4    0    0  0.38547563623E+02 -0.26919951273E+02  0.35698960337E+03  0.38118195583E+03  0.12509000000E+03 0.  0.
         25    1    4    4    0    0  0.69210358740E+02  0.49429047021E+02  0.36210631143E+03  0.39243062231E+03  0.12509000000E+03 0.  0.
         25    1    3    3    0    0 -0.10775792236E+03 -0.22509095747E+02  0.42123809061E+03  0.45299830717E+03  0.12509000000E+03 0.  0.
<mgrwt>
<rscale>  2 0.45189890E+03</rscale>
<asrwt>0</asrwt>
<pdfrwt beam="1">  1       21 0.17404004E+00 0.45189890E+03</pdfrwt>
<pdfrwt beam="2">  1       21 0.63438890E-02 0.45189890E+03</pdfrwt>
<totfact> 0.32090625E+04</totfact>
</mgrwt>
</event>
<event>
 7    0  0.4793433E-002  0.4565828E+03  0.7546771E-02  0.1025777E+00
         21   -1    0    0  502  501  0.00000000000E+00  0.00000000000E+00  0.18202733428E+03  0.18202733428E+03  0.00000000000E+00 0. -1.
         21   -1    0    0  501  502 -0.00000000000E+00 -0.00000000000E+00 -0.28631392656E+03  0.28631392656E+03  0.00000000000E+00 0. -1.
      99926    2    1    2    0    0  0.71054273576E-14  0.00000000000E+00 -0.10428659227E+03  0.46834126084E+03  0.45658278907E+03 0.  0.
      99925    2    3    3    0    0 -0.47969585899E+02  0.10411047657E+03 -0.69111583913E+02  0.29506442506E+03  0.26295728057E+03 0.  0.
         25    1    4    4    0    0  0.27447331613E+01  0.67949706381E+02 -0.61567332739E+02  0.15512169648E+03  0.12509000000E+03 0.  0.
         25    1    4    4    0    0 -0.50714319060E+02  0.36160770189E+02 -0.75442511744E+01  0.13994272859E+03  0.12509000000E+03 0.  0.
         25    1    3    3    0    0  0.47969585899E+02 -0.10411047657E+03 -0.35175008360E+02  0.17327683577E+03  0.12509000000E+03 0.  0.
<mgrwt>
<rscale>  2 0.45658279E+03</rscale>
<asrwt>0</asrwt>
<pdfrwt beam="1">  1       21 0.26768726E-01 0.45658279E+03</pdfrwt>
<pdfrwt beam="2">  1       21 0.42104989E-01 0.45658279E+03</pdfrwt>
<totfact> 0.66717958E+04</totfact>
</mgrwt>
</event>
<event>
 7    0  0.4793433E-002  0.4554684E+03  0.7546771E-02  0.1026104E+00
         21   -1    0    0  502  501  0.00000000000E+00  0.00000000000E+00  0.29720565707E+03  0.29720565707E+03  0.00000000000E+00 0.  1.
         21   -1    0    0  501  502 -0.00000000000E+00 -0.00000000000E+00 -0.17450161726E+03  0.17450161726E+03  0.00000000000E+00 0.  1.
      99926    2    1    2    0    0  0.13322676296E-14  0.00000000000E+00  0.12270403982E+03  0.47170727433E+03  0.45546840864E+03 0.  0.
      99925    2    3    3    0    0  0.30427046267E+01  0.42010777225E+02  0.18642487656E+03  0.32513982709E+03  0.26303518606E+03 0.  0.
         25    1    4    4    0    0  0.16936044151E+02  0.54002433457E+02  0.11987372345E+03  0.18226439610E+03  0.12509000000E+03 0.  0.
         25    1    3    3    0    0 -0.30427046267E+01 -0.42010777225E+02 -0.63720836740E+02  0.14656744724E+03  0.12509000000E+03 0.  0.
         25    1    4    4    0    0 -0.13893339525E+02 -0.11991656231E+02  0.66551153108E+02  0.14287543100E+03  0.12509000000E+03 0.  0.
<mgrwt>
<rscale>  2 0.45546841E+03</rscale>
<asrwt>0</asrwt>
<pdfrwt beam="1">  1       21 0.43706715E-01 0.45546841E+03</pdfrwt>
<pdfrwt beam="2">  1       21 0.25662002E-01 0.45546841E+03</pdfrwt>
<totfact> 0.67059407E+04</totfact>
</mgrwt>
</event>
<event>
 7    0  0.4793433E-002  0.4287001E+03  0.7546771E-02  0.1034271E+00
         21   -1    0    0  502  501  0.00000000000E+00  0.00000000000E+00  0.48271211545E+03  0.48271211545E+03  0.00000000000E+00 0. -1.
         21   -1    0    0  501  502 -0.00000000000E+00 -0.00000000000E+00 -0.95182932121E+02  0.95182932121E+02  0.00000000000E+00 0. -1.
      99926    2    1    2    0    0  0.14210854715E-13 -0.71054273576E-14  0.38752918333E+03  0.57789504758E+03  0.42870014938E+03 0.  0.
      99925    2    3    3    0    0  0.67048188770E+02 -0.51663876865E+02  0.23350840652E+03  0.36217642627E+03  0.26359243547E+03 0.  0.
         25    1    4    4    0    0 -0.68267363967E+01 -0.27926967196E+02  0.91379765996E+02  0.15755725804E+03  0.12509000000E+03 0.  0.
         25    1    3    3    0    0 -0.67048188770E+02  0.51663876865E+02  0.15402077681E+03  0.21571862131E+03  0.12509000000E+03 0.  0.
         25    1    4    4    0    0  0.73874925167E+02 -0.23736909669E+02  0.14212864053E+03  0.20461916823E+03  0.12509000000E+03 0.  0.
<mgrwt>
<rscale>  2 0.42870015E+03</rscale>
<asrwt>0</asrwt>
<pdfrwt beam="1">  1       21 0.70987075E-01 0.42870015E+03</pdfrwt>
<pdfrwt beam="2">  1       21 0.13997490E-01 0.42870015E+03</pdfrwt>
<totfact> 0.74354980E+04</totfact>
</mgrwt>
</event>
<event>
 6    0  0.4793433E-002  0.4573478E+03  0.7546771E-02  0.1025553E+00
         21   -1    0    0  502  501  0.00000000000E+00  0.00000000000E+00  0.30363286346E+03  0.30363286346E+03  0.00000000000E+00 0.  1.
         21   -1    0    0  501  502 -0.00000000000E+00 -0.00000000000E+00 -0.17222031566E+03  0.17222031566E+03  0.00000000000E+00 0.  1.
      99926    2    1    2    0    0  0.00000000000E+00 -0.35527136788E-14  0.13141254780E+03  0.47585317912E+03  0.45734777835E+03 0.  0.
         25    1    3    3    0    0 -0.32105193649E+02 -0.37652802424E+02  0.42289704370E+02  0.14101207106E+03  0.12509000000E+03 0.  0.
         25    1    3    3    0    0 -0.82735415247E+02  0.16505924555E+02  0.53222215482E+02  0.15999283360E+03  0.12509000000E+03 0.  0.
         25    1    3    3    0    0  0.11484060890E+03  0.21146877869E+02  0.35900627949E+02  0.17484827446E+03  0.12509000000E+03 0.  0.
<mgrwt>
<rscale>  2 0.45734778E+03</rscale>
<asrwt>0</asrwt>
<pdfrwt beam="1">  1       21 0.44651892E-01 0.45734778E+03</pdfrwt>
<pdfrwt beam="2">  1       21 0.25326517E-01 0.45734778E+03</pdfrwt>
<totfact> 0.65769314E+04</totfact>
</mgrwt>
</event>
<event>
 7    0  0.4793433E-002  0.4467161E+03  0.7546771E-02  0.1028706E+00
         21   -1    0    0  502  501  0.00000000000E+00  0.00000000000E+00  0.56390885820E+03  0.56390885820E+03  0.00000000000E+00 0.  1.
         21   -1    0    0  501  502 -0.00000000000E+00 -0.00000000000E+00 -0.88469664171E+02  0.88469664171E+02  0.00000000000E+00 0.  1.
      99926    2    1    2    0    0 -0.14210854715E-13  0.00000000000E+00  0.47543919403E+03  0.65237852237E+03  0.44671613944E+03 0.  0.
      99925    2    3    3    0    0 -0.84973406133E+02 -0.61361221844E+02  0.31633033885E+03  0.42445569510E+03  0.26289175439E+03 0.  0.
         25    1    4    4    0    0 -0.12179178935E+02 -0.29950258690E+02  0.10547360905E+03  0.16678591278E+03  0.12509000000E+03 0.  0.
         25    1    3    3    0    0  0.84973406133E+02  0.61361221844E+02  0.15910885518E+03  0.22792282727E+03  0.12509000000E+03 0.  0.
         25    1    4    4    0    0 -0.72794227198E+02 -0.31410963153E+02  0.21085672979E+03  0.25766978232E+03  0.12509000000E+03 0.  0.
<mgrwt>
<rscale>  2 0.44671614E+03</rscale>
<asrwt>0</asrwt>
<pdfrwt beam="1">  1       21 0.82927771E-01 0.44671614E+03</pdfrwt>
<pdfrwt beam="2">  1       21 0.13010245E-01 0.44671614E+03</pdfrwt>
<totfact> 0.59348542E+04</totfact>
</mgrwt>
</event>
<event>
 6    0  0.4793433E-002  0.4518257E+03  0.7546771E-02  0.1027179E+00
         21   -1    0    0  502  501  0.00000000000E+00  0.00000000000E+00  0.32205829053E+03  0.32205829053E+03  0.00000000000E+00 0. -1.
         21   -1    0    0  501  502 -0.00000000000E+00 -0.00000000000E+00 -0.15847008756E+03  0.15847008756E+03  0.00000000000E+00 0. -1.
      99926    2    1    2    0    0  0.00000000000E+00 -0.14210854715E-13  0.16358820297E+03  0.48052837808E+03  0.45182565442E+03 0.  0.
         25    1    3    3    0    0  0.46329694610E+02 -0.17798058575E+01  0.85009500690E+02  0.15818891118E+03  0.12509000000E+03 0.  0.
         25    1    3    3    0    0  0.17729587481E+02  0.82128024302E+02  0.35259309352E+02  0.15475812626E+03  0.12509000000E+03 0.  0.
         25    1    3    3    0    0 -0.64059282091E+02 -0.80348218444E+02  0.43319392925E+02  0.16758134065E+03  0.12509000000E+03 0.  0.
<mgrwt>
<rscale>  2 0.45182565E+03</rscale>
<asrwt>0</asrwt>
<pdfrwt beam="1">  1       21 0.47361513E-01 0.45182565E+03</pdfrwt>
<pdfrwt beam="2">  1       21 0.23304425E-01 0.45182565E+03</pdfrwt>
<totfact> 0.68368214E+04</totfact>
</mgrwt>
</event>
<event>
 7    0  0.4793433E-002  0.4536167E+03  0.7546771E-02  0.1026649E+00
         21   -1    0    0  502  501  0.00000000000E+00  0.00000000000E+00  0.18311782058E+03  0.18311782058E+03  0.00000000000E+00 0. -1.
         21   -1    0    0  501  502 -0.00000000000E+00 -0.00000000000E+00 -0.28092309053E+03  0.28092309053E+03  0.00000000000E+00 0. -1.
      99926    2    1    2    0    0  0.00000000000E+00  0.00000000000E+00 -0.97805269947E+02  0.46404091111E+03  0.45361668438E+03 0.  0.
      99925    2    3    3    0    0  0.79049658923E+02  0.64337199209E+02 -0.14007933546E+02  0.28222335017E+03  0.26280348818E+03 0.  0.
         25    1    3    3    0    0 -0.79049658923E+02 -0.64337199209E+02 -0.83797336401E+02  0.18181756094E+03  0.12509000000E+03 0.  0.
         25    1    4    4    0    0  0.46435369540E+02  0.29107577357E+01  0.20423917047E+02  0.13501614919E+03  0.12509000000E+03 0.  0.
         25    1    4    4    0    0  0.32614289384E+02  0.61426441473E+02 -0.34431850592E+02  0.14720720098E+03  0.12509000000E+03 0.  0.
<mgrwt>
<rscale>  2 0.45361668E+03</rscale>
<asrwt>0</asrwt>
<pdfrwt beam="1">  1       21 0.26929092E-01 0.45361668E+03</pdfrwt>
<pdfrwt beam="2">  1       21 0.41312219E-01 0.45361668E+03</pdfrwt>
<totfact> 0.68632062E+04</totfact>
</mgrwt>
</event>
<event>
 7    0  0.4793433E-002  0.4595926E+03  0.7546771E-02  0.1024899E+00
         21   -1    0    0  502  501  0.00000000000E+00  0.00000000000E+00  0.18469805518E+04  0.18469805518E+04  0.00000000000E+00 0. -1.
         21   -1    0    0  501  502 -0.00000000000E+00 -0.00000000000E+00 -0.28590625817E+02  0.28590625817E+02  0.00000000000E+00 0. -1.
      99926    2    1    2    0    0  0.00000000000E+00  0.00000000000E+00  0.18183899260E+04  0.18755711776E+04  0.45959255802E+03 0.  0.
      99925    2    3    3    0    0 -0.10779482884E+03  0.43752488400E+02  0.12025331506E+04  0.12364615772E+04  0.26309171103E+03 0.  0.
         25    1    4    4    0    0 -0.82970669695E+02  0.10047365780E+02  0.52123398495E+03  0.54251032871E+03  0.12509000000E+03 0.  0.
         25    1    4    4    0    0 -0.24824159146E+02  0.33705122620E+02  0.68129916561E+03  0.69395124852E+03  0.12509000000E+03 0.  0.
         25    1    3    3    0    0  0.10779482884E+03 -0.43752488400E+02  0.61585677540E+03  0.63910960036E+03  0.12509000000E+03 0.  0.
<mgrwt>
<rscale>  2 0.45959256E+03</rscale>
<asrwt>0</asrwt>
<pdfrwt beam="1">  1       21 0.27161471E+00 0.45959256E+03</pdfrwt>
<pdfrwt beam="2">  1       21 0.42045050E-02 0.45959256E+03</pdfrwt>
<totfact> 0.15297108E+04</totfact>
</mgrwt>
</event>
<event>
 7    0  0.4793433E-002  0.4487806E+03  0.7546771E-02  0.1028086E+00
         21   -1    0    0  502  501  0.00000000000E+00  0.00000000000E+00  0.57325779139E+03  0.57325779139E+03  0.00000000000E+00 0.  1.
         21   -1    0    0  501  502 -0.00000000000E+00 -0.00000000000E+00 -0.87833094676E+02  0.87833094676E+02  0.00000000000E+00 0.  1.
      99926    2    1    2    0    0  0.00000000000E+00  0.00000000000E+00  0.48542469671E+03  0.66109088606E+03  0.44878059613E+03 0.  0.
      99925    2    3    3    0    0  0.42040482030E+02 -0.84508345822E+02  0.23211441586E+03  0.36322737852E+03  0.26296000421E+03 0.  0.
         25    1    3    3    0    0 -0.42040482030E+02  0.84508345822E+02  0.25331028085E+03  0.29786350754E+03  0.12509000000E+03 0.  0.
         25    1    4    4    0    0  0.22690334202E+02 -0.39592387776E+02  0.16808449362E+03  0.21443487014E+03  0.12509000000E+03 0.  0.
         25    1    4    4    0    0  0.19350147829E+02 -0.44915958047E+02  0.64029922247E+02  0.14879250838E+03  0.12509000000E+03 0.  0.
<mgrwt>
<rscale>  2 0.44878060E+03</rscale>
<asrwt>0</asrwt>
<pdfrwt beam="1">  1       21 0.84302615E-01 0.44878060E+03</pdfrwt>
<pdfrwt beam="2">  1       21 0.12916632E-01 0.44878060E+03</pdfrwt>
<totfact> 0.57851703E+04</totfact>
</mgrwt>
</event>
<event>
 7    0  0.4793433E-002  0.4647785E+03  0.7546771E-02  0.1023404E+00
         21   -1    0    0  502  501  0.00000000000E+00  0.00000000000E+00  0.14834981115E+03  0.14834981115E+03  0.00000000000E+00 0.  1.
         21   -1    0    0  501  502 -0.00000000000E+00 -0.00000000000E+00 -0.36403668561E+03  0.36403668561E+03  0.00000000000E+00 0.  1.
      99926    2    1    2    0    0  0.00000000000E+00  0.00000000000E+00 -0.21568687446E+03  0.51238649676E+03  0.46477854323E+03 0.  0.
      99925    2    3    3    0    0 -0.43689067738E+02 -0.11323547628E+03 -0.14801694010E+03  0.32541661725E+03  0.26316525701E+03 0.  0.
         25    1    3    3    0    0  0.43689067738E+02  0.11323547628E+03 -0.67669934354E+02  0.18696987951E+03  0.12509000000E+03 0.  0.
         25    1    4    4    0    0 -0.92130474154E+00 -0.58283659198E+02 -0.11214591243E+03  0.17782589099E+03  0.12509000000E+03 0.  0.
         25    1    4    4    0    0 -0.42767762997E+02 -0.54951817083E+02 -0.35871027675E+02  0.14759072626E+03  0.12509000000E+03 0.  0.
<mgrwt>
<rscale>  2 0.46477854E+03</rscale>
<asrwt>0</asrwt>
<pdfrwt beam="1">  1       21 0.21816149E-01 0.46477854E+03</pdfrwt>
<pdfrwt beam="2">  1       21 0.53534806E-01 0.46477854E+03</pdfrwt>
<totfact> 0.59643731E+04</totfact>
</mgrwt>
</event>
<event>
 7    0  0.4793433E-002  0.4558256E+03  0.7546771E-02  0.1025999E+00
         21   -1    0    0  502  501  0.00000000000E+00  0.00000000000E+00  0.62619976270E+02  0.62619976270E+02  0.00000000000E+00 0. -1.
         21   -1    0    0  501  502 -0.00000000000E+00 -0.00000000000E+00 -0.82951556939E+03  0.82951556939E+03  0.00000000000E+00 0. -1.
      99926    2    1    2    0    0  0.35527136788E-14  0.00000000000E+00 -0.76689559312E+03  0.89213554566E+03  0.45582560380E+03 0.  0.
      99925    2    3    3    0    0 -0.17249410746E+02  0.91341658900E+02 -0.35308953338E+03  0.44995480886E+03  0.26295678468E+03 0.  0.
         25    1    4    4    0    0  0.96797519101E+01  0.12307029982E+02 -0.19086291824E+03  0.22873854560E+03  0.12509000000E+03 0.  0.
         25    1    4    4    0    0 -0.26929162656E+02  0.79034628918E+02 -0.16222661514E+03  0.22121626326E+03  0.12509000000E+03 0.  0.
         25    1    3    3    0    0  0.17249410746E+02 -0.91341658900E+02 -0.41380605974E+03  0.44218073680E+03  0.12509000000E+03 0.  0.
<mgrwt>
<rscale>  2 0.45582560E+03</rscale>
<asrwt>0</asrwt>
<pdfrwt beam="1">  1       21 0.92088195E-02 0.45582560E+03</pdfrwt>
<pdfrwt beam="2">  1       21 0.12198759E+00 0.45582560E+03</pdfrwt>
<totfact> 0.43294890E+04</totfact>
</mgrwt>
</event>
<event>
 7    0  0.4793433E-002  0.4682531E+03  0.7546771E-02  0.1022414E+00
         21   -1    0    0  502  501  0.00000000000E+00  0.00000000000E+00  0.25024183146E+03  0.25024183146E+03  0.00000000000E+00 0.  1.
         21   -1    0    0  501  502 -0.00000000000E+00 -0.00000000000E+00 -0.21904905575E+03  0.21904905575E+03  0.00000000000E+00 0.  1.
      99926    2    1    2    0    0 -0.35527136788E-14  0.14210854715E-13  0.31192775707E+02  0.46929088722E+03  0.46825308068E+03 0.  0.
      99925    2    3    3    0    0 -0.17598478901E+02  0.84274704826E+02 -0.71693500692E+02  0.28586508122E+03  0.26299611078E+03 0.  0.
         25    1    4    4    0    0  0.26647287060E+02  0.36317101529E+02 -0.14930054277E+02  0.13378873044E+03  0.12509000000E+03 0.  0.
         25    1    4    4    0    0 -0.44245765960E+02  0.47957603297E+02 -0.56763446416E+02  0.15207635079E+03  0.12509000000E+03 0.  0.
         25    1    3    3    0    0  0.17598478901E+02 -0.84274704826E+02  0.10288627640E+03  0.18342580599E+03  0.12509000000E+03 0.  0.
<mgrwt>
<rscale>  2 0.46825308E+03</rscale>
<asrwt>0</asrwt>
<pdfrwt beam="1">  1       21 0.36800269E-01 0.46825308E+03</pdfrwt>
<pdfrwt beam="2">  1       21 0.32213096E-01 0.46825308E+03</pdfrwt>
<totfact> 0.60820939E+04</totfact>
</mgrwt>
</event>
<event>
 7    0  0.4793433E-002  0.4389675E+03  0.7546771E-02  0.1031064E+00
         21   -1    0    0  502  501  0.00000000000E+00  0.00000000000E+00  0.15648654095E+04  0.15648654095E+04  0.00000000000E+00 0.  1.
         21   -1    0    0  501  502 -0.00000000000E+00 -0.00000000000E+00 -0.30784189722E+02  0.30784189722E+02  0.00000000000E+00 0.  1.
      99926    2    1    2    0    0  0.00000000000E+00  0.35527136788E-14  0.15340812198E+04  0.15956495992E+04  0.43896748697E+03 0.  0.
      99925    2    3    3    0    0 -0.36601857498E+02 -0.20703661581E+02  0.12994202165E+04  0.13264254693E+04  0.26295111516E+03 0.  0.
         25    1    3    3    0    0  0.36601857498E+02  0.20703661581E+02  0.23466100325E+03  0.26922412990E+03  0.12509000000E+03 0.  0.
         25    1    4    4    0    0  0.15158162954E+02  0.13050220041E+02  0.63589043291E+03  0.64838586422E+03  0.12509000000E+03 0.  0.
         25    1    4    4    0    0 -0.51760020453E+02 -0.33753881622E+02  0.66352978362E+03  0.67803960510E+03  0.12509000000E+03 0.  0.
<mgrwt>
<rscale>  2 0.43896749E+03</rscale>
<asrwt>0</asrwt>
<pdfrwt beam="1">  1       21 0.23012721E+00 0.43896749E+03</pdfrwt>
<pdfrwt beam="2">  1       21 0.45270878E-02 0.43896749E+03</pdfrwt>
<totfact> 0.24431276E+04</totfact>
</mgrwt>
</event>
<event>
 7    0  0.4793433E-002  0.4628369E+03  0.7546771E-02  0.1023962E+00
         21   -1    0    0  502  501  0.00000000000E+00  0.00000000000E+00  0.91126812843E+03  0.91126812843E+03  0.00000000000E+00 0.  1.
         21   -1    0    0  501  502 -0.00000000000E+00 -0.00000000000E+00 -0.58769201996E+02  0.58769201996E+02  0.00000000000E+00 0.  1.
      99926    2    1    2    0    0 -0.44408920985E-15  0.00000000000E+00  0.85249892643E+03  0.97003733042E+03  0.46283690739E+03 0.  0.
      99925    2    3    3    0    0  0.94264807708E+00  0.43654890097E+02  0.29777624360E+03  0.39971163315E+03  0.26304383743E+03 0.  0.
         25    1    4    4    0    0  0.24378993217E+02  0.45436573550E+02  0.18804150838E+03  0.23165909113E+03  0.12509000000E+03 0.  0.
         25    1    3    3    0    0 -0.94264807708E+00 -0.43654890097E+02  0.55472268283E+03  0.57032569727E+03  0.12509000000E+03 0.  0.
         25    1    4    4    0    0 -0.23436345140E+02 -0.17816834521E+01  0.10973473521E+03  0.16805254203E+03  0.12509000000E+03 0.  0.
<mgrwt>
<rscale>  2 0.46283691E+03</rscale>
<asrwt>0</asrwt>
<pdfrwt beam="1">  1       21 0.13401001E+00 0.46283691E+03</pdfrwt>
<pdfrwt beam="2">  1       21 0.86425303E-02 0.46283691E+03</pdfrwt>
<totfact> 0.37960197E+04</totfact>
</mgrwt>
</event>
<event>
 7    0  0.4793433E-002  0.4474893E+03  0.7546771E-02  0.1028473E+00
         21   -1    0    0  502  501  0.00000000000E+00  0.00000000000E+00  0.62204706193E+03  0.62204706193E+03  0.00000000000E+00 0.  1.
         21   -1    0    0  501  502 -0.00000000000E+00 -0.00000000000E+00 -0.80478899214E+02  0.80478899214E+02  0.00000000000E+00 0.  1.
      99926    2    1    2    0    0 -0.14210854715E-13 -0.11102230246E-14  0.54156816272E+03  0.70252596114E+03  0.44748927497E+03 0.  0.
      99925    2    3    3    0    0 -0.91304107931E+02 -0.16510441562E+01  0.42757367396E+03  0.51022042914E+03  0.26299519687E+03 0.  0.
         25    1    4    4    0    0 -0.66674883712E+02  0.30040022517E+02  0.19264303859E+03  0.24105350337E+03  0.12509000000E+03 0.  0.
         25    1    3    3    0    0  0.91304107931E+02  0.16510441562E+01  0.11399448876E+03  0.19230553200E+03  0.12509000000E+03 0.  0.
         25    1    4    4    0    0 -0.24629224219E+02 -0.31691066674E+02  0.23493063537E+03  0.26916692577E+03  0.12509000000E+03 0.  0.
<mgrwt>
<rscale>  2 0.44748927E+03</rscale>
<asrwt>0</asrwt>
<pdfrwt beam="1">  1       21 0.91477507E-01 0.44748927E+03</pdfrwt>
<pdfrwt beam="2">  1       21 0.11835133E-01 0.44748927E+03</pdfrwt>
<totfact> 0.56003306E+04</totfact>
</mgrwt>
</event>
<event>
 7    0  0.4793433E-002  0.4603964E+03  0.7546771E-02  0.1024666E+00
         21   -1    0    0  502  501  0.00000000000E+00  0.00000000000E+00  0.11080180197E+03  0.11080180197E+03  0.00000000000E+00 0.  1.
         21   -1    0    0  501  502 -0.00000000000E+00 -0.00000000000E+00 -0.47825231460E+03  0.47825231460E+03  0.00000000000E+00 0.  1.
      99926    2    1    2    0    0 -0.14210854715E-13  0.00000000000E+00 -0.36745051263E+03  0.58905411657E+03  0.46039643028E+03 0.  0.
      99925    2    3    3    0    0  0.80755219279E+02 -0.35780617966E+02 -0.33067366822E+03  0.43156855391E+03  0.26287769742E+03 0.  0.
         25    1    4    4    0    0  0.80603249764E+02 -0.24158720819E+02 -0.16265650513E+03  0.22177730818E+03  0.12509000000E+03 0.  0.
         25    1    4    4    0    0  0.15196951471E+00 -0.11621897147E+02 -0.16801716309E+03  0.20979124572E+03  0.12509000000E+03 0.  0.
         25    1    3    3    0    0 -0.80755219279E+02  0.35780617966E+02 -0.36776844404E+02  0.15748556266E+03  0.12509000000E+03 0.  0.
<mgrwt>
<rscale>  2 0.46039643E+03</rscale>
<asrwt>0</asrwt>
<pdfrwt beam="1">  1       21 0.16294383E-01 0.46039643E+03</pdfrwt>
<pdfrwt beam="2">  1       21 0.70331221E-01 0.46039643E+03</pdfrwt>
<totfact> 0.56891432E+04</totfact>
</mgrwt>
</event>
<event>
 7    0  0.4793433E-002  0.4631133E+03  0.7546771E-02  0.1023882E+00
         21   -1    0    0  502  501  0.00000000000E+00  0.00000000000E+00  0.10692272396E+04  0.10692272396E+04  0.00000000000E+00 0. -1.
         21   -1    0    0  501  502 -0.00000000000E+00 -0.00000000000E+00 -0.50146958009E+02  0.50146958009E+02  0.00000000000E+00 0. -1.
      99926    2    1    2    0    0  0.00000000000E+00  0.00000000000E+00  0.10190802816E+04  0.11193741976E+04  0.46311334891E+03 0.  0.
      99925    2    3    3    0    0 -0.73665618895E+02  0.94053665797E+02  0.67624055563E+03  0.73536989912E+03  0.26304920452E+03 0.  0.
         25    1    3    3    0    0  0.73665618895E+02 -0.94053665797E+02  0.34283972592E+03  0.38400429845E+03  0.12509000000E+03 0.  0.
         25    1    4    4    0    0 -0.31836833211E+02  0.66852254054E+02  0.44059796395E+03  0.46395784481E+03  0.12509000000E+03 0.  0.
         25    1    4    4    0    0 -0.41828785685E+02  0.27201411743E+02  0.23564259168E+03  0.27141205431E+03  0.12509000000E+03 0.  0.
<mgrwt>
<rscale>  2 0.46311335E+03</rscale>
<asrwt>0</asrwt>
<pdfrwt beam="1">  1       21 0.15723929E+00 0.46311335E+03</pdfrwt>
<pdfrwt beam="2">  1       21 0.73745533E-02 0.46311335E+03</pdfrwt>
<totfact> 0.32703381E+04</totfact>
</mgrwt>
</event>
<event>
 7    0  0.4793433E-002  0.4485062E+03  0.7546771E-02  0.1028168E+00
         21   -1    0    0  502  501  0.00000000000E+00  0.00000000000E+00  0.43351019478E+02  0.43351019478E+02  0.00000000000E+00 0. -1.
         21   -1    0    0  501  502 -0.00000000000E+00 -0.00000000000E+00 -0.11600524294E+04  0.11600524294E+04  0.00000000000E+00 0. -1.
      99926    2    1    2    0    0  0.00000000000E+00  0.00000000000E+00 -0.11167014099E+04  0.12034034489E+04  0.44850621160E+03 0.  0.
      99925    2    3    3    0    0  0.44745195852E+02 -0.91909974484E+02 -0.79124170196E+03  0.84005636196E+03  0.26302411371E+03 0.  0.
         25    1    3    3    0    0 -0.44745195852E+02  0.91909974484E+02 -0.32545970796E+03  0.36334708691E+03  0.12509000000E+03 0.  0.
         25    1    4    4    0    0  0.11603292743E+02 -0.85836005631E+02 -0.45193128900E+03  0.47685621978E+03  0.12509000000E+03 0.  0.
         25    1    4    4    0    0  0.33141903109E+02 -0.60739688538E+01 -0.33931041295E+03  0.36320014218E+03  0.12509000000E+03 0.  0.
<mgrwt>
<rscale>  2 0.44850621E+03</rscale>
<asrwt>0</asrwt>
<pdfrwt beam="1">  1       21 0.63751503E-02 0.44850621E+03</pdfrwt>
<pdfrwt beam="2">  1       21 0.17059594E+00 0.44850621E+03</pdfrwt>
<totfact> 0.33722049E+04</totfact>
</mgrwt>
</event>
<event>
 7    0  0.4793433E-002  0.4570485E+03  0.7546771E-02  0.1025641E+00
         21   -1    0    0  502  501  0.00000000000E+00  0.00000000000E+00  0.55819753040E+03  0.55819753040E+03  0.00000000000E+00 0. -1.
         21   -1    0    0  501  502 -0.00000000000E+00 -0.00000000000E+00 -0.93557072835E+02  0.93557072835E+02  0.00000000000E+00 0. -1.
      99926    2    1    2    0    0  0.71054273576E-14  0.00000000000E+00  0.46464045756E+03  0.65175460323E+03  0.45704847449E+03 0.  0.
      99925    2    3    3    0    0  0.45432048553E+02 -0.12997323822E+02  0.44133564709E+03  0.51602095319E+03  0.26318713737E+03 0.  0.
         25    1    4    4    0    0  0.38125946193E+00  0.13939908200E+02  0.15901678729E+03  0.20280116651E+03  0.12509000000E+03 0.  0.
         25    1    3    3    0    0 -0.45432048553E+02  0.12997323822E+02  0.23304810470E+02  0.13573365004E+03  0.12509000000E+03 0.  0.
         25    1    4    4    0    0  0.45050789091E+02 -0.26937232022E+02  0.28231885981E+03  0.31321978668E+03  0.12509000000E+03 0.  0.
<mgrwt>
<rscale>  2 0.45704847E+03</rscale>
<asrwt>0</asrwt>
<pdfrwt beam="1">  1       21 0.82087871E-01 0.45704847E+03</pdfrwt>
<pdfrwt beam="2">  1       21 0.13758393E-01 0.45704847E+03</pdfrwt>
<totfact> 0.54711035E+04</totfact>
</mgrwt>
</event>
<event>
 7    0  0.4793433E-002  0.4689563E+03  0.7546771E-02  0.1022215E+00
         21   -1    0    0  502  501  0.00000000000E+00  0.00000000000E+00  0.12188000528E+03  0.12188000528E+03  0.00000000000E+00 0. -1.
         21   -1    0    0  501  502 -0.00000000000E+00 -0.00000000000E+00 -0.45109953154E+03  0.45109953154E+03  0.00000000000E+00 0. -1.
      99926    2    1    2    0    0  0.00000000000E+00 -0.14210854715E-13 -0.32921952626E+03  0.57297953682E+03  0.46895634461E+03 0.  0.
      99925    2    3    3    0    0 -0.88474399632E+02  0.70198115896E+02 -0.13779821799E+03  0.31794008845E+03  0.26332879846E+03 0.  0.
         25    1    4    4    0    0 -0.34567199888E+02 -0.44722081332E+01 -0.47528958200E+02  0.13828015737E+03  0.12509000000E+03 0.  0.
         25    1    3    3    0    0  0.88474399632E+02 -0.70198115896E+02 -0.19142130827E+03  0.25503944837E+03  0.12509000000E+03 0.  0.
         25    1    4    4    0    0 -0.53907199745E+02  0.74670324030E+02 -0.90269259789E+02  0.17965993109E+03  0.12509000000E+03 0.  0.
<mgrwt>
<rscale>  2 0.46895634E+03</rscale>
<asrwt>0</asrwt>
<pdfrwt beam="1">  1       21 0.17923531E-01 0.46895634E+03</pdfrwt>
<pdfrwt beam="2">  1       21 0.66338164E-01 0.46895634E+03</pdfrwt>
<totfact> 0.54145487E+04</totfact>
</mgrwt>
</event>
<event>
 7    0  0.4793433E-002  0.4403050E+03  0.7546771E-02  0.1030653E+00
         21   -1    0    0  502  501  0.00000000000E+00  0.00000000000E+00  0.71777532320E+03  0.71777532320E+03  0.00000000000E+00 0. -1.
         21   -1    0    0  501  502 -0.00000000000E+00 -0.00000000000E+00 -0.67524079510E+02  0.67524079510E+02  0.00000000000E+00 0. -1.
      99926    2    1    2    0    0  0.14210854715E-13  0.88817841970E-15  0.65025124369E+03  0.78529940271E+03  0.44030497610E+03 0.  0.
      99925    2    3    3    0    0  0.98131511597E+02 -0.77954814369E+01  0.40225125423E+03  0.49060962350E+03  0.26306114886E+03 0.  0.
         25    1    4    4    0    0  0.90241218144E+02 -0.15687481866E+02  0.23250601854E+03  0.27945685051E+03  0.12509000000E+03 0.  0.
         25    1    4    4    0    0  0.78902934532E+01  0.78920004289E+01  0.16974523569E+03  0.21115277299E+03  0.12509000000E+03 0.  0.
         25    1    3    3    0    0 -0.98131511597E+02  0.77954814369E+01  0.24799998946E+03  0.29468977921E+03  0.12509000000E+03 0.  0.
<mgrwt>
<rscale>  2 0.44030498E+03</rscale>
<asrwt>0</asrwt>
<pdfrwt beam="1">  1       21 0.10555519E+00 0.44030498E+03</pdfrwt>
<pdfrwt beam="2">  1       21 0.99300121E-02 0.44030498E+03</pdfrwt>
<totfact> 0.54503961E+04</totfact>
</mgrwt>
</event>
<event>
 7    0  0.4793433E-002  0.4589427E+03  0.7546771E-02  0.1025088E+00
         21   -1    0    0  502  501  0.00000000000E+00  0.00000000000E+00  0.23291746356E+03  0.23291746356E+03  0.00000000000E+00 0.  1.
         21   -1    0    0  501  502 -0.00000000000E+00 -0.00000000000E+00 -0.22607618991E+03  0.22607618991E+03  0.00000000000E+00 0.  1.
      99926    2    1    2    0    0 -0.71054273576E-14  0.00000000000E+00  0.68412736451E+01  0.45899365347E+03  0.45894266625E+03 0.  0.
      99925    2    3    3    0    0 -0.59780543355E+02  0.97633869355E+02  0.27662766013E+02  0.28815124523E+03  0.26298255778E+03 0.  0.
         25    1    3    3    0    0  0.59780543355E+02 -0.97633869355E+02 -0.20821492368E+02  0.17084240824E+03  0.12509000000E+03 0.  0.
         25    1    4    4    0    0 -0.36507381826E+02  0.11847927865E+02 -0.62449565519E+01  0.13099492320E+03  0.12509000000E+03 0.  0.
         25    1    4    4    0    0 -0.23273161529E+02  0.85785941491E+02  0.33907722565E+02  0.15715632203E+03  0.12509000000E+03 0.  0.
<mgrwt>
<rscale>  2 0.45894267E+03</rscale>
<asrwt>0</asrwt>
<pdfrwt beam="1">  1       21 0.34252568E-01 0.45894267E+03</pdfrwt>
<pdfrwt beam="2">  1       21 0.33246499E-01 0.45894267E+03</pdfrwt>
<totfact> 0.66148659E+04</totfact>
</mgrwt>
</event>
<event>
 7    0  0.4793433E-002  0.4503614E+03  0.7546771E-02  0.1027614E+00
         21   -1    0    0  502  501  0.00000000000E+00  0.00000000000E+00  0.12939431481E+04  0.12939431481E+04  0.00000000000E+00 0.  1.
         21   -1    0    0  501  502 -0.00000000000E+00 -0.00000000000E+00 -0.39187455766E+02  0.39187455766E+02  0.00000000000E+00 0.  1.
      99926    2    1    2    0    0  0.00000000000E+00 -0.71054273576E-14  0.12547556924E+04  0.13331306039E+04  0.45036136549E+03 0.  0.
      99925    2    3    3    0    0  0.56350113847E+02 -0.59408549106E+02  0.57966756528E+03  0.64168559634E+03  0.26275693574E+03 0.  0.
         25    1    4    4    0    0  0.32281594236E+02  0.49319982430E+01  0.22693461001E+03  0.26117666674E+03  0.12509000000E+03 0.  0.
         25    1    3    3    0    0 -0.56350113847E+02  0.59408549106E+02  0.67508812710E+03  0.69144500757E+03  0.12509000000E+03 0.  0.
         25    1    4    4    0    0  0.24068519611E+02 -0.64340547349E+02  0.35273295527E+03  0.38050892960E+03  0.12509000000E+03 0.  0.
<mgrwt>
<rscale>  2 0.45036137E+03</rscale>
<asrwt>0</asrwt>
<pdfrwt beam="1">  1       21 0.19028573E+00 0.45036137E+03</pdfrwt>
<pdfrwt beam="2">  1       21 0.57628620E-02 0.45036137E+03</pdfrwt>
<totfact> 0.29206828E+04</totfact>
</mgrwt>
</event>
<event>
 7    0  0.4793433E-002  0.4561610E+03  0.7546771E-02  0.1025901E+00
         21   -1    0    0  502  501  0.00000000000E+00  0.00000000000E+00  0.98942249775E+02  0.98942249775E+02  0.00000000000E+00 0.  1.
         21   -1    0    0  501  502 -0.00000000000E+00 -0.00000000000E+00 -0.52576843356E+03  0.52576843356E+03  0.00000000000E+00 0.  1.
      99926    2    1    2    0    0  0.17763568394E-14 -0.88817841970E-15 -0.42682618378E+03  0.62471068333E+03  0.45616098771E+03 0.  0.
      99925    2    3    3    0    0  0.15480232960E+02  0.60143381915E+01 -0.11339156507E+03  0.28682819165E+03  0.26293907017E+03 0.  0.
         25    1    4    4    0    0  0.10211730532E+02  0.27357705975E+02 -0.92075563300E+02  0.15804474358E+03  0.12509000000E+03 0.  0.
         25    1    3    3    0    0 -0.15480232960E+02 -0.60143381915E+01 -0.31343461871E+03  0.33788249168E+03  0.12509000000E+03 0.  0.
         25    1    4    4    0    0  0.52685024277E+01 -0.21343367784E+02 -0.21316001771E+02  0.12878344807E+03  0.12509000000E+03 0.  0.
<mgrwt>
<rscale>  2 0.45616099E+03</rscale>
<asrwt>0</asrwt>
<pdfrwt beam="1">  1       21 0.14550331E-01 0.45616099E+03</pdfrwt>
<pdfrwt beam="2">  1       21 0.77318887E-01 0.45616099E+03</pdfrwt>
<totfact> 0.56661293E+04</totfact>
</mgrwt>
</event>
<event>
 7    0  0.4793433E-002  0.4451639E+03  0.7546771E-02  0.1029174E+00
         21   -1    0    0  502  501  0.00000000000E+00  0.00000000000E+00  0.82860292069E+03  0.82860292069E+03  0.00000000000E+00 0.  1.
         21   -1    0    0  501  502 -0.00000000000E+00 -0.00000000000E+00 -0.59790660151E+02  0.59790660151E+02  0.00000000000E+00 0.  1.
      99926    2    1    2    0    0  0.00000000000E+00 -0.14210854715E-13  0.76881226054E+03  0.88839358084E+03  0.44516386031E+03 0.  0.
      99925    2    3    3    0    0  0.37472397993E+02 -0.84449198800E+02  0.58154773186E+03  0.64497755920E+03  0.26317758198E+03 0.  0.
         25    1    3    3    0    0 -0.37472397993E+02  0.84449198800E+02  0.18726452868E+03  0.24341602164E+03  0.12509000000E+03 0.  0.
         25    1    4    4    0    0  0.24160063326E+02 -0.12501485246E+02  0.20716739430E+03  0.24352788989E+03  0.12509000000E+03 0.  0.
         25    1    4    4    0    0  0.13312334667E+02 -0.71947713554E+02  0.37438033756E+03  0.40144966931E+03  0.12509000000E+03 0.  0.
<mgrwt>
<rscale>  2 0.44516386E+03</rscale>
<asrwt>0</asrwt>
<pdfrwt beam="1">  1       21 0.12185336E+00 0.44516386E+03</pdfrwt>
<pdfrwt beam="2">  1       21 0.87927446E-02 0.44516386E+03</pdfrwt>
<totfact> 0.47276353E+04</totfact>
</mgrwt>
</event>
<event>
 7    0  0.4793433E-002  0.4536705E+03  0.7546771E-02  0.1026633E+00
         21   -1    0    0  502  501  0.00000000000E+00  0.00000000000E+00  0.46642046343E+03  0.46642046343E+03  0.00000000000E+00 0. -1.
         21   -1    0    0  501  502 -0.00000000000E+00 -0.00000000000E+00 -0.11031728294E+03  0.11031728294E+03  0.00000000000E+00 0. -1.
      99926    2    1    2    0    0  0.00000000000E+00  0.71054273576E-14  0.35610318049E+03  0.57673774637E+03  0.45367053347E+03 0.  0.
      99925    2    3    3    0    0 -0.61144596716E+02 -0.54958952867E+02  0.32083688657E+03  0.42295098558E+03  0.26304387507E+03 0.  0.
         25    1    3    3    0    0  0.61144596716E+02  0.54958952867E+02  0.35266293915E+02  0.15378676079E+03  0.12509000000E+03 0.  0.
         25    1    4    4    0    0 -0.19195828699E+02  0.12161758458E+02  0.16000821568E+03  0.20436860178E+03  0.12509000000E+03 0.  0.
         25    1    4    4    0    0 -0.41948768018E+02 -0.67120711325E+02  0.16082867089E+03  0.21858238380E+03  0.12509000000E+03 0.  0.
<mgrwt>
<rscale>  2 0.45367053E+03</rscale>
<asrwt>0</asrwt>
<pdfrwt beam="1">  1       21 0.68591244E-01 0.45367053E+03</pdfrwt>
<pdfrwt beam="2">  1       21 0.16223130E-01 0.45367053E+03</pdfrwt>
<totfact> 0.60769716E+04</totfact>
</mgrwt>
</event>
<event>
 7    0  0.4793433E-002  0.4556043E+03  0.7546771E-02  0.1026064E+00
         21   -1    0    0  502  501  0.00000000000E+00  0.00000000000E+00  0.43882963284E+02  0.43882963284E+02  0.00000000000E+00 0. -1.
         21   -1    0    0  501  502 -0.00000000000E+00 -0.00000000000E+00 -0.11825504947E+04  0.11825504947E+04  0.00000000000E+00 0. -1.
      99926    2    1    2    0    0  0.00000000000E+00 -0.17763568394E-14 -0.11386675314E+04  0.12264334580E+04  0.45560430174E+03 0.  0.
      99925    2    3    3    0    0 -0.85908968547E+02 -0.14663722126E+02 -0.91269697329E+03  0.95384296501E+03  0.26306892863E+03 0.  0.
         25    1    4    4    0    0 -0.13336969270E+02  0.20349570566E+02 -0.38300842784E+03  0.40365200813E+03  0.12509000000E+03 0.  0.
         25    1    3    3    0    0  0.85908968547E+02  0.14663722126E+02 -0.22597055812E+03  0.27259049298E+03  0.12509000000E+03 0.  0.
         25    1    4    4    0    0 -0.72571999277E+02 -0.35013292692E+02 -0.52968854545E+03  0.55019095688E+03  0.12509000000E+03 0.  0.
<mgrwt>
<rscale>  2 0.45560430E+03</rscale>
<asrwt>0</asrwt>
<pdfrwt beam="1">  1       21 0.64533783E-02 0.45560430E+03</pdfrwt>
<pdfrwt beam="2">  1       21 0.17390445E+00 0.45560430E+03</pdfrwt>
<totfact> 0.31181316E+04</totfact>
</mgrwt>
</event>
<event>
 7    0  0.4793433E-002  0.4557210E+03  0.7546771E-02  0.1026030E+00
         21   -1    0    0  502  501  0.00000000000E+00  0.00000000000E+00  0.29802214558E+03  0.29802214558E+03  0.00000000000E+00 0.  1.
         21   -1    0    0  501  502 -0.00000000000E+00 -0.00000000000E+00 -0.17421658551E+03  0.17421658551E+03  0.00000000000E+00 0.  1.
      99926    2    1    2    0    0 -0.14210854715E-13  0.00000000000E+00  0.12380556007E+03  0.47223873108E+03  0.45572096993E+03 0.  0.
      99925    2    3    3    0    0  0.10021299377E+03  0.50332648717E+02  0.56888331923E+02  0.29140332755E+03  0.26287563096E+03 0.  0.
         25    1    3    3    0    0 -0.10021299377E+03 -0.50332648717E+02  0.66917228148E+02  0.18083540353E+03  0.12509000000E+03 0.  0.
         25    1    4    4    0    0  0.35989530116E+02 -0.11579909575E+02  0.11420763393E+02  0.13117653190E+03  0.12509000000E+03 0.  0.
         25    1    4    4    0    0  0.64223463654E+02  0.61912558292E+02  0.45467568529E+02  0.16022679566E+03  0.12509000000E+03 0.  0.
<mgrwt>
<rscale>  2 0.45572097E+03</rscale>
<asrwt>0</asrwt>
<pdfrwt beam="1">  1       21 0.43826786E-01 0.45572097E+03</pdfrwt>
<pdfrwt beam="2">  1       21 0.25620086E-01 0.45572097E+03</pdfrwt>
<totfact> 0.66886189E+04</totfact>
</mgrwt>
</event>
<event>
 7    0  0.4793433E-002  0.4381164E+03  0.7546771E-02  0.1031326E+00
         21   -1    0    0  502  501  0.00000000000E+00  0.00000000000E+00  0.58873831595E+03  0.58873831595E+03  0.00000000000E+00 0.  1.
         21   -1    0    0  501  502 -0.00000000000E+00 -0.00000000000E+00 -0.81507348177E+02  0.81507348177E+02  0.00000000000E+00 0.  1.
      99926    2    1    2    0    0  0.00000000000E+00  0.00000000000E+00  0.50723096777E+03  0.67024566412E+03  0.43811641787E+03 0.  0.
      99925    2    3    3    0    0 -0.91698988754E+02 -0.17281717119E+02  0.36298569552E+03  0.45773314931E+03  0.26278062817E+03 0.  0.
         25    1    3    3    0    0  0.91698988754E+02  0.17281717119E+02  0.14424527225E+03  0.21251251481E+03  0.12509000000E+03 0.  0.
         25    1    4    4    0    0 -0.25863588984E+02  0.13701406019E+02  0.12527423484E+03  0.17943744252E+03  0.12509000000E+03 0.  0.
         25    1    4    4    0    0 -0.65835399770E+02 -0.30983123138E+02  0.23771146068E+03  0.27829570679E+03  0.12509000000E+03 0.  0.
<mgrwt>
<rscale>  2 0.43811642E+03</rscale>
<asrwt>0</asrwt>
<pdfrwt beam="1">  1       21 0.86579162E-01 0.43811642E+03</pdfrwt>
<pdfrwt beam="2">  1       21 0.11986375E-01 0.43811642E+03</pdfrwt>
<totfact> 0.62448357E+04</totfact>
</mgrwt>
</event>
<event>
 7    0  0.4793433E-002  0.4548861E+03  0.7546771E-02  0.1026275E+00
         21   -1    0    0  502  501  0.00000000000E+00  0.00000000000E+00  0.33324848382E+03  0.33324848382E+03  0.00000000000E+00 0. -1.
         21   -1    0    0  501  502 -0.00000000000E+00 -0.00000000000E+00 -0.15523053398E+03  0.15523053398E+03  0.00000000000E+00 0. -1.
      99926    2    1    2    0    0 -0.14210854715E-13 -0.88817841970E-15  0.17801794984E+03  0.48847901780E+03  0.45488609604E+03 0.  0.
      99925    2    3    3    0    0 -0.10679622566E+03 -0.22423493866E+01  0.72342863330E+02  0.29296637382E+03  0.26303107111E+03 0.  0.
         25    1    4    4    0    0 -0.20816477827E+02  0.25319610040E+02  0.26185649359E+02  0.13193788210E+03  0.12509000000E+03 0.  0.
         25    1    4    4    0    0 -0.85979747830E+02 -0.27561959426E+02  0.46157213970E+02  0.16102849172E+03  0.12509000000E+03 0.  0.
         25    1    3    3    0    0  0.10679622566E+03  0.22423493866E+01  0.10567508651E+03  0.19551264398E+03  0.12509000000E+03 0.  0.
<mgrwt>
<rscale>  2 0.45488610E+03</rscale>
<asrwt>0</asrwt>
<pdfrwt beam="1">  1       21 0.49007130E-01 0.45488610E+03</pdfrwt>
<pdfrwt beam="2">  1       21 0.22828020E-01 0.45488610E+03</pdfrwt>
<totfact> 0.66147671E+04</totfact>
</mgrwt>
</event>
<event>
 7    0  0.4793433E-002  0.4450021E+03  0.7546771E-02  0.1029223E+00
         21   -1    0    0  502  501  0.00000000000E+00  0.00000000000E+00  0.26534877121E+03  0.26534877121E+03  0.00000000000E+00 0. -1.
         21   -1    0    0  501  502 -0.00000000000E+00 -0.00000000000E+00 -0.18657228762E+03  0.18657228762E+03  0.00000000000E+00 0. -1.
      99926    2    1    2    0    0  0.71054273576E-14 -0.22204460493E-15  0.78776483590E+02  0.45192105882E+03  0.44500214498E+03 0.  0.
      99925    2    3    3    0    0 -0.57116583228E+02  0.19830860468E+01  0.13758032139E+03  0.30234955034E+03  0.26309821179E+03 0.  0.
         25    1    3    3    0    0  0.57116583228E+02 -0.19830860468E+01 -0.58803837800E+02  0.14957150848E+03  0.12509000000E+03 0.  0.
         25    1    4    4    0    0 -0.98614378907E+01  0.26630352760E+02  0.37900146654E+02  0.13375482370E+03  0.12509000000E+03 0.  0.
         25    1    4    4    0    0 -0.47255145337E+02 -0.24647266713E+02  0.99680174735E+02  0.16859472664E+03  0.12509000000E+03 0.  0.
<mgrwt>
<rscale>  2 0.44500214E+03</rscale>
<asrwt>0</asrwt>
<pdfrwt beam="1">  1       21 0.39021878E-01 0.44500214E+03</pdfrwt>
<pdfrwt beam="2">  1       21 0.27437101E-01 0.44500214E+03</pdfrwt>
<totfact> 0.74541149E+04</totfact>
</mgrwt>
</event>
<event>
 7    0  0.4793433E-002  0.4440549E+03  0.7546771E-02  0.1029510E+00
         21   -1    0    0  502  501  0.00000000000E+00  0.00000000000E+00  0.14071510956E+03  0.14071510956E+03  0.00000000000E+00 0.  1.
         21   -1    0    0  501  502 -0.00000000000E+00 -0.00000000000E+00 -0.35032617632E+03  0.35032617632E+03  0.00000000000E+00 0.  1.
      99926    2    1    2    0    0  0.00000000000E+00  0.00000000000E+00 -0.20961106676E+03  0.49104128588E+03  0.44405488977E+03 0.  0.
      99925    2    3    3    0    0  0.58369394264E+02 -0.80287524754E+02 -0.16212840703E+03  0.32444241465E+03  0.26291479084E+03 0.  0.
         25    1    3    3    0    0 -0.58369394264E+02  0.80287524754E+02 -0.47482659730E+02  0.16659887122E+03  0.12509000000E+03 0.  0.
         25    1    4    4    0    0  0.30761772009E+02 -0.59654606841E+02 -0.12585680456E+03  0.18971663630E+03  0.12509000000E+03 0.  0.
         25    1    4    4    0    0  0.27607622254E+02 -0.20632917913E+02 -0.36271602471E+02  0.13472577836E+03  0.12509000000E+03 0.  0.
<mgrwt>
<rscale>  2 0.44405489E+03</rscale>
<asrwt>0</asrwt>
<pdfrwt beam="1">  1       21 0.20693398E-01 0.44405489E+03</pdfrwt>
<pdfrwt beam="2">  1       21 0.51518555E-01 0.44405489E+03</pdfrwt>
<totfact> 0.71956407E+04</totfact>
</mgrwt>
</event>
<event>
 7    0  0.4793433E-002  0.4503382E+03  0.7546771E-02  0.1027621E+00
         21   -1    0    0  502  501  0.00000000000E+00  0.00000000000E+00  0.20763737185E+03  0.20763737185E+03  0.00000000000E+00 0. -1.
         21   -1    0    0  501  502 -0.00000000000E+00 -0.00000000000E+00 -0.24418110657E+03  0.24418110657E+03  0.00000000000E+00 0. -1.
      99926    2    1    2    0    0  0.35527136788E-14  0.00000000000E+00 -0.36543734715E+02  0.45181847842E+03  0.45033819835E+03 0.  0.
      99925    2    3    3    0    0  0.24112204742E+02  0.79925064539E+02  0.46666417858E+02  0.27994395457E+03  0.26309969362E+03 0.  0.
         25    1    3    3    0    0 -0.24112204742E+02 -0.79925064539E+02 -0.83210152573E+02  0.17187452385E+03  0.12509000000E+03 0.  0.
         25    1    4    4    0    0  0.23441419961E+02  0.11444958955E+02 -0.59957433045E+01  0.12792163341E+03  0.12509000000E+03 0.  0.
         25    1    4    4    0    0  0.67078478041E+00  0.68480105584E+02  0.52662161163E+02  0.15202232116E+03  0.12509000000E+03 0.  0.
<mgrwt>
<rscale>  2 0.45033820E+03</rscale>
<asrwt>0</asrwt>
<pdfrwt beam="1">  1       21 0.30534908E-01 0.45033820E+03</pdfrwt>
<pdfrwt beam="2">  1       21 0.35908986E-01 0.45033820E+03</pdfrwt>
<totfact> 0.71398474E+04</totfact>
</mgrwt>
</event>
<event>
 7    0  0.4793433E-002  0.4383712E+03  0.7546771E-02  0.1031248E+00
         21   -1    0    0  502  501  0.00000000000E+00  0.00000000000E+00  0.39850635525E+03  0.39850635525E+03  0.00000000000E+00 0. -1.
         21   -1    0    0  501  502 -0.00000000000E+00 -0.00000000000E+00 -0.12055599290E+03  0.12055599290E+03  0.00000000000E+00 0. -1.
      99926    2    1    2    0    0  0.00000000000E+00  0.35527136788E-14  0.27795036235E+03  0.51906234815E+03  0.43837120952E+03 0.  0.
      99925    2    3    3    0    0 -0.11569006529E+02  0.21760176633E+02  0.28850087538E+03  0.39113202093E+03  0.26295276287E+03 0.  0.
         25    1    4    4    0    0  0.29073762737E+02  0.24117281985E+02  0.16711494116E+03  0.21213636800E+03  0.12509000000E+03 0.  0.
         25    1    4    4    0    0 -0.40642769266E+02 -0.23571053522E+01  0.12138593423E+03  0.17899565293E+03  0.12509000000E+03 0.  0.
         25    1    3    3    0    0  0.11569006529E+02 -0.21760176633E+02 -0.10550513031E+02  0.12793032723E+03  0.12509000000E+03 0.  0.
<mgrwt>
<rscale>  2 0.43837121E+03</rscale>
<asrwt>0</asrwt>
<pdfrwt beam="1">  1       21 0.58603875E-01 0.43837121E+03</pdfrwt>
<pdfrwt beam="2">  1       21 0.17728823E-01 0.43837121E+03</pdfrwt>
<totfact> 0.73120755E+04</totfact>
</mgrwt>
</event>
<event>
 7    0  0.4793433E-002  0.4544629E+03  0.7546771E-02  0.1026399E+00
         21   -1    0    0  502  501  0.00000000000E+00  0.00000000000E+00  0.16056187966E+04  0.16056187966E+04  0.00000000000E+00 0. -1.
         21   -1    0    0  501  502 -0.00000000000E+00 -0.00000000000E+00 -0.32158400846E+02  0.32158400846E+02  0.00000000000E+00 0. -1.
      99926    2    1    2    0    0  0.00000000000E+00  0.17763568394E-14  0.15734603957E+04  0.16377771974E+04  0.45446290439E+03 0.  0.
      99925    2    3    3    0    0 -0.10705191926E+02  0.15616201603E+02  0.13909541117E+04  0.14157084722E+04  0.26290429949E+03 0.  0.
         25    1    4    4    0    0  0.23279785612E+01  0.39861215940E+02  0.82961597925E+03  0.83994316304E+03  0.12509000000E+03 0.  0.
         25    1    4    4    0    0 -0.13033170487E+02 -0.24245014337E+02  0.56133813240E+03  0.57576530917E+03  0.12509000000E+03 0.  0.
         25    1    3    3    0    0  0.10705191926E+02 -0.15616201603E+02  0.18250628407E+03  0.22206872520E+03  0.12509000000E+03 0.  0.
<mgrwt>
<rscale>  2 0.45446290E+03</rscale>
<asrwt>0</asrwt>
<pdfrwt beam="1">  1       21 0.23612036E+00 0.45446290E+03</pdfrwt>
<pdfrwt beam="2">  1       21 0.47291777E-02 0.45446290E+03</pdfrwt>
<totfact> 0.20675501E+04</totfact>
</mgrwt>
</event>
<event>
 7    0  0.4793433E-002  0.4434603E+03  0.7546771E-02  0.1029690E+00
         21   -1    0    0  502  501  0.00000000000E+00  0.00000000000E+00  0.10935722249E+03  0.10935722249E+03  0.00000000000E+00 0. -1.
         21   -1    0    0  501  502 -0.00000000000E+00 -0.00000000000E+00 -0.44957492161E+03  0.44957492161E+03  0.00000000000E+00 0. -1.
      99926    2    1    2    0    0  0.00000000000E+00  0.00000000000E+00 -0.34021769912E+03  0.55893214409E+03  0.44346032394E+03 0.  0.
      99925    2    3    3    0    0  0.29135078964E+02 -0.78188440847E+02 -0.14225091426E+03  0.31033479673E+03  0.26288795778E+03 0.  0.
         25    1    3    3    0    0 -0.29135078964E+02  0.78188440847E+02 -0.19796678486E+03  0.24859734736E+03  0.12509000000E+03 0.  0.
         25    1    4    4    0    0 -0.18686556517E+02 -0.52056550295E+02 -0.92443938178E+02  0.16508319608E+03  0.12509000000E+03 0.  0.
         25    1    4    4    0    0  0.47821635482E+02 -0.26131890552E+02 -0.49806976081E+02  0.14525160065E+03  0.12509000000E+03 0.  0.
<mgrwt>
<rscale>  2 0.44346032E+03</rscale>
<asrwt>0</asrwt>
<pdfrwt beam="1">  1       21 0.16081945E-01 0.44346032E+03</pdfrwt>
<pdfrwt beam="2">  1       21 0.66113959E-01 0.44346032E+03</pdfrwt>
<totfact> 0.67207821E+04</totfact>
</mgrwt>
</event>
<event>
 7    0  0.4793433E-002  0.4540081E+03  0.7546771E-02  0.1026533E+00
         21   -1    0    0  502  501  0.00000000000E+00  0.00000000000E+00  0.11296093896E+03  0.11296093896E+03  0.00000000000E+00 0. -1.
         21   -1    0    0  501  502 -0.00000000000E+00 -0.00000000000E+00 -0.45618279398E+03  0.45618279398E+03  0.00000000000E+00 0. -1.
      99926    2    1    2    0    0 -0.71054273576E-14  0.00000000000E+00 -0.34322185502E+03  0.56914373294E+03  0.45400809132E+03 0.  0.
      99925    2    3    3    0    0 -0.40414971007E+02 -0.14254085085E+02 -0.34642064635E+03  0.43687775399E+03  0.26271345395E+03 0.  0.
         25    1    3    3    0    0  0.40414971007E+02  0.14254085085E+02  0.31987913348E+01  0.13226597896E+03  0.12509000000E+03 0.  0.
         25    1    4    4    0    0  0.10958311279E+02 -0.13589929314E+02 -0.12685906088E+03  0.17901256993E+03  0.12509000000E+03 0.  0.
         25    1    4    4    0    0 -0.51373282286E+02 -0.66415577059E+00 -0.21956158547E+03  0.25786518406E+03  0.12509000000E+03 0.  0.
<mgrwt>
<rscale>  2 0.45400809E+03</rscale>
<asrwt>0</asrwt>
<pdfrwt beam="1">  1       21 0.16611903E-01 0.45400809E+03</pdfrwt>
<pdfrwt beam="2">  1       21 0.67085704E-01 0.45400809E+03</pdfrwt>
<totfact> 0.61096757E+04</totfact>
</mgrwt>
</event>
<event>
 7    0  0.4793433E-002  0.4543557E+03  0.7546771E-02  0.1026431E+00
         21   -1    0    0  502  501  0.00000000000E+00  0.00000000000E+00  0.39415062842E+02  0.39415062842E+02  0.00000000000E+00 0. -1.
         21   -1    0    0  501  502 -0.00000000000E+00 -0.00000000000E+00 -0.13093923541E+04  0.13093923541E+04  0.00000000000E+00 0. -1.
      99926    2    1    2    0    0 -0.14210854715E-13  0.00000000000E+00 -0.12699772913E+04  0.13488074169E+04  0.45435572813E+03 0.  0.
      99925    2    3    3    0    0  0.94176999190E+02  0.60777003834E+02 -0.76731210849E+03  0.81882350639E+03  0.26294659423E+03 0.  0.
         25    1    4    4    0    0  0.61171719735E+02  0.36549214371E+02 -0.50821372575E+03  0.52821068099E+03  0.12509000000E+03 0.  0.
         25    1    3    3    0    0 -0.94176999190E+02 -0.60777003834E+02 -0.50266518277E+03  0.52998391055E+03  0.12509000000E+03 0.  0.
         25    1    4    4    0    0  0.33005279455E+02  0.24227789463E+02 -0.25909838274E+03  0.29061282541E+03  0.12509000000E+03 0.  0.
<mgrwt>
<rscale>  2 0.45435573E+03</rscale>
<asrwt>0</asrwt>
<pdfrwt beam="1">  1       21 0.57963339E-02 0.45435573E+03</pdfrwt>
<pdfrwt beam="2">  1       21 0.19255766E+00 0.45435573E+03</pdfrwt>
<totfact> 0.27867990E+04</totfact>
</mgrwt>
</event>
<event>
 7    0  0.4793433E-002  0.4581024E+03  0.7546771E-02  0.1025333E+00
         21   -1    0    0  502  501  0.00000000000E+00  0.00000000000E+00  0.10177408723E+04  0.10177408723E+04  0.00000000000E+00 0. -1.
         21   -1    0    0  501  502 -0.00000000000E+00 -0.00000000000E+00 -0.51549910228E+02  0.51549910228E+02  0.00000000000E+00 0. -1.
      99926    2    1    2    0    0  0.00000000000E+00  0.00000000000E+00  0.96619096209E+03  0.10692907825E+04  0.45810239293E+03 0.  0.
      99925    2    3    3    0    0 -0.45780157040E+01  0.10269616094E+03  0.73205715566E+03  0.78462675757E+03  0.26299051286E+03 0.  0.
         25    1    3    3    0    0  0.45780157040E+01 -0.10269616094E+03  0.23413380644E+03  0.28466402497E+03  0.12509000000E+03 0.  0.
         25    1    4    4    0    0  0.14906879695E+02  0.15273479209E+02  0.28952148859E+03  0.31611025717E+03  0.12509000000E+03 0.  0.
         25    1    4    4    0    0 -0.19484895399E+02  0.87422681726E+02  0.44253566707E+03  0.46851650041E+03  0.12509000000E+03 0.  0.
<mgrwt>
<rscale>  2 0.45810239E+03</rscale>
<asrwt>0</asrwt>
<pdfrwt beam="1">  1       21 0.14966776E+00 0.45810239E+03</pdfrwt>
<pdfrwt beam="2">  1       21 0.75808698E-02 0.45810239E+03</pdfrwt>
<totfact> 0.35705137E+04</totfact>
</mgrwt>
</event>
<event>
 7    0  0.4793433E-002  0.4546908E+03  0.7546771E-02  0.1026332E+00
         21   -1    0    0  502  501  0.00000000000E+00  0.00000000000E+00  0.11846356302E+03  0.11846356302E+03  0.00000000000E+00 0. -1.
         21   -1    0    0  501  502 -0.00000000000E+00 -0.00000000000E+00 -0.43630225518E+03  0.43630225518E+03  0.00000000000E+00 0. -1.
      99926    2    1    2    0    0  0.00000000000E+00  0.00000000000E+00 -0.31783869215E+03  0.55476581820E+03  0.45469075075E+03 0.  0.
      99925    2    3    3    0    0 -0.11004696059E+03  0.14996681022E+02 -0.17569530646E+03  0.33524934007E+03  0.26303620535E+03 0.  0.
         25    1    3    3    0    0  0.11004696059E+03 -0.14996681022E+02 -0.14214338569E+03  0.21951647814E+03  0.12509000000E+03 0.  0.
         25    1    4    4    0    0 -0.20640558888E+02  0.13634351701E+02 -0.10857660217E+03  0.16747631133E+03  0.12509000000E+03 0.  0.
         25    1    4    4    0    0 -0.89406401702E+02  0.13623293211E+01 -0.67118704290E+02  0.16777302874E+03  0.12509000000E+03 0.  0.
<mgrwt>
<rscale>  2 0.45469075E+03</rscale>
<asrwt>0</asrwt>
<pdfrwt beam="1">  1       21 0.17421112E-01 0.45469075E+03</pdfrwt>
<pdfrwt beam="2">  1       21 0.64162097E-01 0.45469075E+03</pdfrwt>
<totfact> 0.61703493E+04</totfact>
</mgrwt>
</event>
<event>
 7    0  0.4793433E-002  0.4489461E+03  0.7546771E-02  0.1028037E+00
         21   -1    0    0  502  501  0.00000000000E+00  0.00000000000E+00  0.34934110507E+03  0.34934110507E+03  0.00000000000E+00 0. -1.
         21   -1    0    0  501  502 -0.00000000000E+00 -0.00000000000E+00 -0.14423766305E+03  0.14423766305E+03  0.00000000000E+00 0. -1.
      99926    2    1    2    0    0  0.00000000000E+00  0.17763568394E-14  0.20510344202E+03  0.49357876812E+03  0.44894607517E+03 0.  0.
      99925    2    3    3    0    0 -0.75522719061E+02  0.14903885351E+02  0.47307832074E+02  0.27800333002E+03  0.26291065713E+03 0.  0.
         25    1    4    4    0    0 -0.46249038673E+02  0.20904524461E+02  0.62010992675E+02  0.14855586166E+03  0.12509000000E+03 0.  0.
         25    1    4    4    0    0 -0.29273680388E+02 -0.60006391098E+01 -0.14703160601E+02  0.12944746836E+03  0.12509000000E+03 0.  0.
         25    1    3    3    0    0  0.75522719061E+02 -0.14903885351E+02  0.15779560994E+03  0.21557543810E+03  0.12509000000E+03 0.  0.
<mgrwt>
<rscale>  2 0.44894608E+03</rscale>
<asrwt>0</asrwt>
<pdfrwt beam="1">  1       21 0.51373692E-01 0.44894608E+03</pdfrwt>
<pdfrwt beam="2">  1       21 0.21211421E-01 0.44894608E+03</pdfrwt>
<totfact> 0.68980098E+04</totfact>
</mgrwt>
</event>
<event>
 7    0  0.4793433E-002  0.4600862E+03  0.7546771E-02  0.1024756E+00
         21   -1    0    0  502  501  0.00000000000E+00  0.00000000000E+00  0.24602583214E+03  0.24602583214E+03  0.00000000000E+00 0. -1.
         21   -1    0    0  501  502 -0.00000000000E+00 -0.00000000000E+00 -0.21509867503E+03  0.21509867503E+03  0.00000000000E+00 0. -1.
      99926    2    1    2    0    0  0.00000000000E+00  0.00000000000E+00  0.30927157108E+02  0.46112450717E+03  0.46008621156E+03 0.  0.
      99925    2    3    3    0    0  0.30558853205E+02  0.79870464897E+02  0.10077206065E+03  0.29427441480E+03  0.26292449169E+03 0.  0.
         25    1    4    4    0    0  0.49907795422E+02  0.19990343828E+02  0.56548602749E+02  0.14743016809E+03  0.12509000000E+03 0.  0.
         25    1    4    4    0    0 -0.19348942217E+02  0.59880121070E+02  0.44223457900E+02  0.14684424671E+03  0.12509000000E+03 0.  0.
         25    1    3    3    0    0 -0.30558853205E+02 -0.79870464897E+02 -0.69844903541E+02  0.16685009237E+03  0.12509000000E+03 0.  0.
<mgrwt>
<rscale>  2 0.46008621E+03</rscale>
<asrwt>0</asrwt>
<pdfrwt beam="1">  1       21 0.36180270E-01 0.46008621E+03</pdfrwt>
<pdfrwt beam="2">  1       21 0.31632158E-01 0.46008621E+03</pdfrwt>
<totfact> 0.65404653E+04</totfact>
</mgrwt>
</event>
<event>
 7    0  0.4793433E-002  0.4618795E+03  0.7546771E-02  0.1024238E+00
         21   -1    0    0  502  501  0.00000000000E+00  0.00000000000E+00  0.16652268523E+04  0.16652268523E+04  0.00000000000E+00 0. -1.
         21   -1    0    0  501  502 -0.00000000000E+00 -0.00000000000E+00 -0.32027565603E+02  0.32027565603E+02  0.00000000000E+00 0. -1.
      99926    2    1    2    0    0  0.00000000000E+00  0.17763568394E-14  0.16331992867E+04  0.16972544179E+04  0.46187947457E+03 0.  0.
      99925    2    3    3    0    0  0.17543074812E+02  0.11823313844E+02  0.14537513478E+04  0.14774894955E+04  0.26293474102E+03 0.  0.
         25    1    4    4    0    0 -0.15074105725E+02  0.33210636150E+02  0.82545695868E+03  0.83567749387E+03  0.12509000000E+03 0.  0.
         25    1    4    4    0    0  0.32617180536E+02 -0.21387322305E+02  0.62829438908E+03  0.64181200165E+03  0.12509000000E+03 0.  0.
         25    1    3    3    0    0 -0.17543074812E+02 -0.11823313844E+02  0.17944793897E+03  0.21976492242E+03  0.12509000000E+03 0.  0.
<mgrwt>
<rscale>  2 0.46187947E+03</rscale>
<asrwt>0</asrwt>
<pdfrwt beam="1">  1       21 0.24488624E+00 0.46187947E+03</pdfrwt>
<pdfrwt beam="2">  1       21 0.47099372E-02 0.46187947E+03</pdfrwt>
<totfact> 0.18320552E+04</totfact>
</mgrwt>
</event>
<event>
 7    0  0.4793433E-002  0.4437461E+03  0.7546771E-02  0.1029604E+00
         21   -1    0    0  502  501  0.00000000000E+00  0.00000000000E+00  0.51241208293E+02  0.51241208293E+02  0.00000000000E+00 0. -1.
         21   -1    0    0  501  502 -0.00000000000E+00 -0.00000000000E+00 -0.96070413622E+03  0.96070413622E+03  0.00000000000E+00 0. -1.
      99926    2    1    2    0    0  0.00000000000E+00 -0.72164496601E-15 -0.90946292793E+03  0.10119453445E+04  0.44374605689E+03 0.  0.
      99925    2    3    3    0    0  0.72689549852E+02  0.25040111189E+00 -0.74228963458E+03  0.79086108124E+03  0.26302759334E+03 0.  0.
         25    1    4    4    0    0  0.16795546449E+02  0.10725365417E+02 -0.45659627836E+03  0.47384047247E+03  0.12509000000E+03 0.  0.
         25    1    4    4    0    0  0.55894003403E+02 -0.10474964305E+02 -0.28569335622E+03  0.31702060877E+03  0.12509000000E+03 0.  0.
         25    1    3    3    0    0 -0.72689549852E+02 -0.25040111189E+00 -0.16717329335E+03  0.22108426327E+03  0.12509000000E+03 0.  0.
<mgrwt>
<rscale>  2 0.44374606E+03</rscale>
<asrwt>0</asrwt>
<pdfrwt beam="1">  1       21 0.75354717E-02 0.44374606E+03</pdfrwt>
<pdfrwt beam="2">  1       21 0.14128002E+00 0.44374606E+03</pdfrwt>
<totfact> 0.42302243E+04</totfact>
</mgrwt>
</event>
<event>
 7    0  0.4793433E-002  0.4220000E+03  0.7546771E-02  0.1036417E+00
         21   -1    0    0  502  501  0.00000000000E+00  0.00000000000E+00  0.49718742966E+02  0.49718742966E+02  0.00000000000E+00 0. -1.
         21   -1    0    0  501  502 -0.00000000000E+00 -0.00000000000E+00 -0.89545717131E+03  0.89545717131E+03  0.00000000000E+00 0. -1.
      99926    2    1    2    0    0  0.00000000000E+00  0.00000000000E+00 -0.84573842834E+03  0.94517591427E+03  0.42200002340E+03 0.  0.
      99925    2    3    3    0    0 -0.64523896006E+02  0.27270204823E+02 -0.62841451919E+03  0.68482194980E+03  0.26300056611E+03 0.  0.
         25    1    3    3    0    0  0.64523896006E+02 -0.27270204823E+02 -0.21732390915E+03  0.26035396447E+03  0.12509000000E+03 0.  0.
         25    1    4    4    0    0 -0.28850406389E+02 -0.20304877619E+02 -0.36069340217E+03  0.38339519099E+03  0.12509000000E+03 0.  0.
         25    1    4    4    0    0 -0.35673489617E+02  0.47575082442E+02 -0.26772111702E+03  0.30142675882E+03  0.12509000000E+03 0.  0.
<mgrwt>
<rscale>  2 0.42200002E+03</rscale>
<asrwt>0</asrwt>
<pdfrwt beam="1">  1       21 0.73115800E-02 0.42200002E+03</pdfrwt>
<pdfrwt beam="2">  1       21 0.13168487E+00 0.42200002E+03</pdfrwt>
<totfact> 0.53977414E+04</totfact>
</mgrwt>
</event>
<event>
 7    0  0.4793433E-002  0.4506700E+03  0.7546771E-02  0.1027522E+00
         21   -1    0    0  502  501  0.00000000000E+00  0.00000000000E+00  0.40956085823E+03  0.40956085823E+03  0.00000000000E+00 0. -1.
         21   -1    0    0  501  502 -0.00000000000E+00 -0.00000000000E+00 -0.12397634240E+03  0.12397634240E+03  0.00000000000E+00 0. -1.
      99926    2    1    2    0    0  0.00000000000E+00  0.71054273576E-14  0.28558451583E+03  0.53353720063E+03  0.45066997768E+03 0.  0.
      99925    2    3    3    0    0 -0.12218827534E+02 -0.52021298863E+02  0.67791910826E+02  0.27675588867E+03  0.26294973561E+03 0.  0.
         25    1    4    4    0    0 -0.19632069024E+02 -0.76624864410E+01 -0.14769956150E+01  0.12686142617E+03  0.12509000000E+03 0.  0.
         25    1    3    3    0    0  0.12218827534E+02  0.52021298863E+02  0.21779260500E+03  0.25678131197E+03  0.12509000000E+03 0.  0.
         25    1    4    4    0    0  0.74132414899E+01 -0.44358812422E+02  0.69268906441E+02  0.14989446250E+03  0.12509000000E+03 0.  0.
<mgrwt>
<rscale>  2 0.45066998E+03</rscale>
<asrwt>0</asrwt>
<pdfrwt beam="1">  1       21 0.60229537E-01 0.45066998E+03</pdfrwt>
<pdfrwt beam="2">  1       21 0.18231815E-01 0.45066998E+03</pdfrwt>
<totfact> 0.65172769E+04</totfact>
</mgrwt>
</event>
<event>
 7    0  0.4793433E-002  0.4562635E+03  0.7546771E-02  0.1025871E+00
         21   -1    0    0  502  501  0.00000000000E+00  0.00000000000E+00  0.48407123523E+03  0.48407123523E+03  0.00000000000E+00 0.  1.
         21   -1    0    0  501  502 -0.00000000000E+00 -0.00000000000E+00 -0.10751327911E+03  0.10751327911E+03  0.00000000000E+00 0.  1.
      99926    2    1    2    0    0  0.00000000000E+00  0.00000000000E+00  0.37655795612E+03  0.59158451434E+03  0.45626345820E+03 0.  0.
      99925    2    3    3    0    0 -0.44604172009E+02  0.10553538974E+03  0.23993311221E+03  0.37377471951E+03  0.26270209738E+03 0.  0.
         25    1    4    4    0    0 -0.16208969121E+02  0.12840212044E+02  0.12617327161E+03  0.17887091517E+03  0.12509000000E+03 0.  0.
         25    1    3    3    0    0  0.44604172009E+02 -0.10553538974E+03  0.13662484391E+03  0.21780979483E+03  0.12509000000E+03 0.  0.
         25    1    4    4    0    0 -0.28395202888E+02  0.92695177691E+02  0.11375984060E+03  0.19490380434E+03  0.12509000000E+03 0.  0.
<mgrwt>
<rscale>  2 0.45626346E+03</rscale>
<asrwt>0</asrwt>
<pdfrwt beam="1">  1       21 0.71186945E-01 0.45626346E+03</pdfrwt>
<pdfrwt beam="2">  1       21 0.15810777E-01 0.45626346E+03</pdfrwt>
<totfact> 0.58611817E+04</totfact>
</mgrwt>
</event>
<event>
 7    0  0.4793433E-002  0.4511404E+03  0.7546771E-02  0.1027382E+00
         21   -1    0    0  502  501  0.00000000000E+00  0.00000000000E+00  0.35073988227E+02  0.35073988227E+02  0.00000000000E+00 0. -1.
         21   -1    0    0  501  502 -0.00000000000E+00 -0.00000000000E+00 -0.14507025760E+04  0.14507025760E+04  0.00000000000E+00 0. -1.
      99926    2    1    2    0    0 -0.71054273576E-14  0.00000000000E+00 -0.14156285878E+04  0.14857765642E+04  0.45114044408E+03 0.  0.
      99925    2    3    3    0    0  0.33674781092E+02 -0.74184414928E+02 -0.11347200129E+04  0.11676658070E+04  0.26309049957E+03 0.  0.
         25    1    4    4    0    0  0.27531628284E-01 -0.42281382709E+01 -0.60858079898E+03  0.62131793383E+03  0.12509000000E+03 0.  0.
         25    1    4    4    0    0  0.33647249463E+02 -0.69956276657E+02 -0.52613921389E+03  0.54634787318E+03  0.12509000000E+03 0.  0.
         25    1    3    3    0    0 -0.33674781092E+02  0.74184414928E+02 -0.28090857490E+03  0.31811075721E+03  0.12509000000E+03 0.  0.
<mgrwt>
<rscale>  2 0.45114044E+03</rscale>
<asrwt>0</asrwt>
<pdfrwt beam="1">  1       21 0.51579406E-02 0.45114044E+03</pdfrwt>
<pdfrwt beam="2">  1       21 0.21333857E+00 0.45114044E+03</pdfrwt>
<totfact> 0.24867091E+04</totfact>
</mgrwt>
</event>
<event>
 7    0  0.4793433E-002  0.4540501E+03  0.7546771E-02  0.1026521E+00
         21   -1    0    0  502  501  0.00000000000E+00  0.00000000000E+00  0.11494082496E+03  0.11494082496E+03  0.00000000000E+00 0.  1.
         21   -1    0    0  501  502 -0.00000000000E+00 -0.00000000000E+00 -0.44840779855E+03  0.44840779855E+03  0.00000000000E+00 0.  1.
      99926    2    1    2    0    0 -0.14210854715E-13  0.71054273576E-14 -0.33346697358E+03  0.56334862351E+03  0.45405005136E+03 0.  0.
      99925    2    3    3    0    0  0.97198454293E+02  0.38119605336E+02 -0.26119721827E+03  0.38510421417E+03  0.26302210005E+03 0.  0.
         25    1    4    4    0    0  0.76160954629E+02  0.42518735013E+02 -0.17259488593E+03  0.23031464692E+03  0.12509000000E+03 0.  0.
         25    1    4    4    0    0  0.21037499664E+02 -0.43991296770E+01 -0.88602332339E+02  0.15478956725E+03  0.12509000000E+03 0.  0.
         25    1    3    3    0    0 -0.97198454293E+02 -0.38119605336E+02 -0.72269755316E+02  0.17824440934E+03  0.12509000000E+03 0.  0.
<mgrwt>
<rscale>  2 0.45405005E+03</rscale>
<asrwt>0</asrwt>
<pdfrwt beam="1">  1       21 0.16903062E-01 0.45405005E+03</pdfrwt>
<pdfrwt beam="2">  1       21 0.65942324E-01 0.45405005E+03</pdfrwt>
<totfact> 0.61453367E+04</totfact>
</mgrwt>
</event>
<event>
 7    0  0.4793433E-002  0.4501690E+03  0.7546771E-02  0.1027672E+00
         21   -1    0    0  502  501  0.00000000000E+00  0.00000000000E+00  0.81803794470E+02  0.81803794470E+02  0.00000000000E+00 0.  1.
         21   -1    0    0  501  502 -0.00000000000E+00 -0.00000000000E+00 -0.61932368542E+03  0.61932368542E+03  0.00000000000E+00 0.  1.
      99926    2    1    2    0    0 -0.88817841970E-15  0.00000000000E+00 -0.53751989095E+03  0.70112747989E+03  0.45016897926E+03 0.  0.
      99925    2    3    3    0    0 -0.67527726143E+01 -0.22584691622E+02 -0.17456863440E+03  0.31650195946E+03  0.26295173320E+03 0.  0.
         25    1    4    4    0    0 -0.48127547014E+01 -0.96149249297E+01 -0.13566729772E+03  0.18484786491E+03  0.12509000000E+03 0.  0.
         25    1    4    4    0    0 -0.19400179130E+01 -0.12969766693E+02 -0.38901336676E+02  0.13165409455E+03  0.12509000000E+03 0.  0.
         25    1    3    3    0    0  0.67527726143E+01  0.22584691622E+02 -0.36295125655E+03  0.38462552043E+03  0.12509000000E+03 0.  0.
<mgrwt>
<rscale>  2 0.45016898E+03</rscale>
<asrwt>0</asrwt>
<pdfrwt beam="1">  1       21 0.12029970E-01 0.45016898E+03</pdfrwt>
<pdfrwt beam="2">  1       21 0.91077012E-01 0.45016898E+03</pdfrwt>
<totfact> 0.54899337E+04</totfact>
</mgrwt>
</event>
<event>
 7    0  0.4793433E-002  0.4570521E+03  0.7546771E-02  0.1025640E+00
         21   -1    0    0  502  501  0.00000000000E+00  0.00000000000E+00  0.60980410430E+02  0.60980410430E+02  0.00000000000E+00 0. -1.
         21   -1    0    0  501  502 -0.00000000000E+00 -0.00000000000E+00 -0.85640887374E+03  0.85640887374E+03  0.00000000000E+00 0. -1.
      99926    2    1    2    0    0 -0.17763568394E-14  0.00000000000E+00 -0.79542846331E+03  0.91738928417E+03  0.45705213977E+03 0.  0.
      99925    2    3    3    0    0  0.99063599007E+01 -0.76643507444E+02 -0.67080348889E+03  0.72464267448E+03  0.26297779710E+03 0.  0.
         25    1    4    4    0    0 -0.19052989812E+02 -0.44651960243E+02 -0.25291704713E+03  0.28630640022E+03  0.12509000000E+03 0.  0.
         25    1    4    4    0    0  0.28959349713E+02 -0.31991547200E+02 -0.41788644176E+03  0.43833627426E+03  0.12509000000E+03 0.  0.
         25    1    3    3    0    0 -0.99063599007E+01  0.76643507444E+02 -0.12462497442E+03  0.19274660970E+03  0.12509000000E+03 0.  0.
<mgrwt>
<rscale>  2 0.45705214E+03</rscale>
<asrwt>0</asrwt>
<pdfrwt beam="1">  1       21 0.89677081E-02 0.45705214E+03</pdfrwt>
<pdfrwt beam="2">  1       21 0.12594247E+00 0.45705214E+03</pdfrwt>
<totfact> 0.41814758E+04</totfact>
</mgrwt>
</event>
<event>
 7    0  0.4793433E-002  0.4642544E+03  0.7546771E-02  0.1023554E+00
         21   -1    0    0  502  501  0.00000000000E+00  0.00000000000E+00  0.35607217183E+02  0.35607217183E+02  0.00000000000E+00 0.  1.
         21   -1    0    0  501  502 -0.00000000000E+00 -0.00000000000E+00 -0.15132618658E+04  0.15132618658E+04  0.00000000000E+00 0.  1.
      99926    2    1    2    0    0 -0.71054273576E-14  0.00000000000E+00 -0.14776546486E+04  0.15488690830E+04  0.46425442986E+03 0.  0.
      99925    2    3    3    0    0  0.33176542535E+02 -0.58055648479E+02 -0.12615532579E+04  0.12903764129E+04  0.26283744653E+03 0.  0.
         25    1    3    3    0    0 -0.33176542535E+02  0.58055648479E+02 -0.21610139080E+03  0.25849267011E+03  0.12509000000E+03 0.  0.
         25    1    4    4    0    0  0.42847106844E+01  0.96559854269E+01 -0.54507658200E+03  0.55934567590E+03  0.12509000000E+03 0.  0.
         25    1    4    4    0    0  0.28891831850E+02 -0.67711633906E+02 -0.71647667586E+03  0.73103073701E+03  0.12509000000E+03 0.  0.
<mgrwt>
<rscale>  2 0.46425443E+03</rscale>
<asrwt>0</asrwt>
<pdfrwt beam="1">  1       21 0.52363571E-02 0.46425443E+03</pdfrwt>
<pdfrwt beam="2">  1       21 0.22253844E+00 0.46425443E+03</pdfrwt>
<totfact> 0.21052259E+04</totfact>
</mgrwt>
</event>
<event>
 7    0  0.4793433E-002  0.4519749E+03  0.7546771E-02  0.1027135E+00
         21   -1    0    0  502  501  0.00000000000E+00  0.00000000000E+00  0.47192287467E+02  0.47192287467E+02  0.00000000000E+00 0.  1.
         21   -1    0    0  501  502 -0.00000000000E+00 -0.00000000000E+00 -0.10821754834E+04  0.10821754834E+04  0.00000000000E+00 0.  1.
      99926    2    1    2    0    0  0.14210854715E-13  0.14210854715E-13 -0.10349831959E+04  0.11293677709E+04  0.45197493958E+03 0.  0.
      99925    2    3    3    0    0 -0.73651291924E+02 -0.81448372601E+02 -0.62363924557E+03  0.68562268210E+03  0.26285776267E+03 0.  0.
         25    1    4    4    0    0 -0.46331410620E+02 -0.20950987463E+01 -0.26696476328E+03  0.29844376687E+03  0.12509000000E+03 0.  0.
         25    1    4    4    0    0 -0.27319881304E+02 -0.79353273855E+02 -0.35667448228E+03  0.38717891523E+03  0.12509000000E+03 0.  0.
         25    1    3    3    0    0  0.73651291924E+02  0.81448372601E+02 -0.41134395036E+03  0.44374508876E+03  0.12509000000E+03 0.  0.
<mgrwt>
<rscale>  2 0.45197494E+03</rscale>
<asrwt>0</asrwt>
<pdfrwt beam="1">  1       21 0.69400423E-02 0.45197494E+03</pdfrwt>
<pdfrwt beam="2">  1       21 0.15914345E+00 0.45197494E+03</pdfrwt>
<totfact> 0.35303947E+04</totfact>
</mgrwt>
</event>
<event>
 7    0  0.4793433E-002  0.4568758E+03  0.7546771E-02  0.1025691E+00
         21   -1    0    0  502  501  0.00000000000E+00  0.00000000000E+00  0.17767460725E+04  0.17767460725E+04  0.00000000000E+00 0.  1.
         21   -1    0    0  501  502 -0.00000000000E+00 -0.00000000000E+00 -0.29370468003E+02  0.29370468003E+02  0.00000000000E+00 0.  1.
      99926    2    1    2    0    0  0.00000000000E+00  0.00000000000E+00  0.17473756045E+04  0.18061165405E+04  0.45687575411E+03 0.  0.
      99925    2    3    3    0    0  0.10153465825E+03  0.48211413416E+02  0.10030607600E+04  0.10430400548E+04  0.26299817573E+03 0.  0.
         25    1    4    4    0    0  0.79704071536E+02  0.55301464279E+02  0.52437269403E+03  0.54774558083E+03  0.12509000000E+03 0.  0.
         25    1    3    3    0    0 -0.10153465825E+03 -0.48211413416E+02  0.74431484450E+03  0.76307648572E+03  0.12509000000E+03 0.  0.
         25    1    4    4    0    0  0.21830586712E+02 -0.70900508631E+01  0.47868806596E+03  0.49529447396E+03  0.12509000000E+03 0.  0.
<mgrwt>
<rscale>  2 0.45687575E+03</rscale>
<asrwt>0</asrwt>
<pdfrwt beam="1">  1       21 0.26128612E+00 0.45687575E+03</pdfrwt>
<pdfrwt beam="2">  1       21 0.43191877E-02 0.45687575E+03</pdfrwt>
<totfact> 0.16894861E+04</totfact>
</mgrwt>
</event>
<event>
 7    0  0.4793433E-002  0.4490858E+03  0.7546771E-02  0.1027995E+00
         21   -1    0    0  502  501  0.00000000000E+00  0.00000000000E+00  0.20203025414E+03  0.20203025414E+03  0.00000000000E+00 0.  1.
         21   -1    0    0  501  502 -0.00000000000E+00 -0.00000000000E+00 -0.24956419811E+03  0.24956419811E+03  0.00000000000E+00 0.  1.
      99926    2    1    2    0    0  0.00000000000E+00  0.00000000000E+00 -0.47533943972E+02  0.45159445224E+03  0.44908581971E+03 0.  0.
      99925    2    3    3    0    0  0.34111394620E+02 -0.46990064680E+02 -0.12111760860E+03  0.29528156979E+03  0.26296402211E+03 0.  0.
         25    1    3    3    0    0 -0.34111394620E+02  0.46990064680E+02  0.73583664623E+02  0.15631288245E+03  0.12509000000E+03 0.  0.
         25    1    4    4    0    0 -0.36827511240E+01 -0.57499192282E+01 -0.24586173837E+02  0.12766601847E+03  0.12509000000E+03 0.  0.
         25    1    4    4    0    0  0.37794145744E+02 -0.41240145452E+02 -0.96531434758E+02  0.16761555132E+03  0.12509000000E+03 0.  0.
<mgrwt>
<rscale>  2 0.44908582E+03</rscale>
<asrwt>0</asrwt>
<pdfrwt beam="1">  1       21 0.29710332E-01 0.44908582E+03</pdfrwt>
<pdfrwt beam="2">  1       21 0.36700617E-01 0.44908582E+03</pdfrwt>
<totfact> 0.72140386E+04</totfact>
</mgrwt>
</event>
<event>
 7    0  0.4793433E-002  0.4542918E+03  0.7546771E-02  0.1026450E+00
         21   -1    0    0  502  501  0.00000000000E+00  0.00000000000E+00  0.12935516807E+03  0.12935516807E+03  0.00000000000E+00 0. -1.
         21   -1    0    0  501  502 -0.00000000000E+00 -0.00000000000E+00 -0.39886516354E+03  0.39886516354E+03  0.00000000000E+00 0. -1.
      99926    2    1    2    0    0  0.00000000000E+00  0.00000000000E+00 -0.26950999546E+03  0.52822033161E+03  0.45429184571E+03 0.  0.
      99925    2    3    3    0    0 -0.10615266619E+03  0.36321210759E+02 -0.15924034757E+03  0.32723644610E+03  0.26294216944E+03 0.  0.
         25    1    4    4    0    0 -0.78635561027E+02  0.39136555331E+02 -0.56287507329E+02  0.16288343379E+03  0.12509000000E+03 0.  0.
         25    1    3    3    0    0  0.10615266619E+03 -0.36321210759E+02 -0.11026964790E+03  0.20098388552E+03  0.12509000000E+03 0.  0.
         25    1    4    4    0    0 -0.27517105163E+02 -0.28153445723E+01 -0.10295284024E+03  0.16435301231E+03  0.12509000000E+03 0.  0.
<mgrwt>
<rscale>  2 0.45429185E+03</rscale>
<asrwt>0</asrwt>
<pdfrwt beam="1">  1       21 0.19022819E-01 0.45429185E+03</pdfrwt>
<pdfrwt beam="2">  1       21 0.58656642E-01 0.45429185E+03</pdfrwt>
<totfact> 0.63683884E+04</totfact>
</mgrwt>
</event>
<event>
 7    0  0.4793433E-002  0.4593165E+03  0.7546771E-02  0.1024980E+00
         21   -1    0    0  502  501  0.00000000000E+00  0.00000000000E+00  0.62317178211E+03  0.62317178211E+03  0.00000000000E+00 0. -1.
         21   -1    0    0  501  502 -0.00000000000E+00 -0.00000000000E+00 -0.84636216605E+02  0.84636216605E+02  0.00000000000E+00 0. -1.
      99926    2    1    2    0    0  0.00000000000E+00  0.00000000000E+00  0.53853556550E+03  0.70780799871E+03  0.45931645706E+03 0.  0.
      99925    2    3    3    0    0  0.98886202823E+02 -0.40766811525E+02  0.26365622108E+03  0.38742295518E+03  0.26294776906E+03 0.  0.
         25    1    4    4    0    0  0.46596736831E+02 -0.46906194450E+02  0.17616052433E+03  0.22594575763E+03  0.12509000000E+03 0.  0.
         25    1    4    4    0    0  0.52289465992E+02  0.61393829255E+01  0.87495696753E+02  0.16147719754E+03  0.12509000000E+03 0.  0.
         25    1    3    3    0    0 -0.98886202823E+02  0.40766811525E+02  0.27487934442E+03  0.32038504353E+03  0.12509000000E+03 0.  0.
<mgrwt>
<rscale>  2 0.45931646E+03</rscale>
<asrwt>0</asrwt>
<pdfrwt beam="1">  1       21 0.91642906E-01 0.45931646E+03</pdfrwt>
<pdfrwt beam="2">  1       21 0.12446503E-01 0.45931646E+03</pdfrwt>
<totfact> 0.50735869E+04</totfact>
</mgrwt>
</event>
<event>
 7    0  0.4793433E-002  0.4455133E+03  0.7546771E-02  0.1029069E+00
         21   -1    0    0  502  501  0.00000000000E+00  0.00000000000E+00  0.11327031348E+04  0.11327031348E+04  0.00000000000E+00 0. -1.
         21   -1    0    0  501  502 -0.00000000000E+00 -0.00000000000E+00 -0.43807173117E+02  0.43807173117E+02  0.00000000000E+00 0. -1.
      99926    2    1    2    0    0  0.35527136788E-14  0.00000000000E+00  0.10888959617E+04  0.11765103079E+04  0.44551328741E+03 0.  0.
      99925    2    3    3    0    0 -0.15057841289E+02  0.10207671174E+03  0.72356182284E+03  0.77680674930E+03  0.26313612565E+03 0.  0.
         25    1    4    4    0    0 -0.41130111337E+02  0.26939549280E+02  0.34187284369E+03  0.36734449053E+03  0.12509000000E+03 0.  0.
         25    1    4    4    0    0  0.26072270048E+02  0.75137162465E+02  0.38168897916E+03  0.40946225877E+03  0.12509000000E+03 0.  0.
         25    1    3    3    0    0  0.15057841289E+02 -0.10207671174E+03  0.36533413883E+03  0.39970355860E+03  0.12509000000E+03 0.  0.
<mgrwt>
<rscale>  2 0.44551329E+03</rscale>
<asrwt>0</asrwt>
<pdfrwt beam="1">  1       21 0.16657397E+00 0.44551329E+03</pdfrwt>
<pdfrwt beam="2">  1       21 0.64422320E-02 0.44551329E+03</pdfrwt>
<totfact> 0.35458868E+04</totfact>
</mgrwt>
</event>
<event>
 7    0  0.4793433E-002  0.4567046E+03  0.7546771E-02  0.1025741E+00
         21   -1    0    0  502  501  0.00000000000E+00  0.00000000000E+00  0.13647353759E+03  0.13647353759E+03  0.00000000000E+00 0. -1.
         21   -1    0    0  501  502 -0.00000000000E+00 -0.00000000000E+00 -0.38208711207E+03  0.38208711207E+03  0.00000000000E+00 0. -1.
      99926    2    1    2    0    0  0.00000000000E+00 -0.71054273576E-14 -0.24561357448E+03  0.51856064966E+03  0.45670463037E+03 0.  0.
      99925    2    3    3    0    0 -0.52193660485E+02 -0.46793966311E+02 -0.51209086666E+02  0.27699395812E+03  0.26303883516E+03 0.  0.
         25    1    3    3    0    0  0.52193660485E+02  0.46793966311E+02 -0.19440448781E+03  0.24156669154E+03  0.12509000000E+03 0.  0.
         25    1    4    4    0    0 -0.39210116467E+02 -0.22550209635E+02  0.13132223926E+02  0.13366341531E+03  0.12509000000E+03 0.  0.
         25    1    4    4    0    0 -0.12983544018E+02 -0.24243756677E+02 -0.64341310592E+02  0.14333054281E+03  0.12509000000E+03 0.  0.
<mgrwt>
<rscale>  2 0.45670463E+03</rscale>
<asrwt>0</asrwt>
<pdfrwt beam="1">  1       21 0.20069638E-01 0.45670463E+03</pdfrwt>
<pdfrwt beam="2">  1       21 0.56189281E-01 0.45670463E+03</pdfrwt>
<totfact> 0.63127301E+04</totfact>
</mgrwt>
</event>
<event>
 7    0  0.4793433E-002  0.4572368E+03  0.7546771E-02  0.1025586E+00
         21   -1    0    0  502  501  0.00000000000E+00  0.00000000000E+00  0.34961733582E+03  0.34961733582E+03  0.00000000000E+00 0. -1.
         21   -1    0    0  501  502 -0.00000000000E+00 -0.00000000000E+00 -0.14949596768E+03  0.14949596768E+03  0.00000000000E+00 0. -1.
      99926    2    1    2    0    0  0.00000000000E+00  0.00000000000E+00  0.20012136814E+03  0.49911330349E+03  0.45723683988E+03 0.  0.
      99925    2    3    3    0    0  0.27551512479E+02  0.71544841767E+02  0.31763283133E+02  0.27579804851E+03  0.26301693326E+03 0.  0.
         25    1    3    3    0    0 -0.27551512479E+02 -0.71544841767E+02  0.16835808500E+03  0.22331525499E+03  0.12509000000E+03 0.  0.
         25    1    4    4    0    0 -0.26723731686E+02  0.38135112442E+02  0.19127521426E+02  0.13483996000E+03  0.12509000000E+03 0.  0.
         25    1    4    4    0    0  0.54275244165E+02  0.33409729325E+02  0.12635761707E+02  0.14095808851E+03  0.12509000000E+03 0.  0.
<mgrwt>
<rscale>  2 0.45723684E+03</rscale>
<asrwt>0</asrwt>
<pdfrwt beam="1">  1       21 0.51414314E-01 0.45723684E+03</pdfrwt>
<pdfrwt beam="2">  1       21 0.21984701E-01 0.45723684E+03</pdfrwt>
<totfact> 0.64185679E+04</totfact>
</mgrwt>
</event>
<event>
 7    0  0.4793433E-002  0.4546077E+03  0.7546771E-02  0.1026357E+00
         21   -1    0    0  502  501  0.00000000000E+00  0.00000000000E+00  0.12939050511E+04  0.12939050511E+04  0.00000000000E+00 0. -1.
         21   -1    0    0  501  502 -0.00000000000E+00 -0.00000000000E+00 -0.39931092702E+02  0.39931092702E+02  0.00000000000E+00 0. -1.
      99926    2    1    2    0    0  0.00000000000E+00  0.00000000000E+00  0.12539739584E+04  0.13338361439E+04  0.45460771021E+03 0.  0.
      99925    2    3    3    0    0  0.25025056426E+02  0.10882274962E+03  0.73413231060E+03  0.78762053512E+03  0.26253992762E+03 0.  0.
         25    1    3    3    0    0 -0.25025056426E+02 -0.10882274962E+03  0.51984164785E+03  0.54621560873E+03  0.12509000000E+03 0.  0.
         25    1    4    4    0    0 -0.45065045961E+01  0.67981390839E+02  0.46910148254E+03  0.49025043305E+03  0.12509000000E+03 0.  0.
         25    1    4    4    0    0  0.29531561022E+02  0.40841358783E+02  0.26503082806E+03  0.29737010207E+03  0.12509000000E+03 0.  0.
<mgrwt>
<rscale>  2 0.45460771E+03</rscale>
<asrwt>0</asrwt>
<pdfrwt beam="1">  1       21 0.19028013E+00 0.45460771E+03</pdfrwt>
<pdfrwt beam="2">  1       21 0.58722204E-02 0.45460771E+03</pdfrwt>
<totfact> 0.28233715E+04</totfact>
</mgrwt>
</event>
<event>
 7    0  0.4793433E-002  0.4522608E+03  0.7546771E-02  0.1027050E+00
         21   -1    0    0  502  501  0.00000000000E+00  0.00000000000E+00  0.35173211293E+03  0.35173211293E+03  0.00000000000E+00 0.  1.
         21   -1    0    0  501  502 -0.00000000000E+00 -0.00000000000E+00 -0.14538038643E+03  0.14538038643E+03  0.00000000000E+00 0.  1.
      99926    2    1    2    0    0  0.71054273576E-14  0.00000000000E+00  0.20635172650E+03  0.49711249936E+03  0.45226076769E+03 0.  0.
      99925    2    3    3    0    0  0.56657520623E+02 -0.73076714866E+02  0.63494617827E+02  0.28591130974E+03  0.26298940976E+03 0.  0.
         25    1    4    4    0    0  0.10151880308E+02  0.19862515797E+01  0.33082451860E+02  0.12980355384E+03  0.12509000000E+03 0.  0.
         25    1    3    3    0    0 -0.56657520623E+02  0.73076714866E+02  0.14285710868E+03  0.21120118962E+03  0.12509000000E+03 0.  0.
         25    1    4    4    0    0  0.46505640315E+02 -0.75062966446E+02  0.30412165966E+02  0.15610775590E+03  0.12509000000E+03 0.  0.
<mgrwt>
<rscale>  2 0.45226077E+03</rscale>
<asrwt>0</asrwt>
<pdfrwt beam="1">  1       21 0.51725310E-01 0.45226077E+03</pdfrwt>
<pdfrwt beam="2">  1       21 0.21379469E-01 0.45226077E+03</pdfrwt>
<totfact> 0.66917288E+04</totfact>
</mgrwt>
</event>
<event>
 7    0  0.4793433E-002  0.4324098E+03  0.7546771E-02  0.1033101E+00
         21   -1    0    0  502  501  0.00000000000E+00  0.00000000000E+00  0.39265650219E+03  0.39265650219E+03  0.00000000000E+00 0. -1.
         21   -1    0    0  501  502 -0.00000000000E+00 -0.00000000000E+00 -0.11904697665E+03  0.11904697665E+03  0.00000000000E+00 0. -1.
      99926    2    1    2    0    0 -0.13322676296E-14 -0.35527136788E-14  0.27360952555E+03  0.51170347884E+03  0.43240984931E+03 0.  0.
      99925    2    3    3    0    0  0.20386303455E+01 -0.16460081802E+02  0.69912652840E+02  0.27208917551E+03  0.26243027664E+03 0.  0.
         25    1    3    3    0    0 -0.20386303455E+01  0.16460081802E+02  0.20369687271E+03  0.23961430332E+03  0.12509000000E+03 0.  0.
         25    1    4    4    0    0 -0.21192252273E+02 -0.25685643106E+02  0.64378594638E+01  0.12960639626E+03  0.12509000000E+03 0.  0.
         25    1    4    4    0    0  0.23230882618E+02  0.92255613036E+01  0.63474793376E+02  0.14248277925E+03  0.12509000000E+03 0.  0.
<mgrwt>
<rscale>  2 0.43240985E+03</rscale>
<asrwt>0</asrwt>
<pdfrwt beam="1">  1       21 0.57743603E-01 0.43240985E+03</pdfrwt>
<pdfrwt beam="2">  1       21 0.17506908E-01 0.43240985E+03</pdfrwt>
<totfact> 0.77418681E+04</totfact>
</mgrwt>
</event>
<event>
 7    0  0.4793433E-002  0.4439626E+03  0.7546771E-02  0.1029538E+00
         21   -1    0    0  502  501  0.00000000000E+00  0.00000000000E+00  0.79864590177E+02  0.79864590177E+02  0.00000000000E+00 0. -1.
         21   -1    0    0  501  502 -0.00000000000E+00 -0.00000000000E+00 -0.61699050368E+03  0.61699050368E+03  0.00000000000E+00 0. -1.
      99926    2    1    2    0    0  0.00000000000E+00  0.00000000000E+00 -0.53712591350E+03  0.69685509386E+03  0.44396258275E+03 0.  0.
      99925    2    3    3    0    0  0.44532219647E+02  0.39311052528E+02 -0.21052114077E+03  0.34210636150E+03  0.26303827560E+03 0.  0.
         25    1    3    3    0    0 -0.44532219647E+02 -0.39311052528E+02 -0.32660477273E+03  0.35474873236E+03  0.12509000000E+03 0.  0.
         25    1    4    4    0    0 -0.11732908519E+02  0.41719386141E+02 -0.98853106959E+02  0.16521989341E+03  0.12509000000E+03 0.  0.
         25    1    4    4    0    0  0.56265128167E+02 -0.24083336132E+01 -0.11166803381E+03  0.17688646809E+03  0.12509000000E+03 0.  0.
<mgrwt>
<rscale>  2 0.44396258E+03</rscale>
<asrwt>0</asrwt>
<pdfrwt beam="1">  1       21 0.11744792E-01 0.44396258E+03</pdfrwt>
<pdfrwt beam="2">  1       21 0.90733900E-01 0.44396258E+03</pdfrwt>
<totfact> 0.57946007E+04</totfact>
</mgrwt>
</event>
<event>
 7    0  0.4793433E-002  0.4565361E+03  0.7546771E-02  0.1025791E+00
         21   -1    0    0  502  501  0.00000000000E+00  0.00000000000E+00  0.25187815463E+03  0.25187815463E+03  0.00000000000E+00 0. -1.
         21   -1    0    0  501  502 -0.00000000000E+00 -0.00000000000E+00 -0.20687106894E+03  0.20687106894E+03  0.00000000000E+00 0. -1.
      99926    2    1    2    0    0  0.66613381478E-15 -0.14210854715E-13  0.45007085697E+02  0.45874922357E+03  0.45653610193E+03 0.  0.
      99925    2    3    3    0    0 -0.11634365423E+01  0.11294007991E+03  0.47609115003E+02  0.29019331625E+03  0.26303748351E+03 0.  0.
         25    1    4    4    0    0  0.26127597331E+02  0.79127829389E+02  0.25852359868E+01  0.15032649890E+03  0.12509000000E+03 0.  0.
         25    1    3    3    0    0  0.11634365423E+01 -0.11294007991E+03 -0.26020293063E+01  0.16855590732E+03  0.12509000000E+03 0.  0.
         25    1    4    4    0    0 -0.27291033873E+02  0.33812250523E+02  0.45023879017E+02  0.13986681736E+03  0.12509000000E+03 0.  0.
<mgrwt>
<rscale>  2 0.45653610E+03</rscale>
<asrwt>0</asrwt>
<pdfrwt beam="1">  1       21 0.37040905E-01 0.45653610E+03</pdfrwt>
<pdfrwt beam="2">  1       21 0.30422216E-01 0.45653610E+03</pdfrwt>
<totfact> 0.67441635E+04</totfact>
</mgrwt>
</event>
<event>
 7    0  0.4793433E-002  0.4507451E+03  0.7546771E-02  0.1027500E+00
         21   -1    0    0  502  501  0.00000000000E+00  0.00000000000E+00  0.41350191392E+03  0.41350191392E+03  0.00000000000E+00 0. -1.
         21   -1    0    0  501  502 -0.00000000000E+00 -0.00000000000E+00 -0.12283570002E+03  0.12283570002E+03  0.00000000000E+00 0. -1.
      99926    2    1    2    0    0  0.14210854715E-13  0.00000000000E+00  0.29066621391E+03  0.53633761394E+03  0.45074514775E+03 0.  0.
      99925    2    3    3    0    0 -0.69552771889E+02 -0.17880642735E+02  0.28146550029E+03  0.39180572579E+03  0.26292887526E+03 0.  0.
         25    1    4    4    0    0  0.28634230465E+01  0.11475664375E+01  0.10869873624E+03  0.16574812054E+03  0.12509000000E+03 0.  0.
         25    1    4    4    0    0 -0.72416194935E+02 -0.19028209172E+02  0.17276676405E+03  0.22605760525E+03  0.12509000000E+03 0.  0.
         25    1    3    3    0    0  0.69552771889E+02  0.17880642735E+02  0.92007136176E+01  0.14453188815E+03  0.12509000000E+03 0.  0.
<mgrwt>
<rscale>  2 0.45074515E+03</rscale>
<asrwt>0</asrwt>
<pdfrwt beam="1">  1       21 0.60809105E-01 0.45074515E+03</pdfrwt>
<pdfrwt beam="2">  1       21 0.18064074E-01 0.45074515E+03</pdfrwt>
<totfact> 0.64937798E+04</totfact>
</mgrwt>
</event>
<event>
 7    0  0.4793433E-002  0.4516673E+03  0.7546771E-02  0.1027226E+00
         21   -1    0    0  502  501  0.00000000000E+00  0.00000000000E+00  0.22573702888E+03  0.22573702888E+03  0.00000000000E+00 0.  1.
         21   -1    0    0  501  502 -0.00000000000E+00 -0.00000000000E+00 -0.22593033176E+03  0.22593033176E+03  0.00000000000E+00 0.  1.
      99926    2    1    2    0    0  0.00000000000E+00  0.00000000000E+00 -0.19330288701E+00  0.45166736064E+03  0.45166731927E+03 0.  0.
      99925    2    3    3    0    0  0.50508235154E+02 -0.97603789605E+02 -0.66252272366E+01  0.28503465282E+03  0.26291306188E+03 0.  0.
         25    1    3    3    0    0 -0.50508235154E+02  0.97603789605E+02  0.64319243496E+01  0.16663270782E+03  0.12509000000E+03 0.  0.
         25    1    4    4    0    0  0.32613054776E+02 -0.45531787493E+02 -0.42931866105E+02  0.14362245034E+03  0.12509000000E+03 0.  0.
         25    1    4    4    0    0  0.17895180377E+02 -0.52072002112E+02  0.36306638868E+02  0.14141220248E+03  0.12509000000E+03 0.  0.
<mgrwt>
<rscale>  2 0.45166732E+03</rscale>
<asrwt>0</asrwt>
<pdfrwt beam="1">  1       21 0.33196622E-01 0.45166732E+03</pdfrwt>
<pdfrwt beam="2">  1       21 0.33225049E-01 0.45166732E+03</pdfrwt>
<totfact> 0.70650717E+04</totfact>
</mgrwt>
</event>
<event>
 7    0  0.4793433E-002  0.4550170E+03  0.7546771E-02  0.1026236E+00
         21   -1    0    0  502  501  0.00000000000E+00  0.00000000000E+00  0.33762968444E+03  0.33762968444E+03  0.00000000000E+00 0.  1.
         21   -1    0    0  501  502 -0.00000000000E+00 -0.00000000000E+00 -0.15330443139E+03  0.15330443139E+03  0.00000000000E+00 0.  1.
      99926    2    1    2    0    0  0.00000000000E+00  0.00000000000E+00  0.18432525305E+03  0.49093411584E+03  0.45501704054E+03 0.  0.
      99925    2    3    3    0    0 -0.11313490144E+03  0.25116321339E+01  0.11865684137E+03  0.30992123615E+03  0.26299412996E+03 0.  0.
         25    1    4    4    0    0 -0.82981145319E+02  0.13992359195E+02  0.96090800311E+02  0.17878088991E+03  0.12509000000E+03 0.  0.
         25    1    4    4    0    0 -0.30153756117E+02 -0.11480727061E+02  0.22566041055E+02  0.13114034624E+03  0.12509000000E+03 0.  0.
         25    1    3    3    0    0  0.11313490144E+03 -0.25116321339E+01  0.65668411684E+02  0.18101287969E+03  0.12509000000E+03 0.  0.
<mgrwt>
<rscale>  2 0.45501704E+03</rscale>
<asrwt>0</asrwt>
<pdfrwt beam="1">  1       21 0.49651424E-01 0.45501704E+03</pdfrwt>
<pdfrwt beam="2">  1       21 0.22544769E-01 0.45501704E+03</pdfrwt>
<totfact> 0.65903460E+04</totfact>
</mgrwt>
</event>
<event>
 7    0  0.4793433E-002  0.4512168E+03  0.7546771E-02  0.1027360E+00
         21   -1    0    0  502  501  0.00000000000E+00  0.00000000000E+00  0.14419106008E+03  0.14419106008E+03  0.00000000000E+00 0. -1.
         21   -1    0    0  501  502 -0.00000000000E+00 -0.00000000000E+00 -0.35299790416E+03  0.35299790416E+03  0.00000000000E+00 0. -1.
      99926    2    1    2    0    0  0.00000000000E+00  0.00000000000E+00 -0.20880684408E+03  0.49718896424E+03  0.45121676390E+03 0.  0.
      99925    2    3    3    0    0  0.39059591123E+02  0.53590300747E+02 -0.35834521794E+02  0.27366155122E+03  0.26307595799E+03 0.  0.
         25    1    4    4    0    0  0.26713043155E+02  0.15647233247E+02  0.21044774514E+02  0.13057110407E+03  0.12509000000E+03 0.  0.
         25    1    4    4    0    0  0.12346547968E+02  0.37943067500E+02 -0.56879296307E+02  0.14309044715E+03  0.12509000000E+03 0.  0.
         25    1    3    3    0    0 -0.39059591123E+02 -0.53590300747E+02 -0.17297232229E+03  0.22352741302E+03  0.12509000000E+03 0.  0.
<mgrwt>
<rscale>  2 0.45121676E+03</rscale>
<asrwt>0</asrwt>
<pdfrwt beam="1">  1       21 0.21204568E-01 0.45121676E+03</pdfrwt>
<pdfrwt beam="2">  1       21 0.51911457E-01 0.45121676E+03</pdfrwt>
<totfact> 0.67472257E+04</totfact>
</mgrwt>
</event>
<event>
 7    0  0.4793433E-002  0.4527746E+03  0.7546771E-02  0.1026898E+00
         21   -1    0    0  502  501  0.00000000000E+00  0.00000000000E+00  0.59009344141E+02  0.59009344141E+02  0.00000000000E+00 0.  1.
         21   -1    0    0  501  502 -0.00000000000E+00 -0.00000000000E+00 -0.86852695179E+03  0.86852695179E+03  0.00000000000E+00 0.  1.
      99926    2    1    2    0    0 -0.14210854715E-13  0.35527136788E-14 -0.80951760764E+03  0.92753629593E+03  0.45277458318E+03 0.  0.
      99925    2    3    3    0    0  0.85802413392E+02 -0.22471078569E+02 -0.64722999040E+03  0.70426116895E+03  0.26307818249E+03 0.  0.
         25    1    4    4    0    0  0.71589812912E+01  0.10568937172E+02 -0.27310750411E+03  0.30066288488E+03  0.12509000000E+03 0.  0.
         25    1    3    3    0    0 -0.85802413392E+02  0.22471078569E+02 -0.16228761725E+03  0.22327512698E+03  0.12509000000E+03 0.  0.
         25    1    4    4    0    0  0.78643432100E+02 -0.33040015740E+02 -0.37412248629E+03  0.40359828407E+03  0.12509000000E+03 0.  0.
<mgrwt>
<rscale>  2 0.45277458E+03</rscale>
<asrwt>0</asrwt>
<pdfrwt beam="1">  1       21 0.86778448E-02 0.45277458E+03</pdfrwt>
<pdfrwt beam="2">  1       21 0.12772455E+00 0.45277458E+03</pdfrwt>
<totfact> 0.42804338E+04</totfact>
</mgrwt>
</event>
<event>
 7    0  0.4793433E-002  0.4521221E+03  0.7546771E-02  0.1027091E+00
         21   -1    0    0  502  501  0.00000000000E+00  0.00000000000E+00  0.81504186619E+02  0.81504186619E+02  0.00000000000E+00 0. -1.
         21   -1    0    0  501  502 -0.00000000000E+00 -0.00000000000E+00 -0.62700591789E+03  0.62700591789E+03  0.00000000000E+00 0. -1.
      99926    2    1    2    0    0 -0.12212453271E-14  0.00000000000E+00 -0.54550173127E+03  0.70851010451E+03  0.45212213988E+03 0.  0.
      99925    2    3    3    0    0  0.84748783346E+00 -0.84972480492E+02 -0.45460676552E+03  0.53207188989E+03  0.26308201019E+03 0.  0.
         25    1    3    3    0    0 -0.84748783346E+00  0.84972480492E+02 -0.90894965750E+02  0.17643821461E+03  0.12509000000E+03 0.  0.
         25    1    4    4    0    0 -0.31808190488E+02 -0.16373507268E+02 -0.21226022147E+03  0.24896136736E+03  0.12509000000E+03 0.  0.
         25    1    4    4    0    0  0.32655678322E+02 -0.68598973223E+02 -0.24234654405E+03  0.28311052253E+03  0.12509000000E+03 0.  0.
<mgrwt>
<rscale>  2 0.45212214E+03</rscale>
<asrwt>0</asrwt>
<pdfrwt beam="1">  1       21 0.11985910E-01 0.45212214E+03</pdfrwt>
<pdfrwt beam="2">  1       21 0.92206750E-01 0.45212214E+03</pdfrwt>
<totfact> 0.53647811E+04</totfact>
</mgrwt>
</event>
<event>
 7    0  0.4793433E-002  0.4407392E+03  0.7546771E-02  0.1030520E+00
         21   -1    0    0  502  501  0.00000000000E+00  0.00000000000E+00  0.33532339591E+02  0.33532339591E+02  0.00000000000E+00 0.  1.
         21   -1    0    0  501  502 -0.00000000000E+00 -0.00000000000E+00 -0.14482366135E+04  0.14482366135E+04  0.00000000000E+00 0.  1.
      99926    2    1    2    0    0  0.35527136788E-14  0.00000000000E+00 -0.14147042739E+04  0.14817689531E+04  0.44073920602E+03 0.  0.
      99925    2    3    3    0    0  0.20615455249E+02  0.96949487727E+02 -0.91630421740E+03  0.95843891899E+03  0.26299722896E+03 0.  0.
         25    1    4    4    0    0  0.28205913824E+02  0.42860351561E+02 -0.57873677129E+03  0.59432006684E+03  0.12509000000E+03 0.  0.
         25    1    4    4    0    0 -0.75904585745E+01  0.54089136165E+02 -0.33756744611E+03  0.36411885215E+03  0.12509000000E+03 0.  0.
         25    1    3    3    0    0 -0.20615455249E+02 -0.96949487727E+02 -0.49840005648E+03  0.52333003408E+03  0.12509000000E+03 0.  0.
<mgrwt>
<rscale>  2 0.44073921E+03</rscale>
<asrwt>0</asrwt>
<pdfrwt beam="1">  1       21 0.49312260E-02 0.44073921E+03</pdfrwt>
<pdfrwt beam="2">  1       21 0.21297599E+00 0.44073921E+03</pdfrwt>
<totfact> 0.27110696E+04</totfact>
</mgrwt>
</event>
<event>
 7    0  0.4793433E-002  0.4524200E+03  0.7546771E-02  0.1027003E+00
         21   -1    0    0  502  501  0.00000000000E+00  0.00000000000E+00  0.36939886705E+02  0.36939886705E+02  0.00000000000E+00 0. -1.
         21   -1    0    0  501  502 -0.00000000000E+00 -0.00000000000E+00 -0.13852498584E+04  0.13852498584E+04  0.00000000000E+00 0. -1.
      99926    2    1    2    0    0  0.00000000000E+00  0.00000000000E+00 -0.13483099717E+04  0.14221897451E+04  0.45242003858E+03 0.  0.
      99925    2    3    3    0    0 -0.10974073053E+03  0.13191065539E+02 -0.87493399152E+03  0.92024417151E+03  0.26291217837E+03 0.  0.
         25    1    3    3    0    0  0.10974073053E+03 -0.13191065539E+02 -0.47337598018E+03  0.50194557361E+03  0.12509000000E+03 0.  0.
         25    1    4    4    0    0 -0.19282805591E+02  0.13619086375E+02 -0.46832387951E+03  0.48531646409E+03  0.12509000000E+03 0.  0.
         25    1    4    4    0    0 -0.90457924935E+02 -0.42802083664E+00 -0.40661011201E+03  0.43492770741E+03  0.12509000000E+03 0.  0.
<mgrwt>
<rscale>  2 0.45242004E+03</rscale>
<asrwt>0</asrwt>
<pdfrwt beam="1">  1       21 0.54323363E-02 0.45242004E+03</pdfrwt>
<pdfrwt beam="2">  1       21 0.20371321E+00 0.45242004E+03</pdfrwt>
<totfact> 0.26269356E+04</totfact>
</mgrwt>
</event>
<event>
 7    0  0.4793433E-002  0.4546063E+03  0.7546771E-02  0.1026357E+00
         21   -1    0    0  502  501  0.00000000000E+00  0.00000000000E+00  0.94914302444E+02  0.94914302444E+02  0.00000000000E+00 0. -1.
         21   -1    0    0  501  502 -0.00000000000E+00 -0.00000000000E+00 -0.54435135693E+03  0.54435135693E+03  0.00000000000E+00 0. -1.
      99926    2    1    2    0    0  0.00000000000E+00  0.00000000000E+00 -0.44943705448E+03  0.63926565937E+03  0.45460633224E+03 0.  0.
      99925    2    3    3    0    0  0.18891518769E+02 -0.38793604315E+02 -0.42952929922E+03  0.50545362689E+03  0.26291846043E+03 0.  0.
         25    1    3    3    0    0 -0.18891518769E+02  0.38793604315E+02 -0.19907755265E+02  0.13381203248E+03  0.12509000000E+03 0.  0.
         25    1    4    4    0    0 -0.57313753576E+01  0.17847226762E+02 -0.21883392992E+03  0.25275911289E+03  0.12509000000E+03 0.  0.
         25    1    4    4    0    0  0.24622894127E+02 -0.56640831077E+02 -0.21069536930E+03  0.25269451400E+03  0.12509000000E+03 0.  0.
<mgrwt>
<rscale>  2 0.45460633E+03</rscale>
<asrwt>0</asrwt>
<pdfrwt beam="1">  1       21 0.13957986E-01 0.45460633E+03</pdfrwt>
<pdfrwt beam="2">  1       21 0.80051668E-01 0.45460633E+03</pdfrwt>
<totfact> 0.56499492E+04</totfact>
</mgrwt>
</event>
<event>
 7    0  0.4793433E-002  0.4579958E+03  0.7546771E-02  0.1025364E+00
         21   -1    0    0  502  501  0.00000000000E+00  0.00000000000E+00  0.28213077871E+03  0.28213077871E+03  0.00000000000E+00 0. -1.
         21   -1    0    0  501  502 -0.00000000000E+00 -0.00000000000E+00 -0.18587134405E+03  0.18587134405E+03  0.00000000000E+00 0. -1.
      99926    2    1    2    0    0  0.35527136788E-14  0.00000000000E+00  0.96259434667E+02  0.46800212276E+03  0.45799575123E+03 0.  0.
      99925    2    3    3    0    0  0.23865775980E+02 -0.11802291631E+02 -0.54872464454E+02  0.27001922354E+03  0.26304091768E+03 0.  0.
         25    1    4    4    0    0  0.14216852089E+02 -0.48749854410E+01  0.13939312148E+02  0.12675841940E+03  0.12509000000E+03 0.  0.
         25    1    3    3    0    0 -0.23865775980E+02  0.11802291631E+02  0.15113189912E+03  0.19798289922E+03  0.12509000000E+03 0.  0.
         25    1    4    4    0    0  0.96489238908E+01 -0.69273061905E+01 -0.68811776602E+02  0.14326080414E+03  0.12509000000E+03 0.  0.
<mgrwt>
<rscale>  2 0.45799575E+03</rscale>
<asrwt>0</asrwt>
<pdfrwt beam="1">  1       21 0.41489821E-01 0.45799575E+03</pdfrwt>
<pdfrwt beam="2">  1       21 0.27334021E-01 0.45799575E+03</pdfrwt>
<totfact> 0.66002231E+04</totfact>
</mgrwt>
</event>
<event>
 7    0  0.4793433E-002  0.4506177E+03  0.7546771E-02  0.1027538E+00
         21   -1    0    0  502  501  0.00000000000E+00  0.00000000000E+00  0.74202458494E+02  0.74202458494E+02  0.00000000000E+00 0. -1.
         21   -1    0    0  501  502 -0.00000000000E+00 -0.00000000000E+00 -0.68412946022E+03  0.68412946022E+03  0.00000000000E+00 0. -1.
      99926    2    1    2    0    0  0.00000000000E+00 -0.35527136788E-14 -0.60992700172E+03  0.75833191871E+03  0.45061774433E+03 0.  0.
      99925    2    3    3    0    0  0.40350526132E+02  0.29827236387E+02 -0.54812776358E+03  0.61006026625E+03  0.26308107925E+03 0.  0.
         25    1    3    3    0    0 -0.40350526132E+02 -0.29827236387E+02 -0.61799238145E+02  0.14827165247E+03  0.12509000000E+03 0.  0.
         25    1    4    4    0    0  0.37624776131E+02 -0.54270391816E+01 -0.34454546412E+03  0.36851616176E+03  0.12509000000E+03 0.  0.
         25    1    4    4    0    0  0.27257500006E+01  0.35254275568E+02 -0.20358229946E+03  0.24154410449E+03  0.12509000000E+03 0.  0.
<mgrwt>
<rscale>  2 0.45061774E+03</rscale>
<asrwt>0</asrwt>
<pdfrwt beam="1">  1       21 0.10912127E-01 0.45061774E+03</pdfrwt>
<pdfrwt beam="2">  1       21 0.10060727E+00 0.45061774E+03</pdfrwt>
<totfact> 0.51598314E+04</totfact>
</mgrwt>
</event>
<event>
 7    0  0.4793433E-002  0.4628307E+03  0.7546771E-02  0.1023963E+00
         21   -1    0    0  502  501  0.00000000000E+00  0.00000000000E+00  0.34759688705E+03  0.34759688705E+03  0.00000000000E+00 0. -1.
         21   -1    0    0  501  502 -0.00000000000E+00 -0.00000000000E+00 -0.15406659418E+03  0.15406659418E+03  0.00000000000E+00 0. -1.
      99926    2    1    2    0    0  0.00000000000E+00  0.00000000000E+00  0.19353029286E+03  0.50166348123E+03  0.46283071867E+03 0.  0.
      99925    2    3    3    0    0 -0.81360872761E+02  0.76546076469E+02  0.16948530772E+03  0.33223927148E+03  0.26301857451E+03 0.  0.
         25    1    3    3    0    0  0.81360872761E+02 -0.76546076469E+02  0.24044985140E+02  0.16942420975E+03  0.12509000000E+03 0.  0.
         25    1    4    4    0    0 -0.81628823005E+02  0.31515808613E+02  0.96006514421E+02  0.18033654607E+03  0.12509000000E+03 0.  0.
         25    1    4    4    0    0  0.26795024405E+00  0.45030267855E+02  0.73478793302E+02  0.15190272541E+03  0.12509000000E+03 0.  0.
<mgrwt>
<rscale>  2 0.46283072E+03</rscale>
<asrwt>0</asrwt>
<pdfrwt beam="1">  1       21 0.51117189E-01 0.46283072E+03</pdfrwt>
<pdfrwt beam="2">  1       21 0.22656852E-01 0.46283072E+03</pdfrwt>
<totfact> 0.61256592E+04</totfact>
</mgrwt>
</event>
<event>
 7    0  0.4793433E-002  0.4112172E+03  0.7546771E-02  0.1039963E+00
         21   -1    0    0  502  501  0.00000000000E+00  0.00000000000E+00  0.50130260977E+03  0.50130260977E+03  0.00000000000E+00 0. -1.
         21   -1    0    0  501  502 -0.00000000000E+00 -0.00000000000E+00 -0.84330087424E+02  0.84330087424E+02  0.00000000000E+00 0. -1.
      99926    2    1    2    0    0  0.13322676296E-14  0.00000000000E+00  0.41697252235E+03  0.58563269719E+03  0.41121718304E+03 0.  0.
      99925    2    3    3    0    0 -0.35212280395E+01  0.79082014012E+01  0.18277826277E+03  0.31998368437E+03  0.26250090709E+03 0.  0.
         25    1    4    4    0    0 -0.29030161851E+02 -0.92996771108E+01  0.60069414549E+02  0.14207419525E+03  0.12509000000E+03 0.  0.
         25    1    4    4    0    0  0.25508933812E+02  0.17207878512E+02  0.12270884822E+03  0.17790948912E+03  0.12509000000E+03 0.  0.
         25    1    3    3    0    0  0.35212280395E+01 -0.79082014012E+01  0.23419425958E+03  0.26564901283E+03  0.12509000000E+03 0.  0.
<mgrwt>
<rscale>  2 0.41121718E+03</rscale>
<asrwt>0</asrwt>
<pdfrwt beam="1">  1       21 0.73720971E-01 0.41121718E+03</pdfrwt>
<pdfrwt beam="2">  1       21 0.12401484E-01 0.41121718E+03</pdfrwt>
<totfact> 0.85544054E+04</totfact>
</mgrwt>
</event>
<event>
 7    0  0.4793433E-002  0.4733290E+03  0.7546771E-02  0.1020985E+00
         21   -1    0    0  502  501  0.00000000000E+00  0.00000000000E+00  0.81248920414E+03  0.81248920414E+03  0.00000000000E+00 0.  1.
         21   -1    0    0  501  502 -0.00000000000E+00 -0.00000000000E+00 -0.68936405785E+02  0.68936405785E+02  0.00000000000E+00 0.  1.
      99926    2    1    2    0    0  0.00000000000E+00  0.00000000000E+00  0.74355279836E+03  0.88142560993E+03  0.47332899963E+03 0.  0.
      99925    2    3    3    0    0  0.70091060371E+02 -0.10042569518E+03  0.54036392093E+03  0.61322548874E+03  0.26278176496E+03 0.  0.
         25    1    3    3    0    0 -0.70091060371E+02  0.10042569518E+03  0.20318887743E+03  0.26820012119E+03  0.12509000000E+03 0.  0.
         25    1    4    4    0    0  0.13701727611E+02 -0.20529670384E+02  0.28953433586E+03  0.31636504934E+03  0.12509000000E+03 0.  0.
         25    1    4    4    0    0  0.56389332760E+02 -0.79896024801E+02  0.25082958508E+03  0.29686043939E+03  0.12509000000E+03 0.  0.
<mgrwt>
<rscale>  2 0.47332900E+03</rscale>
<asrwt>0</asrwt>
<pdfrwt beam="1">  1       21 0.11948370E+00 0.47332900E+03</pdfrwt>
<pdfrwt beam="2">  1       21 0.10137707E-01 0.47332900E+03</pdfrwt>
<totfact> 0.38252557E+04</totfact>
</mgrwt>
</event>
<event>
 7    0  0.4793433E-002  0.4591692E+03  0.7546771E-02  0.1025022E+00
         21   -1    0    0  502  501  0.00000000000E+00  0.00000000000E+00  0.27040024027E+03  0.27040024027E+03  0.00000000000E+00 0. -1.
         21   -1    0    0  501  502 -0.00000000000E+00 -0.00000000000E+00 -0.19492989590E+03  0.19492989590E+03  0.00000000000E+00 0. -1.
      99926    2    1    2    0    0  0.35527136788E-14  0.14210854715E-13  0.75470344371E+02  0.46533013617E+03  0.45916920928E+03 0.  0.
      99925    2    3    3    0    0 -0.23109281807E+02 -0.11441750012E+03  0.56804917822E+02  0.29322171253E+03  0.26291970403E+03 0.  0.
         25    1    3    3    0    0  0.23109281807E+02  0.11441750012E+03  0.18665426550E+02  0.17210842364E+03  0.12509000000E+03 0.  0.
         25    1    4    4    0    0 -0.27055377767E+02 -0.72227948831E+02 -0.57815566029E+01  0.14707074677E+03  0.12509000000E+03 0.  0.
         25    1    4    4    0    0  0.39460959601E+01 -0.42189551293E+02  0.62586474424E+02  0.14615096576E+03  0.12509000000E+03 0.  0.
<mgrwt>
<rscale>  2 0.45916921E+03</rscale>
<asrwt>0</asrwt>
<pdfrwt beam="1">  1       21 0.39764741E-01 0.45916921E+03</pdfrwt>
<pdfrwt beam="2">  1       21 0.28666161E-01 0.45916921E+03</pdfrwt>
<totfact> 0.65584837E+04</totfact>
</mgrwt>
</event>
<event>
 7    0  0.4793433E-002  0.4993286E+03  0.7546771E-02  0.1013954E+00
         21   -1    0    0  502  501  0.00000000000E+00  0.00000000000E+00  0.27343005847E+02  0.27343005847E+02  0.00000000000E+00 0.  1.
         21   -1    0    0  501  502 -0.00000000000E+00 -0.00000000000E+00 -0.22796418098E+04  0.22796418098E+04  0.00000000000E+00 0.  1.
      99926    2    1    2    0    0  0.00000000000E+00  0.00000000000E+00 -0.22522988040E+04  0.23069848157E+04  0.49932858655E+03 0.  0.
      99925    2    3    3    0    0 -0.13492360755E+03 -0.66432364525E+02 -0.14215956595E+04  0.14535606180E+04  0.26322350197E+03 0.  0.
         25    1    3    3    0    0  0.13492360755E+03  0.66432364525E+02 -0.83070314446E+03  0.85342419772E+03  0.12509000000E+03 0.  0.
         25    1    4    4    0    0 -0.11294408913E+03 -0.32436334877E+02 -0.81827993736E+03  0.83608495207E+03  0.12509000000E+03 0.  0.
         25    1    4    4    0    0 -0.21979518414E+02 -0.33996029647E+02 -0.60331572216E+03  0.61747566589E+03  0.12509000000E+03 0.  0.
<mgrwt>
<rscale>  2 0.49932859E+03</rscale>
<asrwt>0</asrwt>
<pdfrwt beam="1">  1       21 0.40210296E-02 0.49932859E+03</pdfrwt>
<pdfrwt beam="2">  1       21 0.33524150E+00 0.49932859E+03</pdfrwt>
<totfact> 0.66955008E+03</totfact>
</mgrwt>
</event>
<event>
 7    0  0.4793433E-002  0.4552293E+03  0.7546771E-02  0.1026174E+00
         21   -1    0    0  502  501  0.00000000000E+00  0.00000000000E+00  0.58718959548E+02  0.58718959548E+02  0.00000000000E+00 0.  1.
         21   -1    0    0  501  502 -0.00000000000E+00 -0.00000000000E+00 -0.88231163284E+03  0.88231163284E+03  0.00000000000E+00 0.  1.
      99926    2    1    2    0    0 -0.71054273576E-14  0.00000000000E+00 -0.82359267329E+03  0.94103059239E+03  0.45522926566E+03 0.  0.
      99925    2    3    3    0    0  0.33169732157E+02  0.58423459209E+02 -0.32938678049E+03  0.42683169673E+03  0.26301352523E+03 0.  0.
         25    1    4    4    0    0  0.25828447280E+02  0.61566774193E+02 -0.13665480967E+03  0.19692542111E+03  0.12509000000E+03 0.  0.
         25    1    4    4    0    0  0.73412848776E+01 -0.31433149842E+01 -0.19273197082E+03  0.22990627562E+03  0.12509000000E+03 0.  0.
         25    1    3    3    0    0 -0.33169732157E+02 -0.58423459209E+02 -0.49420589280E+03  0.51419889566E+03  0.12509000000E+03 0.  0.
<mgrwt>
<rscale>  2 0.45522927E+03</rscale>
<asrwt>0</asrwt>
<pdfrwt beam="1">  1       21 0.86351416E-02 0.45522927E+03</pdfrwt>
<pdfrwt beam="2">  1       21 0.12975170E+00 0.45522927E+03</pdfrwt>
<totfact> 0.41431811E+04</totfact>
</mgrwt>
</event>
<event>
 7    0  0.4793433E-002  0.4514551E+03  0.7546771E-02  0.1027289E+00
         21   -1    0    0  502  501  0.00000000000E+00  0.00000000000E+00  0.16753118067E+04  0.16753118067E+04  0.00000000000E+00 0.  1.
         21   -1    0    0  501  502 -0.00000000000E+00 -0.00000000000E+00 -0.30413998095E+02  0.30413998095E+02  0.00000000000E+00 0.  1.
      99926    2    1    2    0    0  0.00000000000E+00  0.00000000000E+00  0.16448978086E+04  0.17057258048E+04  0.45145511448E+03 0.  0.
      99925    2    3    3    0    0  0.57044882858E+02 -0.20589112899E+02  0.13842943934E+04  0.14103621673E+04  0.26300654963E+03 0.  0.
         25    1    4    4    0    0  0.25503012494E+02 -0.35722912843E+02  0.86336514135E+03  0.87348348899E+03  0.12509000000E+03 0.  0.
         25    1    4    4    0    0  0.31541870364E+02  0.15133799943E+02  0.52092925206E+03  0.53687867832E+03  0.12509000000E+03 0.  0.
         25    1    3    3    0    0 -0.57044882858E+02  0.20589112899E+02  0.26060341516E+03  0.29536363744E+03  0.12509000000E+03 0.  0.
<mgrwt>
<rscale>  2 0.45145511E+03</rscale>
<asrwt>0</asrwt>
<pdfrwt beam="1">  1       21 0.24636932E+00 0.45145511E+03</pdfrwt>
<pdfrwt beam="2">  1       21 0.44726479E-02 0.45145511E+03</pdfrwt>
<totfact> 0.19678950E+04</totfact>
</mgrwt>
</event>
<event>
 7    0  0.4793433E-002  0.4474118E+03  0.7546771E-02  0.1028497E+00
         21   -1    0    0  502  501  0.00000000000E+00  0.00000000000E+00  0.28882945776E+03  0.28882945776E+03  0.00000000000E+00 0.  1.
         21   -1    0    0  501  502 -0.00000000000E+00 -0.00000000000E+00 -0.17326600631E+03  0.17326600631E+03  0.00000000000E+00 0.  1.
      99926    2    1    2    0    0  0.00000000000E+00 -0.71054273576E-14  0.11556345145E+03  0.46209546407E+03  0.44741178639E+03 0.  0.
      99925    2    3    3    0    0  0.56791643875E+02 -0.59010657625E+02  0.14200672912E+03  0.31025902720E+03  0.26341451045E+03 0.  0.
         25    1    4    4    0    0  0.16023232803E+02 -0.59803210346E+02  0.10156495103E+03  0.17261551302E+03  0.12509000000E+03 0.  0.
         25    1    3    3    0    0 -0.56791643875E+02  0.59010657625E+02 -0.26443277668E+02  0.15183643687E+03  0.12509000000E+03 0.  0.
         25    1    4    4    0    0  0.40768411072E+02  0.79255272128E+00  0.40441778089E+02  0.13764351418E+03  0.12509000000E+03 0.  0.
<mgrwt>
<rscale>  2 0.44741179E+03</rscale>
<asrwt>0</asrwt>
<pdfrwt beam="1">  1       21 0.42474920E-01 0.44741179E+03</pdfrwt>
<pdfrwt beam="2">  1       21 0.25480295E-01 0.44741179E+03</pdfrwt>
<totfact> 0.72282100E+04</totfact>
</mgrwt>
</event>
<event>
 7    0  0.4793433E-002  0.4563460E+03  0.7546771E-02  0.1025846E+00
         21   -1    0    0  502  501  0.00000000000E+00  0.00000000000E+00  0.38618498474E+03  0.38618498474E+03  0.00000000000E+00 0. -1.
         21   -1    0    0  501  502 -0.00000000000E+00 -0.00000000000E+00 -0.13481343395E+03  0.13481343395E+03  0.00000000000E+00 0. -1.
      99926    2    1    2    0    0  0.00000000000E+00  0.00000000000E+00  0.25137155079E+03  0.52099841869E+03  0.45634602632E+03 0.  0.
      99925    2    3    3    0    0  0.60248990904E+02  0.91790906353E+02  0.12124462808E+03  0.30972599856E+03  0.26301030960E+03 0.  0.
         25    1    4    4    0    0  0.20481130296E+02  0.54296593121E+02  0.19057071278E+02  0.13920587914E+03  0.12509000000E+03 0.  0.
         25    1    4    4    0    0  0.39767860608E+02  0.37494313232E+02  0.10218755680E+03  0.17052011942E+03  0.12509000000E+03 0.  0.
         25    1    3    3    0    0 -0.60248990904E+02 -0.91790906353E+02  0.13012692271E+03  0.21127242013E+03  0.12509000000E+03 0.  0.
<mgrwt>
<rscale>  2 0.45634603E+03</rscale>
<asrwt>0</asrwt>
<pdfrwt beam="1">  1       21 0.56791909E-01 0.45634603E+03</pdfrwt>
<pdfrwt beam="2">  1       21 0.19825505E-01 0.45634603E+03</pdfrwt>
<totfact> 0.63142293E+04</totfact>
</mgrwt>
</event>
<event>
 7    0  0.4793433E-002  0.4205390E+03  0.7546771E-02  0.1036891E+00
         21   -1    0    0  502  501  0.00000000000E+00  0.00000000000E+00  0.97975678892E+02  0.97975678892E+02  0.00000000000E+00 0.  1.
         21   -1    0    0  501  502 -0.00000000000E+00 -0.00000000000E+00 -0.45126781467E+03  0.45126781467E+03  0.00000000000E+00 0.  1.
      99926    2    1    2    0    0 -0.14210854715E-13 -0.26645352591E-14 -0.35329213578E+03  0.54924349356E+03  0.42053903745E+03 0.  0.
      99925    2    3    3    0    0 -0.68631959820E+02 -0.63225491361E+01 -0.27318367277E+03  0.38549003716E+03  0.26310250692E+03 0.  0.
         25    1    4    4    0    0 -0.44214339874E+02  0.35453326974E+02 -0.12619590135E+03  0.18650672873E+03  0.12509000000E+03 0.  0.
         25    1    3    3    0    0  0.68631959820E+02  0.63225491361E+01 -0.80108463010E+02  0.16375345640E+03  0.12509000000E+03 0.  0.
         25    1    4    4    0    0 -0.24417619947E+02 -0.41775876110E+02 -0.14698777142E+03  0.19898330843E+03  0.12509000000E+03 0.  0.
<mgrwt>
<rscale>  2 0.42053904E+03</rscale>
<asrwt>0</asrwt>
<pdfrwt beam="1">  1       21 0.14408188E-01 0.42053904E+03</pdfrwt>
<pdfrwt beam="2">  1       21 0.66362914E-01 0.42053904E+03</pdfrwt>
<totfact> 0.82118852E+04</totfact>
</mgrwt>
</event>
<event>
 7    0  0.4793433E-002  0.4541565E+03  0.7546771E-02  0.1026490E+00
         21   -1    0    0  502  501  0.00000000000E+00  0.00000000000E+00  0.67659979245E+03  0.67659979245E+03  0.00000000000E+00 0.  1.
         21   -1    0    0  501  502 -0.00000000000E+00 -0.00000000000E+00 -0.76211287282E+02  0.76211287282E+02  0.00000000000E+00 0.  1.
      99926    2    1    2    0    0  0.44408920985E-15  0.00000000000E+00  0.60038850517E+03  0.75281107973E+03  0.45415654199E+03 0.  0.
      99925    2    3    3    0    0  0.29090639792E+01  0.15178412552E+02  0.19370468797E+03  0.32704344107E+03  0.26305333935E+03 0.  0.
         25    1    4    4    0    0 -0.45333066171E+01 -0.13543340839E+02  0.53438631188E+02  0.13677415090E+03  0.12509000000E+03 0.  0.
         25    1    3    3    0    0 -0.29090639792E+01 -0.15178412552E+02  0.40668381720E+03  0.42576763867E+03  0.12509000000E+03 0.  0.
         25    1    4    4    0    0  0.74423705962E+01  0.28721753391E+02  0.14026605678E+03  0.19026929017E+03  0.12509000000E+03 0.  0.
<mgrwt>
<rscale>  2 0.45415654E+03</rscale>
<asrwt>0</asrwt>
<pdfrwt beam="1">  1       21 0.99499966E-01 0.45415654E+03</pdfrwt>
<pdfrwt beam="2">  1       21 0.11207543E-01 0.45415654E+03</pdfrwt>
<totfact> 0.50461355E+04</totfact>
</mgrwt>
</event>
<event>
 7    0  0.4793433E-002  0.4542337E+03  0.7546771E-02  0.1026467E+00
         21   -1    0    0  502  501  0.00000000000E+00  0.00000000000E+00  0.46345688629E+02  0.46345688629E+02  0.00000000000E+00 0. -1.
         21   -1    0    0  501  502 -0.00000000000E+00 -0.00000000000E+00 -0.11129852398E+04  0.11129852398E+04  0.00000000000E+00 0. -1.
      99926    2    1    2    0    0  0.00000000000E+00  0.00000000000E+00 -0.10666395511E+04  0.11593309284E+04  0.45423371680E+03 0.  0.
      99925    2    3    3    0    0  0.85362051594E+02  0.42664938733E+02 -0.82291429040E+03  0.86923355221E+03  0.26319586259E+03 0.  0.
         25    1    4    4    0    0  0.19308765944E+02  0.50925491543E+02 -0.35415286698E+03  0.37952337928E+03  0.12509000000E+03 0.  0.
         25    1    4    4    0    0  0.66053285649E+02 -0.82605528107E+01 -0.46876142342E+03  0.48971017292E+03  0.12509000000E+03 0.  0.
         25    1    3    3    0    0 -0.85362051594E+02 -0.42664938733E+02 -0.24372526072E+03  0.29009737617E+03  0.12509000000E+03 0.  0.
<mgrwt>
<rscale>  2 0.45423372E+03</rscale>
<asrwt>0</asrwt>
<pdfrwt beam="1">  1       21 0.68155415E-02 0.45423372E+03</pdfrwt>
<pdfrwt beam="2">  1       21 0.16367432E+00 0.45423372E+03</pdfrwt>
<totfact> 0.33672977E+04</totfact>
</mgrwt>
</event>
<event>
 7    0  0.4793433E-002  0.4538745E+03  0.7546771E-02  0.1026573E+00
         21   -1    0    0  502  501  0.00000000000E+00  0.00000000000E+00  0.47418909981E+03  0.47418909981E+03  0.00000000000E+00 0. -1.
         21   -1    0    0  501  502 -0.00000000000E+00 -0.00000000000E+00 -0.10860752638E+03  0.10860752638E+03  0.00000000000E+00 0. -1.
      99926    2    1    2    0    0  0.00000000000E+00 -0.71054273576E-14  0.36558157343E+03  0.58279662619E+03  0.45387445474E+03 0.  0.
      99925    2    3    3    0    0 -0.66870123412E+02 -0.55497547984E+02  0.13991033740E+03  0.31053460880E+03  0.26325890206E+03 0.  0.
         25    1    4    4    0    0 -0.42718918559E+02 -0.25500071775E+01  0.10334486982E+03  0.16780667078E+03  0.12509000000E+03 0.  0.
         25    1    4    4    0    0 -0.24151204852E+02 -0.52947540807E+02  0.36565467575E+02  0.14272793802E+03  0.12509000000E+03 0.  0.
         25    1    3    3    0    0  0.66870123412E+02  0.55497547984E+02  0.22567123604E+03  0.27226201739E+03  0.12509000000E+03 0.  0.
<mgrwt>
<rscale>  2 0.45387445E+03</rscale>
<asrwt>0</asrwt>
<pdfrwt beam="1">  1       21 0.69733690E-01 0.45387445E+03</pdfrwt>
<pdfrwt beam="2">  1       21 0.15971695E-01 0.45387445E+03</pdfrwt>
<totfact> 0.60284467E+04</totfact>
</mgrwt>
</event>
<event>
 7    0  0.4793433E-002  0.4584328E+03  0.7546771E-02  0.1025237E+00
         21   -1    0    0  502  501  0.00000000000E+00  0.00000000000E+00  0.18575167950E+03  0.18575167950E+03  0.00000000000E+00 0. -1.
         21   -1    0    0  501  502 -0.00000000000E+00 -0.00000000000E+00 -0.28285155523E+03  0.28285155523E+03  0.00000000000E+00 0. -1.
      99926    2    1    2    0    0  0.00000000000E+00  0.00000000000E+00 -0.97099875737E+02  0.46860323473E+03  0.45843277122E+03 0.  0.
      99925    2    3    3    0    0  0.77768180761E+02 -0.40749879147E+02 -0.13875467648E+03  0.31020161506E+03  0.26318005082E+03 0.  0.
         25    1    4    4    0    0  0.37081708376E+02 -0.20205927010E+02 -0.23483304313E+02  0.13409812178E+03  0.12509000000E+03 0.  0.
         25    1    3    3    0    0 -0.77768180761E+02  0.40749879147E+02  0.41654800743E+02  0.15840161967E+03  0.12509000000E+03 0.  0.
         25    1    4    4    0    0  0.40686472385E+02 -0.20543952136E+02 -0.11527137217E+03  0.17610349328E+03  0.12509000000E+03 0.  0.
<mgrwt>
<rscale>  2 0.45843277E+03</rscale>
<asrwt>0</asrwt>
<pdfrwt beam="1">  1       21 0.27316424E-01 0.45843277E+03</pdfrwt>
<pdfrwt beam="2">  1       21 0.41595816E-01 0.45843277E+03</pdfrwt>
<totfact> 0.65731643E+04</totfact>
</mgrwt>
</event>
<event>
 7    0  0.4793433E-002  0.4638957E+03  0.7546771E-02  0.1023657E+00
         21   -1    0    0  502  501  0.00000000000E+00  0.00000000000E+00  0.85818729548E+03  0.85818729548E+03  0.00000000000E+00 0.  1.
         21   -1    0    0  501  502 -0.00000000000E+00 -0.00000000000E+00 -0.62690040160E+02  0.62690040160E+02  0.00000000000E+00 0.  1.
      99926    2    1    2    0    0 -0.71054273576E-14  0.14210854715E-13  0.79549725532E+03  0.92087733564E+03  0.46389566076E+03 0.  0.
      99925    2    3    3    0    0  0.58270546581E+02 -0.10636411507E+03  0.49546000541E+03  0.57392108334E+03  0.26305134741E+03 0.  0.
         25    1    4    4    0    0  0.51618491957E+02 -0.20382307646E+02  0.21255922598E+03  0.25280197750E+03  0.12509000000E+03 0.  0.
         25    1    3    3    0    0 -0.58270546581E+02  0.10636411507E+03  0.30003724992E+03  0.34695625230E+03  0.12509000000E+03 0.  0.
         25    1    4    4    0    0  0.66520546239E+01 -0.85981807426E+02  0.28290077943E+03  0.32111910585E+03  0.12509000000E+03 0.  0.
<mgrwt>
<rscale>  2 0.46389566E+03</rscale>
<asrwt>0</asrwt>
<pdfrwt beam="1">  1       21 0.12620401E+00 0.46389566E+03</pdfrwt>
<pdfrwt beam="2">  1       21 0.92191241E-02 0.46389566E+03</pdfrwt>
<totfact> 0.39519085E+04</totfact>
</mgrwt>
</event>
<event>
 7    0  0.4793433E-002  0.4379060E+03  0.7546771E-02  0.1031391E+00
         21   -1    0    0  502  501  0.00000000000E+00  0.00000000000E+00  0.63456536933E+03  0.63456536933E+03  0.00000000000E+00 0.  1.
         21   -1    0    0  501  502 -0.00000000000E+00 -0.00000000000E+00 -0.75548442384E+02  0.75548442384E+02  0.00000000000E+00 0.  1.
      99926    2    1    2    0    0 -0.44408920985E-15  0.00000000000E+00  0.55901692694E+03  0.71011381171E+03  0.43790604126E+03 0.  0.
      99925    2    3    3    0    0  0.37887254797E+01 -0.31415292149E+02  0.50477015313E+03  0.57014418790E+03  0.26319234882E+03 0.  0.
         25    1    4    4    0    0  0.22855088827E+02 -0.29815772294E+02  0.32535073943E+03  0.35058800195E+03  0.12509000000E+03 0.  0.
         25    1    4    4    0    0 -0.19066363347E+02 -0.15995198550E+01  0.17941941370E+03  0.21955618595E+03  0.12509000000E+03 0.  0.
         25    1    3    3    0    0 -0.37887254797E+01  0.31415292149E+02  0.54246773810E+02  0.13996962381E+03  0.12509000000E+03 0.  0.
<mgrwt>
<rscale>  2 0.43790604E+03</rscale>
<asrwt>0</asrwt>
<pdfrwt beam="1">  1       21 0.93318434E-01 0.43790604E+03</pdfrwt>
<pdfrwt beam="2">  1       21 0.11110065E-01 0.43790604E+03</pdfrwt>
<totfact> 0.60032607E+04</totfact>
</mgrwt>
</event>
<event>
 7    0  0.4793433E-002  0.4507595E+03  0.7546771E-02  0.1027496E+00
         21   -1    0    0  502  501  0.00000000000E+00  0.00000000000E+00  0.84123529337E+03  0.84123529337E+03  0.00000000000E+00 0. -1.
         21   -1    0    0  501  502 -0.00000000000E+00 -0.00000000000E+00 -0.60382659020E+02  0.60382659020E+02  0.00000000000E+00 0. -1.
      99926    2    1    2    0    0  0.71054273576E-14 -0.14210854715E-13  0.78085263435E+03  0.90161795239E+03  0.45075946524E+03 0.  0.
      99925    2    3    3    0    0 -0.35128800625E+02  0.94722518144E+02  0.41570070637E+03  0.50263195428E+03  0.26386628454E+03 0.  0.
         25    1    4    4    0    0  0.12748069741E+02  0.62399197851E+02  0.16558923519E+03  0.21707942345E+03  0.12509000000E+03 0.  0.
         25    1    3    3    0    0  0.35128800625E+02 -0.94722518144E+02  0.36515192799E+03  0.39898599811E+03  0.12509000000E+03 0.  0.
         25    1    4    4    0    0 -0.47876870366E+02  0.32323320293E+02  0.25011147117E+03  0.28555253083E+03  0.12509000000E+03 0.  0.
<mgrwt>
<rscale>  2 0.45075947E+03</rscale>
<asrwt>0</asrwt>
<pdfrwt beam="1">  1       21 0.12371107E+00 0.45075947E+03</pdfrwt>
<pdfrwt beam="2">  1       21 0.88798033E-02 0.45075947E+03</pdfrwt>
<totfact> 0.44626977E+04</totfact>
</mgrwt>
</event>
<event>
 7    0  0.4793433E-002  0.4734515E+03  0.7546771E-02  0.1020951E+00
         21   -1    0    0  502  501  0.00000000000E+00  0.00000000000E+00  0.56963538758E+02  0.56963538758E+02  0.00000000000E+00 0.  1.
         21   -1    0    0  501  502 -0.00000000000E+00 -0.00000000000E+00 -0.98377088193E+03  0.98377088193E+03  0.00000000000E+00 0.  1.
      99926    2    1    2    0    0 -0.71054273576E-14 -0.14210854715E-13 -0.92680734317E+03  0.10407344207E+04  0.47345145796E+03 0.  0.
      99925    2    3    3    0    0  0.50640165449E+02  0.96967343475E+02 -0.72740185821E+03  0.78116333680E+03  0.26293650065E+03 0.  0.
         25    1    4    4    0    0  0.27268452291E+02  0.41522450468E+02 -0.24921632930E+03  0.28323836123E+03  0.12509000000E+03 0.  0.
         25    1    3    3    0    0 -0.50640165449E+02 -0.96967343475E+02 -0.19940548496E+03  0.25957108389E+03  0.12509000000E+03 0.  0.
         25    1    4    4    0    0  0.23371713158E+02  0.55444893007E+02 -0.47818552891E+03  0.49792497557E+03  0.12509000000E+03 0.  0.
<mgrwt>
<rscale>  2 0.47345146E+03</rscale>
<asrwt>0</asrwt>
<pdfrwt beam="1">  1       21 0.83769914E-02 0.47345146E+03</pdfrwt>
<pdfrwt beam="2">  1       21 0.14467218E+00 0.47345146E+03</pdfrwt>
<totfact> 0.32655827E+04</totfact>
</mgrwt>
</event>
<event>
 7    0  0.4793433E-002  0.4554176E+03  0.7546771E-02  0.1026119E+00
         21   -1    0    0  502  501  0.00000000000E+00  0.00000000000E+00  0.14243326492E+03  0.14243326492E+03  0.00000000000E+00 0. -1.
         21   -1    0    0  501  502 -0.00000000000E+00 -0.00000000000E+00 -0.36403921924E+03  0.36403921924E+03  0.00000000000E+00 0. -1.
      99926    2    1    2    0    0  0.00000000000E+00  0.00000000000E+00 -0.22160595431E+03  0.50647248416E+03  0.45541758665E+03 0.  0.
      99925    2    3    3    0    0 -0.10415312588E+03 -0.42751539295E+02 -0.15610114323E+03  0.32587913955E+03  0.26297163143E+03 0.  0.
         25    1    3    3    0    0  0.10415312588E+03  0.42751539295E+02 -0.65504811083E+02  0.18059334461E+03  0.12509000000E+03 0.  0.
         25    1    4    4    0    0 -0.71479949214E+02  0.12297140933E+02 -0.65933756546E+02  0.15891938575E+03  0.12509000000E+03 0.  0.
         25    1    4    4    0    0 -0.32673176666E+02 -0.55048680228E+02 -0.90167386683E+02  0.16695975380E+03  0.12509000000E+03 0.  0.
<mgrwt>
<rscale>  2 0.45541759E+03</rscale>
<asrwt>0</asrwt>
<pdfrwt beam="1">  1       21 0.20946069E-01 0.45541759E+03</pdfrwt>
<pdfrwt beam="2">  1       21 0.53535178E-01 0.45541759E+03</pdfrwt>
<totfact> 0.64603911E+04</totfact>
</mgrwt>
</event>
<event>
 7    0  0.4793433E-002  0.4509533E+03  0.7546771E-02  0.1027438E+00
         21   -1    0    0  502  501  0.00000000000E+00  0.00000000000E+00  0.43757750263E+03  0.43757750263E+03  0.00000000000E+00 0.  1.
         21   -1    0    0  501  502 -0.00000000000E+00 -0.00000000000E+00 -0.11618447451E+03  0.11618447451E+03  0.00000000000E+00 0.  1.
      99926    2    1    2    0    0  0.00000000000E+00  0.00000000000E+00  0.32139302812E+03  0.55376197715E+03  0.45095326677E+03 0.  0.
      99925    2    3    3    0    0 -0.44164672368E+02 -0.99508092721E+02  0.19046236987E+03  0.34247372813E+03  0.26298281564E+03 0.  0.
         25    1    4    4    0    0  0.47933157326E+01 -0.80748699635E+02  0.97301554269E+02  0.17792815666E+03  0.12509000000E+03 0.  0.
         25    1    4    4    0    0 -0.48957988101E+02 -0.18759393086E+02  0.93160815605E+02  0.16454557147E+03  0.12509000000E+03 0.  0.
         25    1    3    3    0    0  0.44164672368E+02  0.99508092721E+02  0.13093065825E+03  0.21128824901E+03  0.12509000000E+03 0.  0.
<mgrwt>
<rscale>  2 0.45095327E+03</rscale>
<asrwt>0</asrwt>
<pdfrwt beam="1">  1       21 0.64349632E-01 0.45095327E+03</pdfrwt>
<pdfrwt beam="2">  1       21 0.17085952E-01 0.45095327E+03</pdfrwt>
<totfact> 0.63631361E+04</totfact>
</mgrwt>
</event>
<event>
 7    0  0.4793433E-002  0.4555788E+03  0.7546771E-02  0.1026071E+00
         21   -1    0    0  502  501  0.00000000000E+00  0.00000000000E+00  0.56076748612E+03  0.56076748612E+03  0.00000000000E+00 0. -1.
         21   -1    0    0  501  502 -0.00000000000E+00 -0.00000000000E+00 -0.92530346118E+02  0.92530346118E+02  0.00000000000E+00 0. -1.
      99926    2    1    2    0    0  0.00000000000E+00 -0.35527136788E-14  0.46823714001E+03  0.65329783224E+03  0.45557879487E+03 0.  0.
      99925    2    3    3    0    0  0.10642398510E+03 -0.27677730160E+02  0.33610357347E+03  0.44069748216E+03  0.26297630564E+03 0.  0.
         25    1    4    4    0    0  0.32197378919E+02 -0.24284191401E+02  0.21214242954E+03  0.24955622948E+03  0.12509000000E+03 0.  0.
         25    1    4    4    0    0  0.74226606179E+02 -0.33935387590E+01  0.12396114393E+03  0.19114125268E+03  0.12509000000E+03 0.  0.
         25    1    3    3    0    0 -0.10642398510E+03  0.27677730160E+02  0.13213356653E+03  0.21260035008E+03  0.12509000000E+03 0.  0.
<mgrwt>
<rscale>  2 0.45557879E+03</rscale>
<asrwt>0</asrwt>
<pdfrwt beam="1">  1       21 0.82465805E-01 0.45557879E+03</pdfrwt>
<pdfrwt beam="2">  1       21 0.13607404E-01 0.45557879E+03</pdfrwt>
<totfact> 0.55259180E+04</totfact>
</mgrwt>
</event>
<event>
 7    0  0.4793433E-002  0.4561903E+03  0.7546771E-02  0.1025892E+00
         21   -1    0    0  502  501  0.00000000000E+00  0.00000000000E+00  0.16039720559E+04  0.16039720559E+04  0.00000000000E+00 0. -1.
         21   -1    0    0  501  502 -0.00000000000E+00 -0.00000000000E+00 -0.32436598820E+02  0.32436598820E+02  0.00000000000E+00 0. -1.
      99926    2    1    2    0    0 -0.31086244690E-14  0.00000000000E+00  0.15715354571E+04  0.16364086547E+04  0.45619030282E+03 0.  0.
      99925    2    3    3    0    0 -0.39559205062E+01 -0.22506352115E+02  0.58583606619E+03  0.64254096610E+03  0.26293119151E+03 0.  0.
         25    1    3    3    0    0  0.39559205062E+01  0.22506352115E+02  0.98569939086E+03  0.99386768860E+03  0.12509000000E+03 0.  0.
         25    1    4    4    0    0 -0.35508145617E+02 -0.12462021788E+02  0.23926419422E+03  0.27260042760E+03  0.12509000000E+03 0.  0.
         25    1    4    4    0    0  0.31552225111E+02 -0.10044330327E+02  0.34657187197E+03  0.36994053850E+03  0.12509000000E+03 0.  0.
<mgrwt>
<rscale>  2 0.45619030E+03</rscale>
<asrwt>0</asrwt>
<pdfrwt beam="1">  1       21 0.23587819E+00 0.45619030E+03</pdfrwt>
<pdfrwt beam="2">  1       21 0.47700891E-02 0.45619030E+03</pdfrwt>
<totfact> 0.20429928E+04</totfact>
</mgrwt>
</event>
<event>
 7    0  0.4793433E-002  0.4600333E+03  0.7546771E-02  0.1024772E+00
         21   -1    0    0  502  501  0.00000000000E+00  0.00000000000E+00  0.31577051832E+03  0.31577051832E+03  0.00000000000E+00 0.  1.
         21   -1    0    0  501  502 -0.00000000000E+00 -0.00000000000E+00 -0.16755095413E+03  0.16755095413E+03  0.00000000000E+00 0.  1.
      99926    2    1    2    0    0 -0.35527136788E-14  0.00000000000E+00  0.14821956419E+03  0.48332147245E+03  0.46003326676E+03 0.  0.
      99925    2    3    3    0    0 -0.19580249288E+02  0.48862216740E+02 -0.17896438297E+02  0.26881520968E+03  0.26300272254E+03 0.  0.
         25    1    4    4    0    0  0.14805387801E+02  0.58154752766E+01 -0.35504356012E+02  0.13100033075E+03  0.12509000000E+03 0.  0.
         25    1    3    3    0    0  0.19580249288E+02 -0.48862216740E+02  0.16611600248E+03  0.21450626277E+03  0.12509000000E+03 0.  0.
         25    1    4    4    0    0 -0.34385637089E+02  0.43046741463E+02  0.17607917716E+02  0.13781487893E+03  0.12509000000E+03 0.  0.
<mgrwt>
<rscale>  2 0.46003327E+03</rscale>
<asrwt>0</asrwt>
<pdfrwt beam="1">  1       21 0.46436841E-01 0.46003327E+03</pdfrwt>
<pdfrwt beam="2">  1       21 0.24639846E-01 0.46003327E+03</pdfrwt>
<totfact> 0.63869034E+04</totfact>
</mgrwt>
</event>
<event>
 7    0  0.4793433E-002  0.4558483E+03  0.7546771E-02  0.1025992E+00
         21   -1    0    0  502  501  0.00000000000E+00  0.00000000000E+00  0.28098930912E+03  0.28098930912E+03  0.00000000000E+00 0.  1.
         21   -1    0    0  501  502 -0.00000000000E+00 -0.00000000000E+00 -0.18488044806E+03  0.18488044806E+03  0.00000000000E+00 0.  1.
      99926    2    1    2    0    0  0.00000000000E+00  0.00000000000E+00  0.96108861056E+02  0.46586975718E+03  0.45584834921E+03 0.  0.
      99925    2    3    3    0    0 -0.68848883594E+02 -0.40566533575E+02  0.14349767720E+03  0.31005249108E+03  0.26297367063E+03 0.  0.
         25    1    4    4    0    0 -0.46256546012E+02 -0.59185826470E+02  0.85295089814E+02  0.16901298929E+03  0.12509000000E+03 0.  0.
         25    1    3    3    0    0  0.68848883594E+02  0.40566533575E+02 -0.47388816148E+02  0.15581726610E+03  0.12509000000E+03 0.  0.
         25    1    4    4    0    0 -0.22592337582E+02  0.18619292895E+02  0.58202587390E+02  0.14103950179E+03  0.12509000000E+03 0.  0.
<mgrwt>
<rscale>  2 0.45584835E+03</rscale>
<asrwt>0</asrwt>
<pdfrwt beam="1">  1       21 0.41321957E-01 0.45584835E+03</pdfrwt>
<pdfrwt beam="2">  1       21 0.27188301E-01 0.45584835E+03</pdfrwt>
<totfact> 0.67290869E+04</totfact>
</mgrwt>
</event>
<event>
 7    0  0.4793433E-002  0.4505876E+03  0.7546771E-02  0.1027547E+00
         21   -1    0    0  502  501  0.00000000000E+00  0.00000000000E+00  0.85272674074E+03  0.85272674074E+03  0.00000000000E+00 0. -1.
         21   -1    0    0  501  502 -0.00000000000E+00 -0.00000000000E+00 -0.59523507126E+02  0.59523507126E+02  0.00000000000E+00 0. -1.
      99926    2    1    2    0    0  0.00000000000E+00  0.00000000000E+00  0.79320323362E+03  0.91225024787E+03  0.45058755522E+03 0.  0.
      99925    2    3    3    0    0  0.74012295851E+02 -0.19843533360E+02  0.34405929034E+03  0.43975752238E+03  0.26294162369E+03 0.  0.
         25    1    4    4    0    0 -0.27883819547E+01 -0.20524334664E+02  0.14923366352E+03  0.19582445663E+03  0.12509000000E+03 0.  0.
         25    1    3    3    0    0 -0.74012295851E+02  0.19843533360E+02  0.44914394328E+03  0.47249272549E+03  0.12509000000E+03 0.  0.
         25    1    4    4    0    0  0.76800677806E+02  0.68080130463E+00  0.19482562682E+03  0.24393306575E+03  0.12509000000E+03 0.  0.
<mgrwt>
<rscale>  2 0.45058756E+03</rscale>
<asrwt>0</asrwt>
<pdfrwt beam="1">  1       21 0.12540098E+00 0.45058756E+03</pdfrwt>
<pdfrwt beam="2">  1       21 0.87534575E-02 0.45058756E+03</pdfrwt>
<totfact> 0.44215159E+04</totfact>
</mgrwt>
</event>
<event>
 7    0  0.4793433E-002  0.4326872E+03  0.7546771E-02  0.1033014E+00
         21   -1    0    0  502  501  0.00000000000E+00  0.00000000000E+00  0.14147138199E+03  0.14147138199E+03  0.00000000000E+00 0. -1.
         21   -1    0    0  501  502 -0.00000000000E+00 -0.00000000000E+00 -0.33084107719E+03  0.33084107719E+03  0.00000000000E+00 0. -1.
      99926    2    1    2    0    0  0.00000000000E+00  0.00000000000E+00 -0.18936969520E+03  0.47231245918E+03  0.43268715908E+03 0.  0.
      99925    2    3    3    0    0  0.84470338912E+02 -0.27310911581E+02 -0.13831273290E+03  0.31064785097E+03  0.26361060522E+03 0.  0.
         25    1    4    4    0    0  0.30410406207E+02 -0.30128528367E+02 -0.27632758749E+02  0.13506886571E+03  0.12509000000E+03 0.  0.
         25    1    4    4    0    0  0.54059932705E+02  0.28176167863E+01 -0.11067997415E+03  0.17557898526E+03  0.12509000000E+03 0.  0.
         25    1    3    3    0    0 -0.84470338912E+02  0.27310911581E+02 -0.51056962298E+02  0.16166460821E+03  0.12509000000E+03 0.  0.
<mgrwt>
<rscale>  2 0.43268716E+03</rscale>
<asrwt>0</asrwt>
<pdfrwt beam="1">  1       21 0.20804615E-01 0.43268716E+03</pdfrwt>
<pdfrwt beam="2">  1       21 0.48653099E-01 0.43268716E+03</pdfrwt>
<totfact> 0.80625801E+04</totfact>
</mgrwt>
</event>
<event>
 7    0  0.4793433E-002  0.3989631E+03  0.7546771E-02  0.1044139E+00
         21   -1    0    0  502  501  0.00000000000E+00  0.00000000000E+00  0.79648914094E+02  0.79648914094E+02  0.00000000000E+00 0.  1.
         21   -1    0    0  501  502 -0.00000000000E+00 -0.00000000000E+00 -0.49960377538E+03  0.49960377538E+03  0.00000000000E+00 0.  1.
      99926    2    1    2    0    0  0.00000000000E+00  0.35527136788E-14 -0.41995486129E+03  0.57925268948E+03  0.39896314710E+03 0.  0.
      99925    2    3    3    0    0 -0.29651917329E+02 -0.27076694953E+02 -0.30485262392E+03  0.40458610206E+03  0.26294944013E+03 0.  0.
         25    1    3    3    0    0  0.29651917329E+02  0.27076694953E+02 -0.11510223737E+03  0.17466658742E+03  0.12509000000E+03 0.  0.
         25    1    4    4    0    0  0.65586971325E+01  0.20066117002E+02 -0.13173245554E+03  0.18288415323E+03  0.12509000000E+03 0.  0.
         25    1    4    4    0    0 -0.36210614462E+02 -0.47142811955E+02 -0.17312016837E+03  0.22170194883E+03  0.12509000000E+03 0.  0.
<mgrwt>
<rscale>  2 0.39896315E+03</rscale>
<asrwt>0</asrwt>
<pdfrwt beam="1">  1       21 0.11713076E-01 0.39896315E+03</pdfrwt>
<pdfrwt beam="2">  1       21 0.73471143E-01 0.39896315E+03</pdfrwt>
<totfact> 0.95895208E+04</totfact>
</mgrwt>
</event>
<event>
 7    0  0.4793433E-002  0.4550232E+03  0.7546771E-02  0.1026235E+00
         21   -1    0    0  502  501  0.00000000000E+00  0.00000000000E+00  0.14083390367E+04  0.14083390367E+04  0.00000000000E+00 0.  1.
         21   -1    0    0  501  502 -0.00000000000E+00 -0.00000000000E+00 -0.36753597752E+02  0.36753597752E+02  0.00000000000E+00 0.  1.
      99926    2    1    2    0    0 -0.14210854715E-13 -0.71054273576E-14  0.13715854390E+04  0.14450926345E+04  0.45502319261E+03 0.  0.
      99925    2    3    3    0    0 -0.10683728454E+03 -0.32680533549E+02  0.80610528361E+03  0.85526423837E+03  0.26303795645E+03 0.  0.
         25    1    3    3    0    0  0.10683728454E+03  0.32680533549E+02  0.56548015537E+03  0.58982839611E+03  0.12509000000E+03 0.  0.
         25    1    4    4    0    0 -0.44499976346E+02 -0.36194566097E+02  0.29737402173E+03  0.32767226219E+03  0.12509000000E+03 0.  0.
         25    1    4    4    0    0 -0.62337308191E+02  0.35140325482E+01  0.50873126188E+03  0.52759197618E+03  0.12509000000E+03 0.  0.
<mgrwt>
<rscale>  2 0.45502319E+03</rscale>
<asrwt>0</asrwt>
<pdfrwt beam="1">  1       21 0.20710865E+00 0.45502319E+03</pdfrwt>
<pdfrwt beam="2">  1       21 0.54049418E-02 0.45502319E+03</pdfrwt>
<totfact> 0.25150222E+04</totfact>
</mgrwt>
</event>
<event>
 7    0  0.4793433E-002  0.4553428E+03  0.7546771E-02  0.1026141E+00
         21   -1    0    0  502  501  0.00000000000E+00  0.00000000000E+00  0.12486671725E+04  0.12486671725E+04  0.00000000000E+00 0. -1.
         21   -1    0    0  501  502 -0.00000000000E+00 -0.00000000000E+00 -0.41511666874E+02  0.41511666874E+02  0.00000000000E+00 0. -1.
      99926    2    1    2    0    0  0.00000000000E+00  0.00000000000E+00  0.12071555056E+04  0.12901788393E+04  0.45534275310E+03 0.  0.
      99925    2    3    3    0    0 -0.83156847031E+02 -0.42114703163E+02  0.94270862168E+03  0.98314729056E+03  0.26304056747E+03 0.  0.
         25    1    4    4    0    0 -0.34824941078E+02 -0.10645797343E+02  0.32240015318E+03  0.34772902725E+03  0.12509000000E+03 0.  0.
         25    1    3    3    0    0  0.83156847031E+02  0.42114703163E+02  0.26444688392E+03  0.30703154878E+03  0.12509000000E+03 0.  0.
         25    1    4    4    0    0 -0.48331905953E+02 -0.31468905819E+02  0.62030846849E+03  0.63541826331E+03  0.12509000000E+03 0.  0.
<mgrwt>
<rscale>  2 0.45534275E+03</rscale>
<asrwt>0</asrwt>
<pdfrwt beam="1">  1       21 0.18362750E+00 0.45534275E+03</pdfrwt>
<pdfrwt beam="2">  1       21 0.61046577E-02 0.45534275E+03</pdfrwt>
<totfact> 0.29323057E+04</totfact>
</mgrwt>
</event>
<event>
 7    0  0.4793433E-002  0.4504907E+03  0.7546771E-02  0.1027576E+00
         21   -1    0    0  502  501  0.00000000000E+00  0.00000000000E+00  0.12592217146E+03  0.12592217146E+03  0.00000000000E+00 0.  1.
         21   -1    0    0  501  502 -0.00000000000E+00 -0.00000000000E+00 -0.40291138553E+03  0.40291138553E+03  0.00000000000E+00 0.  1.
      99926    2    1    2    0    0 -0.71054273576E-14  0.00000000000E+00 -0.27698921407E+03  0.52883355699E+03  0.45049073941E+03 0.  0.
      99925    2    3    3    0    0 -0.38539616634E+02  0.90410760367E+02 -0.12053316869E+03  0.30570711330E+03  0.26319040015E+03 0.  0.
         25    1    3    3    0    0  0.38539616634E+02 -0.90410760367E+02 -0.15645604537E+03  0.22312644369E+03  0.12509000000E+03 0.  0.
         25    1    4    4    0    0 -0.28745293803E+02  0.79243002055E+02 -0.91539264057E+02  0.17644458126E+03  0.12509000000E+03 0.  0.
         25    1    4    4    0    0 -0.97943228309E+01  0.11167758312E+02 -0.28993904637E+02  0.12926253205E+03  0.12509000000E+03 0.  0.
<mgrwt>
<rscale>  2 0.45049074E+03</rscale>
<asrwt>0</asrwt>
<pdfrwt beam="1">  1       21 0.18517966E-01 0.45049074E+03</pdfrwt>
<pdfrwt beam="2">  1       21 0.59251675E-01 0.45049074E+03</pdfrwt>
<totfact> 0.65597636E+04</totfact>
</mgrwt>
</event>
<event>
 7    0  0.4793433E-002  0.4564070E+03  0.7546771E-02  0.1025828E+00
         21   -1    0    0  502  501  0.00000000000E+00  0.00000000000E+00  0.11278829136E+03  0.11278829136E+03  0.00000000000E+00 0.  1.
         21   -1    0    0  501  502 -0.00000000000E+00 -0.00000000000E+00 -0.46172204930E+03  0.46172204930E+03  0.00000000000E+00 0.  1.
      99926    2    1    2    0    0 -0.71054273576E-14 -0.14210854715E-13 -0.34893375795E+03  0.57451034066E+03  0.45640701582E+03 0.  0.
      99925    2    3    3    0    0 -0.55079244579E+02 -0.99621414844E+02 -0.23454621144E+03  0.37032863635E+03  0.26300803052E+03 0.  0.
         25    1    3    3    0    0  0.55079244579E+02  0.99621414844E+02 -0.11438754651E+03  0.20418170431E+03  0.12509000000E+03 0.  0.
         25    1    4    4    0    0 -0.17428091087E+02 -0.21958788446E+02 -0.14658909507E+03  0.19473519877E+03  0.12509000000E+03 0.  0.
         25    1    4    4    0    0 -0.37651153492E+02 -0.77662626398E+02 -0.87957116370E+02  0.17559343757E+03  0.12509000000E+03 0.  0.
<mgrwt>
<rscale>  2 0.45640702E+03</rscale>
<asrwt>0</asrwt>
<pdfrwt beam="1">  1       21 0.16586513E-01 0.45640702E+03</pdfrwt>
<pdfrwt beam="2">  1       21 0.67900302E-01 0.45640702E+03</pdfrwt>
<totfact> 0.59609374E+04</totfact>
</mgrwt>
</event>
<event>
 7    0  0.4793433E-002  0.4549327E+03  0.7546771E-02  0.1026261E+00
         21   -1    0    0  502  501  0.00000000000E+00  0.00000000000E+00  0.51118111418E+03  0.51118111418E+03  0.00000000000E+00 0.  1.
         21   -1    0    0  501  502 -0.00000000000E+00 -0.00000000000E+00 -0.10121843278E+03  0.10121843278E+03  0.00000000000E+00 0.  1.
      99926    2    1    2    0    0  0.71054273576E-14  0.00000000000E+00  0.40996268140E+03  0.61239954696E+03  0.45493274775E+03 0.  0.
      99925    2    3    3    0    0 -0.36514072037E+02  0.84666216637E+02  0.34631274894E+03  0.44446959818E+03  0.26290503594E+03 0.  0.
         25    1    4    4    0    0 -0.42676424462E+02  0.13697131428E+02  0.19134957838E+03  0.23296149438E+03  0.12509000000E+03 0.  0.
         25    1    4    4    0    0  0.61623524244E+01  0.70969085209E+02  0.15496317056E+03  0.21150810380E+03  0.12509000000E+03 0.  0.
         25    1    3    3    0    0  0.36514072037E+02 -0.84666216637E+02  0.63649932451E+02  0.16792994878E+03  0.12509000000E+03 0.  0.
<mgrwt>
<rscale>  2 0.45493275E+03</rscale>
<asrwt>0</asrwt>
<pdfrwt beam="1">  1       21 0.75173692E-01 0.45493275E+03</pdfrwt>
<pdfrwt beam="2">  1       21 0.14885064E-01 0.45493275E+03</pdfrwt>
<totfact> 0.57952241E+04</totfact>
</mgrwt>
</event>
<event>
 7    0  0.4793433E-002  0.4522486E+03  0.7546771E-02  0.1027054E+00
         21   -1    0    0  502  501  0.00000000000E+00  0.00000000000E+00  0.15299135707E+03  0.15299135707E+03  0.00000000000E+00 0. -1.
         21   -1    0    0  501  502 -0.00000000000E+00 -0.00000000000E+00 -0.33421629722E+03  0.33421629722E+03  0.00000000000E+00 0. -1.
      99926    2    1    2    0    0  0.35527136788E-14  0.00000000000E+00 -0.18122494016E+03  0.48720765429E+03  0.45224862572E+03 0.  0.
      99925    2    3    3    0    0 -0.20835342547E+02 -0.10145661315E+03 -0.72792029795E+02  0.29193154208E+03  0.26305472778E+03 0.  0.
         25    1    4    4    0    0 -0.45147236324E+02 -0.64694186656E+02 -0.56470130876E+02  0.15830348864E+03  0.12509000000E+03 0.  0.
         25    1    3    3    0    0  0.20835342547E+02  0.10145661315E+03 -0.10843291036E+03  0.19527611221E+03  0.12509000000E+03 0.  0.
         25    1    4    4    0    0  0.24311893777E+02 -0.36762426496E+02 -0.16321898919E+02  0.13362805344E+03  0.12509000000E+03 0.  0.
<mgrwt>
<rscale>  2 0.45224863E+03</rscale>
<asrwt>0</asrwt>
<pdfrwt beam="1">  1       21 0.22498729E-01 0.45224863E+03</pdfrwt>
<pdfrwt beam="2">  1       21 0.49149455E-01 0.45224863E+03</pdfrwt>
<totfact> 0.67644537E+04</totfact>
</mgrwt>
</event>
<event>
 7    0  0.4793433E-002  0.4554122E+03  0.7546771E-02  0.1026120E+00
         21   -1    0    0  502  501  0.00000000000E+00  0.00000000000E+00  0.10033361537E+04  0.10033361537E+04  0.00000000000E+00 0.  1.
         21   -1    0    0  501  502 -0.00000000000E+00 -0.00000000000E+00 -0.51677672250E+02  0.51677672250E+02  0.00000000000E+00 0.  1.
      99926    2    1    2    0    0  0.00000000000E+00  0.00000000000E+00  0.95165848145E+03  0.10550138259E+04  0.45541223922E+03 0.  0.
      99925    2    3    3    0    0  0.10240538743E+03  0.29791691580E+02  0.68870009635E+03  0.74490250939E+03  0.26305421025E+03 0.  0.
         25    1    4    4    0    0  0.51592543347E+02 -0.10369287019E+02  0.25445769718E+03  0.28838436226E+03  0.12509000000E+03 0.  0.
         25    1    4    4    0    0  0.50812844078E+02  0.40160978600E+02  0.43424239916E+03  0.45651814713E+03  0.12509000000E+03 0.  0.
         25    1    3    3    0    0 -0.10240538743E+03 -0.29791691580E+02  0.26295838510E+03  0.31011131655E+03  0.12509000000E+03 0.  0.
<mgrwt>
<rscale>  2 0.45541224E+03</rscale>
<asrwt>0</asrwt>
<pdfrwt beam="1">  1       21 0.14754942E+00 0.45541224E+03</pdfrwt>
<pdfrwt beam="2">  1       21 0.75996583E-02 0.45541224E+03</pdfrwt>
<totfact> 0.36974844E+04</totfact>
</mgrwt>
</event>
<event>
 7    0  0.4793433E-002  0.4575310E+03  0.7546771E-02  0.1025500E+00
         21   -1    0    0  502  501  0.00000000000E+00  0.00000000000E+00  0.58001801302E+03  0.58001801302E+03  0.00000000000E+00 0. -1.
         21   -1    0    0  501  502 -0.00000000000E+00 -0.00000000000E+00 -0.90227626556E+02  0.90227626556E+02  0.00000000000E+00 0. -1.
      99926    2    1    2    0    0 -0.71054273576E-14  0.00000000000E+00  0.48979038646E+03  0.67024563958E+03  0.45753097676E+03 0.  0.
      99925    2    3    3    0    0  0.50891084696E+02  0.13319071677E+02  0.45796574342E+03  0.53086265576E+03  0.26327787025E+03 0.  0.
         25    1    4    4    0    0  0.12192225214E+02  0.26917801362E+02  0.29191694636E+03  0.31896117328E+03  0.12509000000E+03 0.  0.
         25    1    4    4    0    0  0.38698859483E+02 -0.13598729685E+02  0.16604879706E+03  0.21190148248E+03  0.12509000000E+03 0.  0.
         25    1    3    3    0    0 -0.50891084696E+02 -0.13319071677E+02  0.31824643044E+02  0.13938298381E+03  0.12509000000E+03 0.  0.
<mgrwt>
<rscale>  2 0.45753098E+03</rscale>
<asrwt>0</asrwt>
<pdfrwt beam="1">  1       21 0.85296765E-01 0.45753098E+03</pdfrwt>
<pdfrwt beam="2">  1       21 0.13268769E-01 0.45753098E+03</pdfrwt>
<totfact> 0.53473560E+04</totfact>
</mgrwt>
</event>
<event>
 7    0  0.4793433E-002  0.4552387E+03  0.7546771E-02  0.1026171E+00
         21   -1    0    0  502  501  0.00000000000E+00  0.00000000000E+00  0.12855368236E+03  0.12855368236E+03  0.00000000000E+00 0. -1.
         21   -1    0    0  501  502 -0.00000000000E+00 -0.00000000000E+00 -0.40302677454E+03  0.40302677454E+03  0.00000000000E+00 0. -1.
      99926    2    1    2    0    0 -0.71054273576E-14  0.00000000000E+00 -0.27447309218E+03  0.53158045690E+03  0.45523873279E+03 0.  0.
      99925    2    3    3    0    0  0.62260941872E+02 -0.79524628955E+02 -0.23300253377E+03  0.36554459689E+03  0.26292980067E+03 0.  0.
         25    1    3    3    0    0 -0.62260941872E+02  0.79524628955E+02 -0.41470558403E+02  0.16603586000E+03  0.12509000000E+03 0.  0.
         25    1    4    4    0    0  0.47702399522E+02 -0.13169837670E+02 -0.14687631869E+03  0.19917109388E+03  0.12509000000E+03 0.  0.
         25    1    4    4    0    0  0.14558542350E+02 -0.66354791285E+02 -0.86126215083E+02  0.16637350302E+03  0.12509000000E+03 0.  0.
<mgrwt>
<rscale>  2 0.45523873E+03</rscale>
<asrwt>0</asrwt>
<pdfrwt beam="1">  1       21 0.18904953E-01 0.45523873E+03</pdfrwt>
<pdfrwt beam="2">  1       21 0.59268644E-01 0.45523873E+03</pdfrwt>
<totfact> 0.62980398E+04</totfact>
</mgrwt>
</event>
<event>
 7    0  0.4793433E-002  0.4265068E+03  0.7546771E-02  0.1034969E+00
         21   -1    0    0  502  501  0.00000000000E+00  0.00000000000E+00  0.26530601894E+03  0.26530601894E+03  0.00000000000E+00 0.  1.
         21   -1    0    0  501  502 -0.00000000000E+00 -0.00000000000E+00 -0.17141340893E+03  0.17141340893E+03  0.00000000000E+00 0.  1.
      99926    2    1    2    0    0  0.00000000000E+00  0.00000000000E+00  0.93892610004E+02  0.43671942787E+03  0.42650678361E+03 0.  0.
      99925    2    3    3    0    0 -0.35202040143E+02 -0.66594126558E+02  0.23433949147E+02  0.27459018217E+03  0.26301455634E+03 0.  0.
         25    1    3    3    0    0  0.35202040143E+02  0.66594126558E+02  0.70458660857E+02  0.16212924570E+03  0.12509000000E+03 0.  0.
         25    1    4    4    0    0  0.34829422013E+01 -0.54904989126E+01  0.33765698812E+02  0.12973013135E+03  0.12509000000E+03 0.  0.
         25    1    4    4    0    0 -0.38684982344E+02 -0.61103627645E+02 -0.10331749666E+02  0.14486005081E+03  0.12509000000E+03 0.  0.
<mgrwt>
<rscale>  2 0.42650678E+03</rscale>
<asrwt>0</asrwt>
<pdfrwt beam="1">  1       21 0.39015591E-01 0.42650678E+03</pdfrwt>
<pdfrwt beam="2">  1       21 0.25207854E-01 0.42650678E+03</pdfrwt>
<totfact> 0.88327525E+04</totfact>
</mgrwt>
</event>
<event>
 6    0  0.4793433E-002  0.4171522E+03  0.7546771E-02  0.1037997E+00
         21   -1    0    0  502  501  0.00000000000E+00  0.00000000000E+00  0.78340420471E+02  0.78340420471E+02  0.00000000000E+00 0. -1.
         21   -1    0    0  501  502 -0.00000000000E+00 -0.00000000000E+00 -0.55531972538E+03  0.55531972538E+03  0.00000000000E+00 0. -1.
      99926    2    1    2    0    0 -0.71054273576E-14  0.00000000000E+00 -0.47697930491E+03  0.63366014585E+03  0.41715215825E+03 0.  0.
         25    1    3    3    0    0  0.36873759240E+02 -0.26484090772E+02 -0.27022943661E+03  0.30121842191E+03  0.12509000000E+03 0.  0.
         25    1    3    3    0    0 -0.37242802327E+02  0.21136735158E+02 -0.81358105842E+02  0.15524315568E+03  0.12509000000E+03 0.  0.
         25    1    3    3    0    0  0.36904308766E+00  0.53473556137E+01 -0.12539176246E+03  0.17719856827E+03  0.12509000000E+03 0.  0.
<mgrwt>
<rscale>  2 0.41715216E+03</rscale>
<asrwt>0</asrwt>
<pdfrwt beam="1">  1       21 0.11520650E-01 0.41715216E+03</pdfrwt>
<pdfrwt beam="2">  1       21 0.81664665E-01 0.41715216E+03</pdfrwt>
<totfact> 0.77262125E+04</totfact>
</mgrwt>
</event>
<event>
 7    0  0.4793433E-002  0.4567304E+03  0.7546771E-02  0.1025734E+00
         21   -1    0    0  502  501  0.00000000000E+00  0.00000000000E+00  0.82892064616E+03  0.82892064616E+03  0.00000000000E+00 0. -1.
         21   -1    0    0  501  502 -0.00000000000E+00 -0.00000000000E+00 -0.62913952001E+02  0.62913952001E+02  0.00000000000E+00 0. -1.
      99926    2    1    2    0    0  0.00000000000E+00 -0.88817841970E-15  0.76600669416E+03  0.89183459817E+03  0.45673044017E+03 0.  0.
      99925    2    3    3    0    0 -0.89500337406E+02 -0.56304910012E+01  0.34089210794E+03  0.43971521974E+03  0.26286885018E+03 0.  0.
         25    1    4    4    0    0 -0.35006690051E+02 -0.41820130388E+02  0.17403294961E+03  0.22115462306E+03  0.12509000000E+03 0.  0.
         25    1    3    3    0    0  0.89500337406E+02  0.56304910012E+01  0.42511458622E+03  0.45211937842E+03  0.12509000000E+03 0.  0.
         25    1    4    4    0    0 -0.54493647355E+02  0.36189639387E+02  0.16685915834E+03  0.21856059668E+03  0.12509000000E+03 0.  0.
<mgrwt>
<rscale>  2 0.45673044E+03</rscale>
<asrwt>0</asrwt>
<pdfrwt beam="1">  1       21 0.12190009E+00 0.45673044E+03</pdfrwt>
<pdfrwt beam="2">  1       21 0.92520523E-02 0.45673044E+03</pdfrwt>
<totfact> 0.43002952E+04</totfact>
</mgrwt>
</event>
<event>
 7    0  0.4793433E-002  0.4469462E+03  0.7546771E-02  0.1028637E+00
         21   -1    0    0  502  501  0.00000000000E+00  0.00000000000E+00  0.60157466999E+03  0.60157466999E+03  0.00000000000E+00 0.  1.
         21   -1    0    0  501  502 -0.00000000000E+00 -0.00000000000E+00 -0.83015840086E+02  0.83015840086E+02  0.00000000000E+00 0.  1.
      99926    2    1    2    0    0  0.71054273576E-14  0.00000000000E+00  0.51855882990E+03  0.68459051007E+03  0.44694620081E+03 0.  0.
      99925    2    3    3    0    0 -0.63736597878E+02 -0.71662037928E+02  0.39906966867E+03  0.48679523880E+03  0.26175408778E+03 0.  0.
         25    1    4    4    0    0  0.56574583430E+00 -0.54267131239E+02  0.21286622588E+03  0.25279394736E+03  0.12509000000E+03 0.  0.
         25    1    3    3    0    0  0.63736597878E+02  0.71662037928E+02  0.11948916123E+03  0.19779527128E+03  0.12509000000E+03 0.  0.
         25    1    4    4    0    0 -0.64302343712E+02 -0.17394906689E+02  0.18620344280E+03  0.23400129144E+03  0.12509000000E+03 0.  0.
<mgrwt>
<rscale>  2 0.44694620E+03</rscale>
<asrwt>0</asrwt>
<pdfrwt beam="1">  1       21 0.88466861E-01 0.44694620E+03</pdfrwt>
<pdfrwt beam="2">  1       21 0.12208212E-01 0.44694620E+03</pdfrwt>
<totfact> 0.57295275E+04</totfact>
</mgrwt>
</event>
<event>
 7    0  0.4793433E-002  0.4534365E+03  0.7546771E-02  0.1026702E+00
         21   -1    0    0  502  501  0.00000000000E+00  0.00000000000E+00  0.22445055857E+02  0.22445055857E+02  0.00000000000E+00 0.  1.
         21   -1    0    0  501  502 -0.00000000000E+00 -0.00000000000E+00 -0.22900884924E+04  0.22900884924E+04  0.00000000000E+00 0.  1.
      99926    2    1    2    0    0  0.00000000000E+00  0.00000000000E+00 -0.22676434366E+04  0.23125335483E+04  0.45343649668E+03 0.  0.
      99925    2    3    3    0    0 -0.33560421672E+02 -0.71657995734E+02 -0.10284213764E+04  0.10645031028E+04  0.26316374798E+03 0.  0.
         25    1    3    3    0    0  0.33560421672E+02  0.71657995734E+02 -0.12392220602E+04  0.12480304454E+04  0.12509000000E+03 0.  0.
         25    1    4    4    0    0 -0.31564129778E+02 -0.58196038626E+02 -0.41994478595E+03  0.44315257480E+03  0.12509000000E+03 0.  0.
         25    1    4    4    0    0 -0.19962918939E+01 -0.13461957108E+02 -0.60847659044E+03  0.62135052803E+03  0.12509000000E+03 0.  0.
<mgrwt>
<rscale>  2 0.45343650E+03</rscale>
<asrwt>0</asrwt>
<pdfrwt beam="1">  1       21 0.33007428E-02 0.45343650E+03</pdfrwt>
<pdfrwt beam="2">  1       21 0.33677780E+00 0.45343650E+03</pdfrwt>
<totfact> 0.93585417E+03</totfact>
</mgrwt>
</event>
<event>
 7    0  0.4793433E-002  0.4516264E+03  0.7546771E-02  0.1027238E+00
         21   -1    0    0  502  501  0.00000000000E+00  0.00000000000E+00  0.41362434423E+02  0.41362434423E+02  0.00000000000E+00 0.  1.
         21   -1    0    0  501  502 -0.00000000000E+00 -0.00000000000E+00 -0.12327998921E+04  0.12327998921E+04  0.00000000000E+00 0.  1.
      99926    2    1    2    0    0 -0.71054273576E-14  0.17763568394E-14 -0.11914374577E+04  0.12741623265E+04  0.45162641505E+03 0.  0.
      99925    2    3    3    0    0 -0.62671940587E+02  0.14452973842E+01 -0.10069371381E+04  0.10426072855E+04  0.26301652144E+03 0.  0.
         25    1    4    4    0    0 -0.27009069508E+02 -0.29690660164E+02 -0.60148224843E+03  0.61566178086E+03  0.12509000000E+03 0.  0.
         25    1    3    3    0    0  0.62671940587E+02 -0.14452973842E+01 -0.18450031954E+03  0.23155504104E+03  0.12509000000E+03 0.  0.
         25    1    4    4    0    0 -0.35662871079E+02  0.31135957548E+02 -0.40545488969E+03  0.42694550461E+03  0.12509000000E+03 0.  0.
<mgrwt>
<rscale>  2 0.45162642E+03</rscale>
<asrwt>0</asrwt>
<pdfrwt beam="1">  1       21 0.60827106E-02 0.45162642E+03</pdfrwt>
<pdfrwt beam="2">  1       21 0.18129411E+00 0.45162642E+03</pdfrwt>
<totfact> 0.30671635E+04</totfact>
</mgrwt>
</event>
<event>
 7    0  0.4793433E-002  0.4442350E+03  0.7546771E-02  0.1029455E+00
         21   -1    0    0  502  501  0.00000000000E+00  0.00000000000E+00  0.98313526123E+02  0.98313526123E+02  0.00000000000E+00 0.  1.
         21   -1    0    0  501  502 -0.00000000000E+00 -0.00000000000E+00 -0.50182501157E+03  0.50182501157E+03  0.00000000000E+00 0.  1.
      99926    2    1    2    0    0 -0.14210854715E-13  0.00000000000E+00 -0.40351148545E+03  0.60013853770E+03  0.44423501161E+03 0.  0.
      99925    2    3    3    0    0  0.98933540697E+02  0.10900240961E+02 -0.22290173129E+03  0.35894556076E+03  0.26315408613E+03 0.  0.
         25    1    4    4    0    0  0.77693917847E+01  0.15775045990E+02 -0.10629014123E+03  0.16508881776E+03  0.12509000000E+03 0.  0.
         25    1    4    4    0    0  0.91164148912E+02 -0.48748050285E+01 -0.11661159006E+03  0.19385674300E+03  0.12509000000E+03 0.  0.
         25    1    3    3    0    0 -0.98933540697E+02 -0.10900240961E+02 -0.18060975416E+03  0.24119297694E+03  0.12509000000E+03 0.  0.
<mgrwt>
<rscale>  2 0.44423501E+03</rscale>
<asrwt>0</asrwt>
<pdfrwt beam="1">  1       21 0.14457871E-01 0.44423501E+03</pdfrwt>
<pdfrwt beam="2">  1       21 0.73797796E-01 0.44423501E+03</pdfrwt>
<totfact> 0.63936626E+04</totfact>
</mgrwt>
</event>
<event>
 7    0  0.4793433E-002  0.4560668E+03  0.7546771E-02  0.1025928E+00
         21   -1    0    0  502  501  0.00000000000E+00  0.00000000000E+00  0.20527850514E+03  0.20527850514E+03  0.00000000000E+00 0. -1.
         21   -1    0    0  501  502 -0.00000000000E+00 -0.00000000000E+00 -0.25331065129E+03  0.25331065129E+03  0.00000000000E+00 0. -1.
      99926    2    1    2    0    0  0.00000000000E+00  0.00000000000E+00 -0.48032146145E+02  0.45858915643E+03  0.45606680139E+03 0.  0.
      99925    2    3    3    0    0 -0.61801708200E+02  0.95984233099E+02 -0.30669749477E+02  0.28834995689E+03  0.26300692000E+03 0.  0.
         25    1    4    4    0    0  0.90185569872E+01  0.40568843111E+02 -0.25164229116E+02  0.13419356143E+03  0.12509000000E+03 0.  0.
         25    1    4    4    0    0 -0.70820265187E+02  0.55415389988E+02 -0.55055203612E+01  0.15415639547E+03  0.12509000000E+03 0.  0.
         25    1    3    3    0    0  0.61801708200E+02 -0.95984233099E+02 -0.17362396668E+02  0.17023919953E+03  0.12509000000E+03 0.  0.
<mgrwt>
<rscale>  2 0.45606680E+03</rscale>
<asrwt>0</asrwt>
<pdfrwt beam="1">  1       21 0.30188016E-01 0.45606680E+03</pdfrwt>
<pdfrwt beam="2">  1       21 0.37251566E-01 0.45606680E+03</pdfrwt>
<totfact> 0.67705506E+04</totfact>
</mgrwt>
</event>
<event>
 7    0  0.4793433E-002  0.4681658E+03  0.7546771E-02  0.1022439E+00
         21   -1    0    0  502  501  0.00000000000E+00  0.00000000000E+00  0.82412574996E+02  0.82412574996E+02  0.00000000000E+00 0.  1.
         21   -1    0    0  501  502 -0.00000000000E+00 -0.00000000000E+00 -0.66488405552E+03  0.66488405552E+03  0.00000000000E+00 0.  1.
      99926    2    1    2    0    0  0.00000000000E+00  0.14210854715E-13 -0.58247148052E+03  0.74729663051E+03  0.46816581289E+03 0.  0.
      99925    2    3    3    0    0  0.68728636743E+02  0.96914109945E+02 -0.29981753723E+03  0.41615205488E+03  0.26301332083E+03 0.  0.
         25    1    4    4    0    0  0.17761038130E+02  0.71746537509E+02 -0.19580138571E+03  0.24382106322E+03  0.12509000000E+03 0.  0.
         25    1    4    4    0    0  0.50967598613E+02  0.25167572435E+02 -0.10401615151E+03  0.17233099166E+03  0.12509000000E+03 0.  0.
         25    1    3    3    0    0 -0.68728636743E+02 -0.96914109945E+02 -0.28265394330E+03  0.33114457564E+03  0.12509000000E+03 0.  0.
<mgrwt>
<rscale>  2 0.46816581E+03</rscale>
<asrwt>0</asrwt>
<pdfrwt beam="1">  1       21 0.12119497E-01 0.46816581E+03</pdfrwt>
<pdfrwt beam="2">  1       21 0.97777065E-01 0.46816581E+03</pdfrwt>
<totfact> 0.45513072E+04</totfact>
</mgrwt>
</event>
<event>
 7    0  0.4793433E-002  0.4603478E+03  0.7546771E-02  0.1024680E+00
         21   -1    0    0  502  501  0.00000000000E+00  0.00000000000E+00  0.29872631259E+03  0.29872631259E+03  0.00000000000E+00 0.  1.
         21   -1    0    0  501  502 -0.00000000000E+00 -0.00000000000E+00 -0.17735303769E+03  0.17735303769E+03  0.00000000000E+00 0.  1.
      99926    2    1    2    0    0  0.00000000000E+00  0.00000000000E+00  0.12137327489E+03  0.47607935028E+03  0.46034777713E+03 0.  0.
      99925    2    3    3    0    0 -0.49906063597E+02 -0.50999334764E+02 -0.21330920561E+02  0.27333926340E+03  0.26299771370E+03 0.  0.
         25    1    3    3    0    0  0.49906063597E+02  0.50999334764E+02  0.14270419545E+03  0.20274008688E+03  0.12509000000E+03 0.  0.
         25    1    4    4    0    0 -0.33151097743E+02 -0.43589286198E+02  0.24752645203E+02  0.13877760157E+03  0.12509000000E+03 0.  0.
         25    1    4    4    0    0 -0.16754965854E+02 -0.74100485660E+01 -0.46083565763E+02  0.13456166183E+03  0.12509000000E+03 0.  0.
<mgrwt>
<rscale>  2 0.46034778E+03</rscale>
<asrwt>0</asrwt>
<pdfrwt beam="1">  1       21 0.43930340E-01 0.46034778E+03</pdfrwt>
<pdfrwt beam="2">  1       21 0.26081329E-01 0.46034778E+03</pdfrwt>
<totfact> 0.64218072E+04</totfact>
</mgrwt>
</event>
<event>
 7    0  0.4793433E-002  0.4548239E+03  0.7546771E-02  0.1026293E+00
         21   -1    0    0  502  501  0.00000000000E+00  0.00000000000E+00  0.23347915796E+03  0.23347915796E+03  0.00000000000E+00 0.  1.
         21   -1    0    0  501  502 -0.00000000000E+00 -0.00000000000E+00 -0.22150239012E+03  0.22150239012E+03  0.00000000000E+00 0.  1.
      99926    2    1    2    0    0  0.00000000000E+00  0.35527136788E-14  0.11976767841E+02  0.45498154808E+03  0.45482388474E+03 0.  0.
      99925    2    3    3    0    0 -0.10007409073E+03 -0.28033761706E+02 -0.37047405841E+02  0.28512398088E+03  0.26291150367E+03 0.  0.
         25    1    3    3    0    0  0.10007409073E+03  0.28033761706E+02  0.49024173682E+02  0.16985756720E+03  0.12509000000E+03 0.  0.
         25    1    4    4    0    0 -0.88267872228E+02  0.35509348956E+01 -0.18674218609E+02  0.15427268374E+03  0.12509000000E+03 0.  0.
         25    1    4    4    0    0 -0.11806218504E+02 -0.31584696602E+02 -0.18373187232E+02  0.13085129714E+03  0.12509000000E+03 0.  0.
<mgrwt>
<rscale>  2 0.45482388E+03</rscale>
<asrwt>0</asrwt>
<pdfrwt beam="1">  1       21 0.34335170E-01 0.45482388E+03</pdfrwt>
<pdfrwt beam="2">  1       21 0.32573881E-01 0.45482388E+03</pdfrwt>
<totfact> 0.68643560E+04</totfact>
</mgrwt>
</event>
<event>
 7    0  0.4793433E-002  0.4655904E+03  0.7546771E-02  0.1023172E+00
         21   -1    0    0  502  501  0.00000000000E+00  0.00000000000E+00  0.79396886958E+03  0.79396886958E+03  0.00000000000E+00 0.  1.
         21   -1    0    0  501  502 -0.00000000000E+00 -0.00000000000E+00 -0.68256576500E+02  0.68256576500E+02  0.00000000000E+00 0.  1.
      99926    2    1    2    0    0  0.00000000000E+00  0.71054273576E-14  0.72571229308E+03  0.86222544608E+03  0.46559036453E+03 0.  0.
      99925    2    3    3    0    0 -0.69946683209E+02  0.55987202145E+02  0.29653953872E+03  0.40630454671E+03  0.26290793323E+03 0.  0.
         25    1    3    3    0    0  0.69946683209E+02 -0.55987202145E+02  0.42917275437E+03  0.45592089937E+03  0.12509000000E+03 0.  0.
         25    1    4    4    0    0 -0.23920320546E+02  0.55823612132E+02  0.19118605740E+03  0.23640658631E+03  0.12509000000E+03 0.  0.
         25    1    4    4    0    0 -0.46026362663E+02  0.16359001318E+00  0.10535348131E+03  0.16989796040E+03  0.12509000000E+03 0.  0.
<mgrwt>
<rscale>  2 0.46559036E+03</rscale>
<asrwt>0</asrwt>
<pdfrwt beam="1">  1       21 0.11676012E+00 0.46559036E+03</pdfrwt>
<pdfrwt beam="2">  1       21 0.10037732E-01 0.46559036E+03</pdfrwt>
<totfact> 0.41353668E+04</totfact>
</mgrwt>
</event>
<event>
 7    0  0.4793433E-002  0.4597511E+03  0.7546771E-02  0.1024853E+00
         21   -1    0    0  502  501  0.00000000000E+00  0.00000000000E+00  0.49504511681E+02  0.49504511681E+02  0.00000000000E+00 0.  1.
         21   -1    0    0  501  502 -0.00000000000E+00 -0.00000000000E+00 -0.10674334638E+04  0.10674334638E+04  0.00000000000E+00 0.  1.
      99926    2    1    2    0    0 -0.71054273576E-14  0.00000000000E+00 -0.10179289521E+04  0.11169379754E+04  0.45975111691E+03 0.  0.
      99925    2    3    3    0    0 -0.33579984474E+02 -0.10765971445E+03 -0.55822084976E+03  0.62734908984E+03  0.26313140052E+03 0.  0.
         25    1    4    4    0    0 -0.57596800457E+02 -0.51884967209E+02 -0.29376878923E+03  0.32856818299E+03  0.12509000000E+03 0.  0.
         25    1    3    3    0    0  0.33579984474E+02  0.10765971445E+03 -0.45970810232E+03  0.48958888561E+03  0.12509000000E+03 0.  0.
         25    1    4    4    0    0  0.24016815983E+02 -0.55774747236E+02 -0.26445206053E+03  0.29878090685E+03  0.12509000000E+03 0.  0.
<mgrwt>
<rscale>  2 0.45975112E+03</rscale>
<asrwt>0</asrwt>
<pdfrwt beam="1">  1       21 0.72800755E-02 0.45975112E+03</pdfrwt>
<pdfrwt beam="2">  1       21 0.15697550E+00 0.45975112E+03</pdfrwt>
<totfact> 0.33642024E+04</totfact>
</mgrwt>
</event>
<event>
 7    0  0.4793433E-002  0.4598218E+03  0.7546771E-02  0.1024833E+00
         21   -1    0    0  502  501  0.00000000000E+00  0.00000000000E+00  0.24226387473E+03  0.24226387473E+03  0.00000000000E+00 0.  1.
         21   -1    0    0  501  502 -0.00000000000E+00 -0.00000000000E+00 -0.21818779682E+03  0.21818779682E+03  0.00000000000E+00 0.  1.
      99926    2    1    2    0    0  0.00000000000E+00  0.00000000000E+00  0.24076077910E+02  0.46045167154E+03  0.45982179624E+03 0.  0.
      99925    2    3    3    0    0  0.10900603080E+03  0.44041179415E+02  0.10655185871E+02  0.28826117042E+03  0.26298104333E+03 0.  0.
         25    1    3    3    0    0 -0.10900603080E+03 -0.44041179415E+02  0.13420892039E+02  0.17219050112E+03  0.12509000000E+03 0.  0.
         25    1    4    4    0    0  0.84786824218E+02 -0.50781913908E+01 -0.10643344233E+01  0.15120593407E+03  0.12509000000E+03 0.  0.
         25    1    4    4    0    0  0.24219206578E+02  0.49119370806E+02  0.11719520295E+02  0.13705523635E+03  0.12509000000E+03 0.  0.
<mgrwt>
<rscale>  2 0.45982180E+03</rscale>
<asrwt>0</asrwt>
<pdfrwt beam="1">  1       21 0.35627041E-01 0.45982180E+03</pdfrwt>
<pdfrwt beam="2">  1       21 0.32086440E-01 0.45982180E+03</pdfrwt>
<totfact> 0.65588373E+04</totfact>
</mgrwt>
</event>
<event>
 7    0  0.4793433E-002  0.4547312E+03  0.7546771E-02  0.1026320E+00
         21   -1    0    0  502  501  0.00000000000E+00  0.00000000000E+00  0.16998405910E+03  0.16998405910E+03  0.00000000000E+00 0. -1.
         21   -1    0    0  501  502 -0.00000000000E+00 -0.00000000000E+00 -0.30411740448E+03  0.30411740448E+03  0.00000000000E+00 0. -1.
      99926    2    1    2    0    0  0.00000000000E+00  0.00000000000E+00 -0.13413334537E+03  0.47410146358E+03  0.45473117710E+03 0.  0.
      99925    2    3    3    0    0 -0.88666824874E+02  0.17802969636E+02 -0.13475326100E+02  0.27818153790E+03  0.26272539287E+03 0.  0.
         25    1    4    4    0    0 -0.18847519087E+02 -0.60304766804E+01 -0.34944736539E+02  0.13137822626E+03  0.12509000000E+03 0.  0.
         25    1    4    4    0    0 -0.69819305787E+02  0.23833446317E+02  0.21469410439E+02  0.14680331164E+03  0.12509000000E+03 0.  0.
         25    1    3    3    0    0  0.88666824874E+02 -0.17802969636E+02 -0.12065801927E+03  0.19591992567E+03  0.12509000000E+03 0.  0.
<mgrwt>
<rscale>  2 0.45473118E+03</rscale>
<asrwt>0</asrwt>
<pdfrwt beam="1">  1       21 0.24997656E-01 0.45473118E+03</pdfrwt>
<pdfrwt beam="2">  1       21 0.44723148E-01 0.45473118E+03</pdfrwt>
<totfact> 0.67275457E+04</totfact>
</mgrwt>
</event>
<event>
 7    0  0.4793433E-002  0.4533335E+03  0.7546771E-02  0.1026733E+00
         21   -1    0    0  502  501  0.00000000000E+00  0.00000000000E+00  0.10839218331E+04  0.10839218331E+04  0.00000000000E+00 0. -1.
         21   -1    0    0  501  502 -0.00000000000E+00 -0.00000000000E+00 -0.47399937164E+02  0.47399937164E+02  0.00000000000E+00 0. -1.
      99926    2    1    2    0    0  0.71054273576E-14  0.00000000000E+00  0.10365218959E+04  0.11313217703E+04  0.45333354952E+03 0.  0.
      99925    2    3    3    0    0 -0.36297194481E+02 -0.10455381930E+03  0.68766384221E+03  0.74454219841E+03  0.26308275859E+03 0.  0.
         25    1    3    3    0    0  0.36297194481E+02  0.10455381930E+03  0.34885805374E+03  0.38677957187E+03  0.12509000000E+03 0.  0.
         25    1    4    4    0    0  0.78026438155E+01 -0.75149562347E+02  0.29863083454E+03  0.33246988046E+03  0.12509000000E+03 0.  0.
         25    1    4    4    0    0 -0.44099838296E+02 -0.29404256956E+02  0.38903300767E+03  0.41207231795E+03  0.12509000000E+03 0.  0.
<mgrwt>
<rscale>  2 0.45333355E+03</rscale>
<asrwt>0</asrwt>
<pdfrwt beam="1">  1       21 0.15940025E+00 0.45333355E+03</pdfrwt>
<pdfrwt beam="2">  1       21 0.69705796E-02 0.45333355E+03</pdfrwt>
<totfact> 0.34862835E+04</totfact>
</mgrwt>
</event>
<event>
 7    0  0.4793433E-002  0.4485694E+03  0.7546771E-02  0.1028150E+00
         21   -1    0    0  502  501  0.00000000000E+00  0.00000000000E+00  0.13846256093E+03  0.13846256093E+03  0.00000000000E+00 0.  1.
         21   -1    0    0  501  502 -0.00000000000E+00 -0.00000000000E+00 -0.36330123568E+03  0.36330123568E+03  0.00000000000E+00 0.  1.
      99926    2    1    2    0    0 -0.17763568394E-14  0.00000000000E+00 -0.22483867475E+03  0.50176379661E+03  0.44856936801E+03 0.  0.
      99925    2    3    3    0    0  0.88048237909E+01 -0.22290326834E+02 -0.25895679986E+03  0.36990804909E+03  0.26305694630E+03 0.  0.
         25    1    4    4    0    0 -0.83966338649E+01 -0.26510982188E+02 -0.80759425728E+02  0.15146923312E+03  0.12509000000E+03 0.  0.
         25    1    4    4    0    0  0.17201457656E+02  0.42206553545E+01 -0.17819737413E+03  0.21843881597E+03  0.12509000000E+03 0.  0.
         25    1    3    3    0    0 -0.88048237909E+01  0.22290326834E+02  0.34118125107E+02  0.13185574752E+03  0.12509000000E+03 0.  0.
<mgrwt>
<rscale>  2 0.44856937E+03</rscale>
<asrwt>0</asrwt>
<pdfrwt beam="1">  1       21 0.20362141E-01 0.44856937E+03</pdfrwt>
<pdfrwt beam="2">  1       21 0.53426653E-01 0.44856937E+03</pdfrwt>
<totfact> 0.68581105E+04</totfact>
</mgrwt>
</event>
<event>
 7    0  0.4793433E-002  0.4241186E+03  0.7546771E-02  0.1035734E+00
         21   -1    0    0  502  501  0.00000000000E+00  0.00000000000E+00  0.17034086866E+03  0.17034086866E+03  0.00000000000E+00 0. -1.
         21   -1    0    0  501  502 -0.00000000000E+00 -0.00000000000E+00 -0.26399503225E+03  0.26399503225E+03  0.00000000000E+00 0. -1.
      99926    2    1    2    0    0  0.35527136788E-14  0.00000000000E+00 -0.93654163592E+02  0.43433590090E+03  0.42411858301E+03 0.  0.
      99925    2    3    3    0    0  0.15610255968E+02 -0.65611102669E+02 -0.10660857749E+03  0.29163403748E+03  0.26293825537E+03 0.  0.
         25    1    4    4    0    0 -0.27655785791E+02 -0.52038018905E+02 -0.50022536272E+02  0.14704611567E+03  0.12509000000E+03 0.  0.
         25    1    3    3    0    0 -0.15610255968E+02  0.65611102669E+02  0.12954413897E+02  0.14270186342E+03  0.12509000000E+03 0.  0.
         25    1    4    4    0    0  0.43266041759E+02 -0.13573083765E+02 -0.56586041217E+02  0.14458792181E+03  0.12509000000E+03 0.  0.
<mgrwt>
<rscale>  2 0.42411858E+03</rscale>
<asrwt>0</asrwt>
<pdfrwt beam="1">  1       21 0.25050128E-01 0.42411858E+03</pdfrwt>
<pdfrwt beam="2">  1       21 0.38822798E-01 0.42411858E+03</pdfrwt>
<totfact> 0.90367362E+04</totfact>
</mgrwt>
</event>
<event>
 7    0  0.4793433E-002  0.4572965E+03  0.7546771E-02  0.1025568E+00
         21   -1    0    0  502  501  0.00000000000E+00  0.00000000000E+00  0.11906264738E+03  0.11906264738E+03  0.00000000000E+00 0.  1.
         21   -1    0    0  501  502 -0.00000000000E+00 -0.00000000000E+00 -0.43909683131E+03  0.43909683131E+03  0.00000000000E+00 0.  1.
      99926    2    1    2    0    0  0.00000000000E+00  0.00000000000E+00 -0.32003418393E+03  0.55815947869E+03  0.45729653920E+03 0.  0.
      99925    2    3    3    0    0  0.76086772020E+02  0.44983904289E+02 -0.29133497469E+03  0.40232655138E+03  0.26301680165E+03 0.  0.
         25    1    3    3    0    0 -0.76086772020E+02 -0.44983904289E+02 -0.28699209240E+02  0.15583292731E+03  0.12509000000E+03 0.  0.
         25    1    4    4    0    0  0.30230719514E+02  0.62089791762E+02 -0.14143210945E+03  0.20104623430E+03  0.12509000000E+03 0.  0.
         25    1    4    4    0    0  0.45856052507E+02 -0.17105887473E+02 -0.14990286524E+03  0.20128031708E+03  0.12509000000E+03 0.  0.
<mgrwt>
<rscale>  2 0.45729654E+03</rscale>
<asrwt>0</asrwt>
<pdfrwt beam="1">  1       21 0.17509213E-01 0.45729654E+03</pdfrwt>
<pdfrwt beam="2">  1       21 0.64573064E-01 0.45729654E+03</pdfrwt>
<totfact> 0.60228909E+04</totfact>
</mgrwt>
</event>
<event>
 7    0  0.4793433E-002  0.4505166E+03  0.7546771E-02  0.1027568E+00
         21   -1    0    0  502  501  0.00000000000E+00  0.00000000000E+00  0.10692190634E+04  0.10692190634E+04  0.00000000000E+00 0. -1.
         21   -1    0    0  501  502 -0.00000000000E+00 -0.00000000000E+00 -0.47456419034E+02  0.47456419034E+02  0.00000000000E+00 0. -1.
      99926    2    1    2    0    0 -0.35527136788E-14  0.71054273576E-14  0.10217626444E+04  0.11166754824E+04  0.45051662749E+03 0.  0.
      99925    2    3    3    0    0  0.19608682693E+02 -0.47177747838E+02  0.40766020048E+03  0.48788333871E+03  0.26312178322E+03 0.  0.
         25    1    3    3    0    0 -0.19608682693E+02  0.47177747838E+02  0.61410244390E+03  0.62879214374E+03  0.12509000000E+03 0.  0.
         25    1    4    4    0    0  0.29657109038E+02  0.32035986443E+01  0.24191933516E+03  0.27397496233E+03  0.12509000000E+03 0.  0.
         25    1    4    4    0    0 -0.10048426345E+02 -0.50381346482E+02  0.16574086532E+03  0.21390837637E+03  0.12509000000E+03 0.  0.
<mgrwt>
<rscale>  2 0.45051663E+03</rscale>
<asrwt>0</asrwt>
<pdfrwt beam="1">  1       21 0.15723808E+00 0.45051663E+03</pdfrwt>
<pdfrwt beam="2">  1       21 0.69788858E-02 0.45051663E+03</pdfrwt>
<totfact> 0.36162241E+04</totfact>
</mgrwt>
</event>
<event>
 7    0  0.4793433E-002  0.4700418E+03  0.7546771E-02  0.1021908E+00
         21   -1    0    0  502  501  0.00000000000E+00  0.00000000000E+00  0.72511996494E+02  0.72511996494E+02  0.00000000000E+00 0.  1.
         21   -1    0    0  501  502 -0.00000000000E+00 -0.00000000000E+00 -0.76173348588E+03  0.76173348588E+03  0.00000000000E+00 0.  1.
      99926    2    1    2    0    0  0.35527136788E-14  0.00000000000E+00 -0.68922148938E+03  0.83424548237E+03  0.47004176775E+03 0.  0.
      99925    2    3    3    0    0  0.12166230907E+02  0.66773969047E+02 -0.23809077898E+03  0.36119875520E+03  0.26300293080E+03 0.  0.
         25    1    3    3    0    0 -0.12166230907E+02 -0.66773969047E+02 -0.45113071040E+03  0.47304672717E+03  0.12509000000E+03 0.  0.
         25    1    4    4    0    0  0.43462444728E+02  0.50158513496E+02 -0.12347863058E+03  0.18788118822E+03  0.12509000000E+03 0.  0.
         25    1    4    4    0    0 -0.31296213821E+02  0.16615455551E+02 -0.11461214840E+03  0.17331756698E+03  0.12509000000E+03 0.  0.
<mgrwt>
<rscale>  2 0.47004177E+03</rscale>
<asrwt>0</asrwt>
<pdfrwt beam="1">  1       21 0.10663529E-01 0.47004177E+03</pdfrwt>
<pdfrwt beam="2">  1       21 0.11201963E+00 0.47004177E+03</pdfrwt>
<totfact> 0.41084941E+04</totfact>
</mgrwt>
</event>
<event>
 7    0  0.4793433E-002  0.4339574E+03  0.7546771E-02  0.1032617E+00
         21   -1    0    0  502  501  0.00000000000E+00  0.00000000000E+00  0.95822977053E+03  0.95822977053E+03  0.00000000000E+00 0. -1.
         21   -1    0    0  501  502 -0.00000000000E+00 -0.00000000000E+00 -0.49132014828E+02  0.49132014828E+02  0.00000000000E+00 0. -1.
      99926    2    1    2    0    0  0.00000000000E+00  0.35527136788E-14  0.90909775570E+03  0.10073617854E+04  0.43395741401E+03 0.  0.
      99925    2    3    3    0    0 -0.76970493801E+02 -0.21561437626E+02  0.47789764844E+03  0.55132407517E+03  0.26302608420E+03 0.  0.
         25    1    3    3    0    0  0.76970493801E+02  0.21561437626E+02  0.43120010727E+03  0.45603771019E+03  0.12509000000E+03 0.  0.
         25    1    4    4    0    0 -0.20632722295E+02 -0.16249686820E+02  0.30388089613E+03  0.32966781566E+03  0.12509000000E+03 0.  0.
         25    1    4    4    0    0 -0.56337771506E+02 -0.53117508059E+01  0.17401675231E+03  0.22165625951E+03  0.12509000000E+03 0.  0.
<mgrwt>
<rscale>  2 0.43395741E+03</rscale>
<asrwt>0</asrwt>
<pdfrwt beam="1">  1       21 0.14091613E+00 0.43395741E+03</pdfrwt>
<pdfrwt beam="2">  1       21 0.72252969E-02 0.43395741E+03</pdfrwt>
<totfact> 0.45986020E+04</totfact>
</mgrwt>
</event>
<event>
 7    0  0.4793433E-002  0.4542407E+03  0.7546771E-02  0.1026465E+00
         21   -1    0    0  502  501  0.00000000000E+00  0.00000000000E+00  0.56834418365E+02  0.56834418365E+02  0.00000000000E+00 0.  1.
         21   -1    0    0  501  502 -0.00000000000E+00 -0.00000000000E+00 -0.90761289544E+03  0.90761289544E+03  0.00000000000E+00 0.  1.
      99926    2    1    2    0    0 -0.71054273576E-14  0.00000000000E+00 -0.85077847707E+03  0.96444731380E+03  0.45424068956E+03 0.  0.
      99925    2    3    3    0    0 -0.54788269720E+02 -0.98205748937E+02 -0.54672967402E+03  0.61697169399E+03  0.26285853822E+03 0.  0.
         25    1    4    4    0    0 -0.54630432114E+02 -0.70218603389E+02 -0.34981086480E+03  0.38200822715E+03  0.12509000000E+03 0.  0.
         25    1    3    3    0    0  0.54788269720E+02  0.98205748937E+02 -0.30404880306E+03  0.34747561981E+03  0.12509000000E+03 0.  0.
         25    1    4    4    0    0 -0.15783760581E+00 -0.27987145548E+02 -0.19691880921E+03  0.23496346684E+03  0.12509000000E+03 0.  0.
<mgrwt>
<rscale>  2 0.45424069E+03</rscale>
<asrwt>0</asrwt>
<pdfrwt beam="1">  1       21 0.83580027E-02 0.45424069E+03</pdfrwt>
<pdfrwt beam="2">  1       21 0.13347248E+00 0.45424069E+03</pdfrwt>
<totfact> 0.40802989E+04</totfact>
</mgrwt>
</event>
<event>
 7    0  0.4793433E-002  0.4505721E+03  0.7546771E-02  0.1027552E+00
         21   -1    0    0  502  501  0.00000000000E+00  0.00000000000E+00  0.16231570680E+03  0.16231570680E+03  0.00000000000E+00 0. -1.
         21   -1    0    0  501  502 -0.00000000000E+00 -0.00000000000E+00 -0.31268576400E+03  0.31268576400E+03  0.00000000000E+00 0. -1.
      99926    2    1    2    0    0  0.00000000000E+00 -0.71054273576E-14 -0.15037005720E+03  0.47500147081E+03  0.45057212870E+03 0.  0.
      99925    2    3    3    0    0  0.88271501675E+02  0.56724528742E+02 -0.12589049486E+03  0.30990668821E+03  0.26302891197E+03 0.  0.
         25    1    4    4    0    0  0.74663721405E+02  0.21995767581E+02 -0.36759184759E+02  0.15184607617E+03  0.12509000000E+03 0.  0.
         25    1    4    4    0    0  0.13607780270E+02  0.34728761162E+02 -0.89131310098E+02  0.15806061203E+03  0.12509000000E+03 0.  0.
         25    1    3    3    0    0 -0.88271501675E+02 -0.56724528742E+02 -0.24479562345E+02  0.16509478260E+03  0.12509000000E+03 0.  0.
<mgrwt>
<rscale>  2 0.45057213E+03</rscale>
<asrwt>0</asrwt>
<pdfrwt beam="1">  1       21 0.23869957E-01 0.45057213E+03</pdfrwt>
<pdfrwt beam="2">  1       21 0.45983200E-01 0.45057213E+03</pdfrwt>
<totfact> 0.69475441E+04</totfact>
</mgrwt>
</event>
<event>
 7    0  0.4793433E-002  0.4537657E+03  0.7546771E-02  0.1026605E+00
         21   -1    0    0  502  501  0.00000000000E+00  0.00000000000E+00  0.67316401234E+03  0.67316401234E+03  0.00000000000E+00 0. -1.
         21   -1    0    0  501  502 -0.00000000000E+00 -0.00000000000E+00 -0.76468474794E+02  0.76468474794E+02  0.00000000000E+00 0. -1.
      99926    2    1    2    0    0  0.00000000000E+00 -0.35527136788E-14  0.59669553755E+03  0.74963248713E+03  0.45376568980E+03 0.  0.
      99925    2    3    3    0    0 -0.79716209184E+02  0.20157037434E+02  0.50148547827E+03  0.57222492345E+03  0.26304504925E+03 0.  0.
         25    1    3    3    0    0  0.79716209184E+02 -0.20157037434E+02  0.95210059273E+02  0.17740756368E+03  0.12509000000E+03 0.  0.
         25    1    4    4    0    0 -0.20788804922E+02  0.44632333021E+02  0.22433567423E+03  0.26153053816E+03  0.12509000000E+03 0.  0.
         25    1    4    4    0    0 -0.58927404262E+02 -0.24475295587E+02  0.27714980404E+03  0.31069438529E+03  0.12509000000E+03 0.  0.
<mgrwt>
<rscale>  2 0.45376569E+03</rscale>
<asrwt>0</asrwt>
<pdfrwt beam="1">  1       21 0.98994704E-01 0.45376569E+03</pdfrwt>
<pdfrwt beam="2">  1       21 0.11245364E-01 0.45376569E+03</pdfrwt>
<totfact> 0.50780528E+04</totfact>
</mgrwt>
</event>
<event>
 7    0  0.4793433E-002  0.4218740E+03  0.7546771E-02  0.1036458E+00
         21   -1    0    0  502  501  0.00000000000E+00  0.00000000000E+00  0.34902067260E+03  0.34902067260E+03  0.00000000000E+00 0. -1.
         21   -1    0    0  501  502 -0.00000000000E+00 -0.00000000000E+00 -0.12748359615E+03  0.12748359615E+03  0.00000000000E+00 0. -1.
      99926    2    1    2    0    0  0.00000000000E+00  0.00000000000E+00  0.22153707644E+03  0.47650426875E+03  0.42187396447E+03 0.  0.
      99925    2    3    3    0    0  0.20841322136E+02 -0.24061015400E+02  0.22472905689E+03  0.34738808073E+03  0.26298676098E+03 0.  0.
         25    1    3    3    0    0 -0.20841322136E+02  0.24061015400E+02 -0.31919804433E+01  0.12911618802E+03  0.12509000000E+03 0.  0.
         25    1    4    4    0    0 -0.10047582857E+02 -0.32768330699E+01  0.15485644142E+03  0.19934823075E+03  0.12509000000E+03 0.  0.
         25    1    4    4    0    0  0.30888904993E+02 -0.20784182330E+02  0.69872615470E+02  0.14803984997E+03  0.12509000000E+03 0.  0.
<mgrwt>
<rscale>  2 0.42187396E+03</rscale>
<asrwt>0</asrwt>
<pdfrwt beam="1">  1       21 0.51326569E-01 0.42187396E+03</pdfrwt>
<pdfrwt beam="2">  1       21 0.18747588E-01 0.42187396E+03</pdfrwt>
<totfact> 0.87890825E+04</totfact>
</mgrwt>
</event>
<event>
 7    0  0.4793433E-002  0.4532871E+03  0.7546771E-02  0.1026746E+00
         21   -1    0    0  502  501  0.00000000000E+00  0.00000000000E+00  0.57974050170E+02  0.57974050170E+02  0.00000000000E+00 0.  1.
         21   -1    0    0  501  502 -0.00000000000E+00 -0.00000000000E+00 -0.88603931288E+03  0.88603931288E+03  0.00000000000E+00 0.  1.
      99926    2    1    2    0    0 -0.35527136788E-14 -0.71054273576E-14 -0.82806526271E+03  0.94401336305E+03  0.45328705067E+03 0.  0.
      99925    2    3    3    0    0  0.27457577399E+02  0.35248660782E+02 -0.30901438951E+03  0.40823570048E+03  0.26300210565E+03 0.  0.
         25    1    4    4    0    0  0.21745460554E+01 -0.19406528554E+02 -0.12708973757E+03  0.17938966385E+03  0.12509000000E+03 0.  0.
         25    1    4    4    0    0  0.25283031344E+02  0.54655189336E+02 -0.18192465195E+03  0.22884603663E+03  0.12509000000E+03 0.  0.
         25    1    3    3    0    0 -0.27457577399E+02 -0.35248660782E+02 -0.51905087319E+03  0.53577766257E+03  0.12509000000E+03 0.  0.
<mgrwt>
<rscale>  2 0.45328705E+03</rscale>
<asrwt>0</asrwt>
<pdfrwt beam="1">  1       21 0.85255960E-02 0.45328705E+03</pdfrwt>
<pdfrwt beam="2">  1       21 0.13029989E+00 0.45328705E+03</pdfrwt>
<totfact> 0.41943219E+04</totfact>
</mgrwt>
</event>
<event>
 7    0  0.4793433E-002  0.4829967E+03  0.7546771E-02  0.1018315E+00
         21   -1    0    0  502  501  0.00000000000E+00  0.00000000000E+00  0.88187788842E+03  0.88187788842E+03  0.00000000000E+00 0.  1.
         21   -1    0    0  501  502 -0.00000000000E+00 -0.00000000000E+00 -0.66133252289E+02  0.66133252289E+02  0.00000000000E+00 0.  1.
      99926    2    1    2    0    0  0.00000000000E+00  0.00000000000E+00  0.81574463614E+03  0.94801114071E+03  0.48299669930E+03 0.  0.
      99925    2    3    3    0    0 -0.82320987407E+02 -0.93209904146E+02  0.38570100290E+03  0.48319949522E+03  0.26315709632E+03 0.  0.
         25    1    3    3    0    0  0.82320987407E+02  0.93209904146E+02  0.43004363324E+03  0.46481164550E+03  0.12509000000E+03 0.  0.
         25    1    4    4    0    0 -0.34630298499E+01 -0.26802052737E+02  0.19005040147E+03  0.22912225079E+03  0.12509000000E+03 0.  0.
         25    1    4    4    0    0 -0.78857957558E+02 -0.66407851409E+02  0.19565060142E+03  0.25407724443E+03  0.12509000000E+03 0.  0.
<mgrwt>
<rscale>  2 0.48299670E+03</rscale>
<asrwt>0</asrwt>
<pdfrwt beam="1">  1       21 0.12968792E+00 0.48299670E+03</pdfrwt>
<pdfrwt beam="2">  1       21 0.97254788E-02 0.48299670E+03</pdfrwt>
<totfact> 0.33304792E+04</totfact>
</mgrwt>
</event>
<event>
 7    0  0.4793433E-002  0.4590123E+03  0.7546771E-02  0.1025068E+00
         21   -1    0    0  502  501  0.00000000000E+00  0.00000000000E+00  0.23032993360E+03  0.23032993360E+03  0.00000000000E+00 0.  1.
         21   -1    0    0  501  502 -0.00000000000E+00 -0.00000000000E+00 -0.22868534236E+03  0.22868534236E+03  0.00000000000E+00 0.  1.
      99926    2    1    2    0    0  0.35527136788E-14  0.00000000000E+00  0.16445912472E+01  0.45901527596E+03  0.45901232977E+03 0.  0.
      99925    2    3    3    0    0 -0.31586917277E+02 -0.89206975344E+02 -0.67660037774E+02  0.28753274770E+03  0.26294787030E+03 0.  0.
         25    1    4    4    0    0 -0.21247518121E+02 -0.42632643485E+02  0.73834144766E+01  0.13405604136E+03  0.12509000000E+03 0.  0.
         25    1    3    3    0    0  0.31586917277E+02  0.89206975344E+02  0.69304629022E+02  0.17148252826E+03  0.12509000000E+03 0.  0.
         25    1    4    4    0    0 -0.10339399157E+02 -0.46574331859E+02 -0.75043452251E+02  0.15347670634E+03  0.12509000000E+03 0.  0.
<mgrwt>
<rscale>  2 0.45901233E+03</rscale>
<asrwt>0</asrwt>
<pdfrwt beam="1">  1       21 0.33872049E-01 0.45901233E+03</pdfrwt>
<pdfrwt beam="2">  1       21 0.33630197E-01 0.45901233E+03</pdfrwt>
<totfact> 0.66110662E+04</totfact>
</mgrwt>
</event>
<event>
 7    0  0.4793433E-002  0.4515268E+03  0.7546771E-02  0.1027268E+00
         21   -1    0    0  502  501  0.00000000000E+00  0.00000000000E+00  0.43037224689E+02  0.43037224689E+02  0.00000000000E+00 0.  1.
         21   -1    0    0  501  502 -0.00000000000E+00 -0.00000000000E+00 -0.11843027216E+04  0.11843027216E+04  0.00000000000E+00 0.  1.
      99926    2    1    2    0    0  0.14210854715E-13  0.00000000000E+00 -0.11412654969E+04  0.12273399463E+04  0.45152675372E+03 0.  0.
      99925    2    3    3    0    0 -0.68960441861E+02  0.51874614036E+02 -0.53594740705E+03  0.60323737769E+03  0.26307640068E+03 0.  0.
         25    1    4    4    0    0 -0.34178184762E+01 -0.93301373280E+00 -0.26818992959E+03  0.29594914838E+03  0.12509000000E+03 0.  0.
         25    1    3    3    0    0  0.68960441861E+02 -0.51874614036E+02 -0.60531808988E+03  0.62410256862E+03  0.12509000000E+03 0.  0.
         25    1    4    4    0    0 -0.65542623385E+02  0.52807627768E+02 -0.26775747746E+03  0.30728822930E+03  0.12509000000E+03 0.  0.
<mgrwt>
<rscale>  2 0.45152675E+03</rscale>
<asrwt>0</asrwt>
<pdfrwt beam="1">  1       21 0.63290031E-02 0.45152675E+03</pdfrwt>
<pdfrwt beam="2">  1       21 0.17416218E+00 0.45152675E+03</pdfrwt>
<totfact> 0.32161003E+04</totfact>
</mgrwt>
</event>
<event>
 7    0  0.4793433E-002  0.4602154E+03  0.7546771E-02  0.1024719E+00
         21   -1    0    0  502  501  0.00000000000E+00  0.00000000000E+00  0.56723604946E+02  0.56723604946E+02  0.00000000000E+00 0.  1.
         21   -1    0    0  501  502 -0.00000000000E+00 -0.00000000000E+00 -0.93346604686E+03  0.93346604686E+03  0.00000000000E+00 0.  1.
      99926    2    1    2    0    0  0.14210854715E-13  0.00000000000E+00 -0.87674244191E+03  0.99018965180E+03  0.46021542465E+03 0.  0.
      99925    2    3    3    0    0  0.61227625339E+02 -0.22984361346E+02 -0.33783643034E+03  0.43310411046E+03  0.26299926589E+03 0.  0.
         25    1    4    4    0    0  0.72000787396E+02 -0.12189586371E+02 -0.17353394619E+03  0.22604034591E+03  0.12509000000E+03 0.  0.
         25    1    3    3    0    0 -0.61227625339E+02  0.22984361346E+02 -0.53890601157E+03  0.55708554135E+03  0.12509000000E+03 0.  0.
         25    1    4    4    0    0 -0.10773162057E+02 -0.10794774975E+02 -0.16430248415E+03  0.20706376454E+03  0.12509000000E+03 0.  0.
<mgrwt>
<rscale>  2 0.46021542E+03</rscale>
<asrwt>0</asrwt>
<pdfrwt beam="1">  1       21 0.83417074E-02 0.46021542E+03</pdfrwt>
<pdfrwt beam="2">  1       21 0.13727441E+00 0.46021542E+03</pdfrwt>
<totfact> 0.37979562E+04</totfact>
</mgrwt>
</event>
<event>
 7    0  0.4793433E-002  0.4405869E+03  0.7546771E-02  0.1030567E+00
         21   -1    0    0  502  501  0.00000000000E+00  0.00000000000E+00  0.10210230483E+03  0.10210230483E+03  0.00000000000E+00 0.  1.
         21   -1    0    0  501  502 -0.00000000000E+00 -0.00000000000E+00 -0.47529988910E+03  0.47529988910E+03  0.00000000000E+00 0.  1.
      99926    2    1    2    0    0 -0.59952043330E-14  0.00000000000E+00 -0.37319758427E+03  0.57740219393E+03  0.44058694561E+03 0.  0.
      99925    2    3    3    0    0 -0.12596442811E+01  0.90524544721E+02 -0.18545680830E+03  0.33431705048E+03  0.26301593601E+03 0.  0.
         25    1    4    4    0    0  0.34548492031E+02  0.45904210191E+02 -0.68457464554E+02  0.15373590136E+03  0.12509000000E+03 0.  0.
         25    1    3    3    0    0  0.12596442811E+01 -0.90524544721E+02 -0.18774077597E+03  0.24308514344E+03  0.12509000000E+03 0.  0.
         25    1    4    4    0    0 -0.35808136313E+02  0.44620334530E+02 -0.11699934375E+03  0.18058114912E+03  0.12509000000E+03 0.  0.
<mgrwt>
<rscale>  2 0.44058695E+03</rscale>
<asrwt>0</asrwt>
<pdfrwt beam="1">  1       21 0.15015045E-01 0.44058695E+03</pdfrwt>
<pdfrwt beam="2">  1       21 0.69897042E-01 0.44058695E+03</pdfrwt>
<totfact> 0.67455302E+04</totfact>
</mgrwt>
</event>
<event>
 7    0  0.4793433E-002  0.4527790E+03  0.7546771E-02  0.1026897E+00
         21   -1    0    0  502  501  0.00000000000E+00  0.00000000000E+00  0.15620792741E+03  0.15620792741E+03  0.00000000000E+00 0. -1.
         21   -1    0    0  501  502 -0.00000000000E+00 -0.00000000000E+00 -0.32810241651E+03  0.32810241651E+03  0.00000000000E+00 0. -1.
      99926    2    1    2    0    0  0.00000000000E+00  0.00000000000E+00 -0.17189448910E+03  0.48431034392E+03  0.45277896798E+03 0.  0.
      99925    2    3    3    0    0  0.38900313190E+02 -0.78988777793E+02 -0.35950575859E+02  0.27966255617E+03  0.26299475287E+03 0.  0.
         25    1    3    3    0    0 -0.38900313190E+02  0.78988777793E+02 -0.13594391324E+03  0.20464778775E+03  0.12509000000E+03 0.  0.
         25    1    4    4    0    0 -0.50132663956E+01 -0.66310867665E+02 -0.37227327646E+02  0.14647745913E+03  0.12509000000E+03 0.  0.
         25    1    4    4    0    0  0.43913579586E+02 -0.12677910128E+02  0.12767517871E+01  0.13318509704E+03  0.12509000000E+03 0.  0.
<mgrwt>
<rscale>  2 0.45277897E+03</rscale>
<asrwt>0</asrwt>
<pdfrwt beam="1">  1       21 0.22971754E-01 0.45277897E+03</pdfrwt>
<pdfrwt beam="2">  1       21 0.48250355E-01 0.45277897E+03</pdfrwt>
<totfact> 0.67571202E+04</totfact>
</mgrwt>
</event>
<event>
 7    0  0.4793433E-002  0.4573332E+03  0.7546771E-02  0.1025558E+00
         21   -1    0    0  502  501  0.00000000000E+00  0.00000000000E+00  0.14590139822E+03  0.14590139822E+03  0.00000000000E+00 0. -1.
         21   -1    0    0  501  502 -0.00000000000E+00 -0.00000000000E+00 -0.35838177954E+03  0.35838177954E+03  0.00000000000E+00 0. -1.
      99926    2    1    2    0    0  0.00000000000E+00  0.71054273576E-14 -0.21248038131E+03  0.50428317776E+03  0.45733315092E+03 0.  0.
      99925    2    3    3    0    0 -0.10676152649E+03 -0.39932759341E+02 -0.15299247898E+03  0.32489820784E+03  0.26298193480E+03 0.  0.
         25    1    3    3    0    0  0.10676152649E+03  0.39932759341E+02 -0.59487902339E+02  0.17938496992E+03  0.12509000000E+03 0.  0.
         25    1    4    4    0    0 -0.28958481648E+02  0.14965697884E+02 -0.63891341993E+02  0.14419492867E+03  0.12509000000E+03 0.  0.
         25    1    4    4    0    0 -0.77803044843E+02 -0.54898457225E+02 -0.89101136983E+02  0.18070327917E+03  0.12509000000E+03 0.  0.
<mgrwt>
<rscale>  2 0.45733315E+03</rscale>
<asrwt>0</asrwt>
<pdfrwt beam="1">  1       21 0.21456088E-01 0.45733315E+03</pdfrwt>
<pdfrwt beam="2">  1       21 0.52703203E-01 0.45733315E+03</pdfrwt>
<totfact> 0.63781371E+04</totfact>
</mgrwt>
</event>
<event>
 7    0  0.4793433E-002  0.4526348E+03  0.7546771E-02  0.1026939E+00
         21   -1    0    0  502  501  0.00000000000E+00  0.00000000000E+00  0.23007146210E+03  0.23007146210E+03  0.00000000000E+00 0.  1.
         21   -1    0    0  501  502 -0.00000000000E+00 -0.00000000000E+00 -0.22262462034E+03  0.22262462034E+03  0.00000000000E+00 0.  1.
      99926    2    1    2    0    0  0.00000000000E+00  0.00000000000E+00  0.74468417641E+01  0.45269608244E+03  0.45263482810E+03 0.  0.
      99925    2    3    3    0    0  0.82625635109E+02  0.12701284090E+02 -0.68228061967E+02  0.28428433300E+03  0.26300987692E+03 0.  0.
         25    1    3    3    0    0 -0.82625635109E+02 -0.12701284090E+02  0.75674903731E+02  0.16841174944E+03  0.12509000000E+03 0.  0.
         25    1    4    4    0    0  0.31791398322E+02  0.44326454062E+02 -0.22821757011E+02  0.13836136827E+03  0.12509000000E+03 0.  0.
         25    1    4    4    0    0  0.50834236788E+02 -0.31625169972E+02 -0.45406304955E+02  0.14592296473E+03  0.12509000000E+03 0.  0.
<mgrwt>
<rscale>  2 0.45263483E+03</rscale>
<asrwt>0</asrwt>
<pdfrwt beam="1">  1       21 0.33834038E-01 0.45263483E+03</pdfrwt>
<pdfrwt beam="2">  1       21 0.32738915E-01 0.45263483E+03</pdfrwt>
<totfact> 0.70027129E+04</totfact>
</mgrwt>
</event>
<event>
 7    0  0.4793433E-002  0.4542865E+03  0.7546771E-02  0.1026451E+00
         21   -1    0    0  502  501  0.00000000000E+00  0.00000000000E+00  0.26439261907E+03  0.26439261907E+03  0.00000000000E+00 0. -1.
         21   -1    0    0  501  502 -0.00000000000E+00 -0.00000000000E+00 -0.19514185114E+03  0.19514185114E+03  0.00000000000E+00 0. -1.
      99926    2    1    2    0    0  0.00000000000E+00  0.00000000000E+00  0.69250767924E+02  0.45953447021E+03  0.45428654003E+03 0.  0.
      99925    2    3    3    0    0 -0.65014915838E+02 -0.66527183428E+02 -0.20507947036E+02  0.27965411990E+03  0.26293163649E+03 0.  0.
         25    1    4    4    0    0 -0.13110717445E+02 -0.54454367780E+02 -0.38843805467E+02  0.14245532073E+03  0.12509000000E+03 0.  0.
         25    1    4    4    0    0 -0.51904198393E+02 -0.12072815648E+02  0.18335858432E+02  0.13719879917E+03  0.12509000000E+03 0.  0.
         25    1    3    3    0    0  0.65014915838E+02  0.66527183428E+02  0.89758714960E+02  0.17988035031E+03  0.12509000000E+03 0.  0.
<mgrwt>
<rscale>  2 0.45428654E+03</rscale>
<asrwt>0</asrwt>
<pdfrwt beam="1">  1       21 0.38881267E-01 0.45428654E+03</pdfrwt>
<pdfrwt beam="2">  1       21 0.28697331E-01 0.45428654E+03</pdfrwt>
<totfact> 0.68604000E+04</totfact>
</mgrwt>
</event>
<event>
 7    0  0.4793433E-002  0.4558971E+03  0.7546771E-02  0.1025978E+00
         21   -1    0    0  502  501  0.00000000000E+00  0.00000000000E+00  0.44840598171E+03  0.44840598171E+03  0.00000000000E+00 0. -1.
         21   -1    0    0  501  502 -0.00000000000E+00 -0.00000000000E+00 -0.11587832458E+03  0.11587832458E+03  0.00000000000E+00 0. -1.
      99926    2    1    2    0    0  0.00000000000E+00  0.35527136788E-14  0.33252765713E+03  0.56428430629E+03  0.45589706686E+03 0.  0.
      99925    2    3    3    0    0  0.57691399586E+02  0.14853608370E+02  0.88794418053E+02  0.28392324052E+03  0.26301906882E+03 0.  0.
         25    1    4    4    0    0  0.41058568708E+02  0.45108401541E+02  0.35403705925E+02  0.14360189570E+03  0.12509000000E+03 0.  0.
         25    1    3    3    0    0 -0.57691399586E+02 -0.14853608370E+02  0.24373323908E+03  0.28036106577E+03  0.12509000000E+03 0.  0.
         25    1    4    4    0    0  0.16632830878E+02 -0.30254793172E+02  0.53390712128E+02  0.14032134483E+03  0.12509000000E+03 0.  0.
<mgrwt>
<rscale>  2 0.45589707E+03</rscale>
<asrwt>0</asrwt>
<pdfrwt beam="1">  1       21 0.65942056E-01 0.45589707E+03</pdfrwt>
<pdfrwt beam="2">  1       21 0.17040930E-01 0.45589707E+03</pdfrwt>
<totfact> 0.60501946E+04</totfact>
</mgrwt>
</event>
<event>
 7    0  0.4793433E-002  0.4606888E+03  0.7546771E-02  0.1024582E+00
         21   -1    0    0  502  501  0.00000000000E+00  0.00000000000E+00  0.21791093574E+03  0.21791093574E+03  0.00000000000E+00 0. -1.
         21   -1    0    0  501  502 -0.00000000000E+00 -0.00000000000E+00 -0.24348729100E+03  0.24348729100E+03  0.00000000000E+00 0. -1.
      99926    2    1    2    0    0  0.00000000000E+00  0.00000000000E+00 -0.25576355258E+02  0.46139822675E+03  0.46068880353E+03 0.  0.
      99925    2    3    3    0    0  0.57793619790E+02  0.89854708910E+02  0.35340099664E+02  0.28597789217E+03  0.26290770427E+03 0.  0.
         25    1    4    4    0    0  0.81116112023E+01  0.67369860164E+02 -0.87323388564E+01  0.14257720062E+03  0.12509000000E+03 0.  0.
         25    1    4    4    0    0  0.49682008588E+02  0.22484848746E+02  0.44072438520E+02  0.14340069155E+03  0.12509000000E+03 0.  0.
         25    1    3    3    0    0 -0.57793619790E+02 -0.89854708910E+02 -0.60916454922E+02  0.17542033457E+03  0.12509000000E+03 0.  0.
<mgrwt>
<rscale>  2 0.46068880E+03</rscale>
<asrwt>0</asrwt>
<pdfrwt beam="1">  1       21 0.32045726E-01 0.46068880E+03</pdfrwt>
<pdfrwt beam="2">  1       21 0.35806955E-01 0.46068880E+03</pdfrwt>
<totfact> 0.65075302E+04</totfact>
</mgrwt>
</event>
<event>
 7    0  0.4793433E-002  0.4581720E+03  0.7546771E-02  0.1025313E+00
         21   -1    0    0  502  501  0.00000000000E+00  0.00000000000E+00  0.58823892747E+03  0.58823892747E+03  0.00000000000E+00 0.  1.
         21   -1    0    0  501  502 -0.00000000000E+00 -0.00000000000E+00 -0.89216107697E+02  0.89216107697E+02  0.00000000000E+00 0.  1.
      99926    2    1    2    0    0  0.00000000000E+00  0.00000000000E+00  0.49902281977E+03  0.67745503517E+03  0.45817196555E+03 0.  0.
      99925    2    3    3    0    0 -0.16819675224E+02  0.47391198683E+02  0.46794392821E+03  0.53909957706E+03  0.26292205471E+03 0.  0.
         25    1    4    4    0    0 -0.14472727540E+02  0.27019208313E+00  0.29305433213E+03  0.31896376366E+03  0.12509000000E+03 0.  0.
         25    1    4    4    0    0 -0.23469476842E+01  0.47121006600E+02  0.17488959608E+03  0.22013581340E+03  0.12509000000E+03 0.  0.
         25    1    3    3    0    0  0.16819675224E+02 -0.47391198683E+02  0.31078891568E+02  0.13835545811E+03  0.12509000000E+03 0.  0.
<mgrwt>
<rscale>  2 0.45817197E+03</rscale>
<asrwt>0</asrwt>
<pdfrwt beam="1">  1       21 0.86505723E-01 0.45817197E+03</pdfrwt>
<pdfrwt beam="2">  1       21 0.13120016E-01 0.45817197E+03</pdfrwt>
<totfact> 0.52812067E+04</totfact>
</mgrwt>
</event>
<event>
 7    0  0.4793433E-002  0.4530719E+03  0.7546771E-02  0.1026810E+00
         21   -1    0    0  502  501  0.00000000000E+00  0.00000000000E+00  0.80168314257E+02  0.80168314257E+02  0.00000000000E+00 0. -1.
         21   -1    0    0  501  502 -0.00000000000E+00 -0.00000000000E+00 -0.64013491706E+03  0.64013491706E+03  0.00000000000E+00 0. -1.
      99926    2    1    2    0    0  0.00000000000E+00  0.00000000000E+00 -0.55996660280E+03  0.72030323131E+03  0.45307190245E+03 0.  0.
      99925    2    3    3    0    0 -0.10783396840E+03  0.25549487361E+02 -0.33657709085E+03  0.44132057380E+03  0.26305659035E+03 0.  0.
         25    1    4    4    0    0 -0.37573275482E+02  0.48462688298E+02 -0.18173366134E+03  0.22898693184E+03  0.12509000000E+03 0.  0.
         25    1    3    3    0    0  0.10783396840E+03 -0.25549487361E+02 -0.22338951195E+03  0.27898265751E+03  0.12509000000E+03 0.  0.
         25    1    4    4    0    0 -0.70260692918E+02 -0.22913200937E+02 -0.15484342951E+03  0.21233364196E+03  0.12509000000E+03 0.  0.
<mgrwt>
<rscale>  2 0.45307190E+03</rscale>
<asrwt>0</asrwt>
<pdfrwt beam="1">  1       21 0.11789458E-01 0.45307190E+03</pdfrwt>
<pdfrwt beam="2">  1       21 0.94137488E-01 0.45307190E+03</pdfrwt>
<totfact> 0.52607780E+04</totfact>
</mgrwt>
</event>
<event>
 7    0  0.4793433E-002  0.4552991E+03  0.7546771E-02  0.1026153E+00
         21   -1    0    0  502  501  0.00000000000E+00  0.00000000000E+00  0.58436230877E+02  0.58436230877E+02  0.00000000000E+00 0.  1.
         21   -1    0    0  501  502 -0.00000000000E+00 -0.00000000000E+00 -0.88685263620E+03  0.88685263620E+03  0.00000000000E+00 0.  1.
      99926    2    1    2    0    0  0.00000000000E+00  0.17763568394E-14 -0.82841640532E+03  0.94528886707E+03  0.45529913421E+03 0.  0.
      99925    2    3    3    0    0 -0.10218323068E+03  0.14710830537E+02 -0.42361134120E+03  0.50920118185E+03  0.26302367581E+03 0.  0.
         25    1    4    4    0    0 -0.68882817700E+02 -0.19333880476E+02 -0.26511684294E+03  0.30175004560E+03  0.12509000000E+03 0.  0.
         25    1    4    4    0    0 -0.33300412984E+02  0.34044711013E+02 -0.15849449826E+03  0.20745113625E+03  0.12509000000E+03 0.  0.
         25    1    3    3    0    0  0.10218323068E+03 -0.14710830537E+02 -0.40480506412E+03  0.43608768523E+03  0.12509000000E+03 0.  0.
<mgrwt>
<rscale>  2 0.45529913E+03</rscale>
<asrwt>0</asrwt>
<pdfrwt beam="1">  1       21 0.85935635E-02 0.45529913E+03</pdfrwt>
<pdfrwt beam="2">  1       21 0.13041950E+00 0.45529913E+03</pdfrwt>
<totfact> 0.41235611E+04</totfact>
</mgrwt>
</event>
<event>
 7    0  0.4793433E-002  0.4551793E+03  0.7546771E-02  0.1026189E+00
         21   -1    0    0  502  501  0.00000000000E+00  0.00000000000E+00  0.30919243256E+03  0.30919243256E+03  0.00000000000E+00 0. -1.
         21   -1    0    0  501  502 -0.00000000000E+00 -0.00000000000E+00 -0.16752368573E+03  0.16752368573E+03  0.00000000000E+00 0. -1.
      99926    2    1    2    0    0  0.00000000000E+00  0.00000000000E+00  0.14166874683E+03  0.47671611830E+03  0.45517933127E+03 0.  0.
      99925    2    3    3    0    0  0.92282609454E+02  0.65743597321E+02  0.92721072331E+02  0.30098426707E+03  0.26297534328E+03 0.  0.
         25    1    4    4    0    0  0.31911436974E+02 -0.74852101372E+01  0.40319101295E+02  0.13545296678E+03  0.12509000000E+03 0.  0.
         25    1    4    4    0    0  0.60371172480E+02  0.73228807458E+02  0.52401971036E+02  0.16553130029E+03  0.12509000000E+03 0.  0.
         25    1    3    3    0    0 -0.92282609454E+02 -0.65743597321E+02  0.48947674499E+02  0.17573185123E+03  0.12509000000E+03 0.  0.
<mgrwt>
<rscale>  2 0.45517933E+03</rscale>
<asrwt>0</asrwt>
<pdfrwt beam="1">  1       21 0.45469475E-01 0.45517933E+03</pdfrwt>
<pdfrwt beam="2">  1       21 0.24635836E-01 0.45517933E+03</pdfrwt>
<totfact> 0.66844739E+04</totfact>
</mgrwt>
</event>
<event>
 7    0  0.4793433E-002  0.4491607E+03  0.7546771E-02  0.1027973E+00
         21   -1    0    0  502  501  0.00000000000E+00  0.00000000000E+00  0.15710716488E+04  0.15710716488E+04  0.00000000000E+00 0. -1.
         21   -1    0    0  501  502 -0.00000000000E+00 -0.00000000000E+00 -0.32103140023E+02  0.32103140023E+02  0.00000000000E+00 0. -1.
      99926    2    1    2    0    0  0.00000000000E+00  0.00000000000E+00  0.15389685088E+04  0.16031747888E+04  0.44916069787E+03 0.  0.
      99925    2    3    3    0    0 -0.73800036514E+02 -0.77253441970E+02  0.10142876624E+04  0.10533093158E+04  0.26318532088E+03 0.  0.
         25    1    4    4    0    0 -0.63863329156E+02 -0.87272151424E+01  0.47706111740E+03  0.49738265644E+03  0.12509000000E+03 0.  0.
         25    1    4    4    0    0 -0.99367073579E+01 -0.68526226828E+02  0.53722654496E+03  0.55592665940E+03  0.12509000000E+03 0.  0.
         25    1    3    3    0    0  0.73800036514E+02  0.77253441970E+02  0.52468084642E+03  0.54986547299E+03  0.12509000000E+03 0.  0.
<mgrwt>
<rscale>  2 0.44916070E+03</rscale>
<asrwt>0</asrwt>
<pdfrwt beam="1">  1       21 0.23103990E+00 0.44916070E+03</pdfrwt>
<pdfrwt beam="2">  1       21 0.47210510E-02 0.44916070E+03</pdfrwt>
<totfact> 0.22354707E+04</totfact>
</mgrwt>
</event>
<event>
 7    0  0.4793433E-002  0.4565800E+03  0.7546771E-02  0.1025778E+00
         21   -1    0    0  502  501  0.00000000000E+00  0.00000000000E+00  0.53099083276E+03  0.53099083276E+03  0.00000000000E+00 0. -1.
         21   -1    0    0  501  502 -0.00000000000E+00 -0.00000000000E+00 -0.98149217067E+02  0.98149217067E+02  0.00000000000E+00 0. -1.
      99926    2    1    2    0    0  0.35527136788E-14  0.00000000000E+00  0.43284161569E+03  0.62914004983E+03  0.45658004558E+03 0.  0.
      99925    2    3    3    0    0 -0.21151667203E+02  0.81246685670E+02  0.16426514263E+03  0.32119647230E+03  0.26293672200E+03 0.  0.
         25    1    4    4    0    0 -0.21396591043E+02  0.81585619512E+02  0.92987213196E+02  0.17722346723E+03  0.12509000000E+03 0.  0.
         25    1    3    3    0    0  0.21151667203E+02 -0.81246685670E+02  0.26857647306E+03  0.30794357753E+03  0.12509000000E+03 0.  0.
         25    1    4    4    0    0  0.24492383966E+00 -0.33893384241E+00  0.71277929436E+02  0.14397300507E+03  0.12509000000E+03 0.  0.
<mgrwt>
<rscale>  2 0.45658005E+03</rscale>
<asrwt>0</asrwt>
<pdfrwt beam="1">  1       21 0.78086886E-01 0.45658005E+03</pdfrwt>
<pdfrwt beam="2">  1       21 0.14433709E-01 0.45658005E+03</pdfrwt>
<totfact> 0.56215049E+04</totfact>
</mgrwt>
</event>
<event>
 7    0  0.4793433E-002  0.4529335E+03  0.7546771E-02  0.1026851E+00
         21   -1    0    0  502  501  0.00000000000E+00  0.00000000000E+00  0.12759433589E+04  0.12759433589E+04  0.00000000000E+00 0. -1.
         21   -1    0    0  501  502 -0.00000000000E+00 -0.00000000000E+00 -0.40195503869E+02  0.40195503869E+02  0.00000000000E+00 0. -1.
      99926    2    1    2    0    0  0.00000000000E+00  0.00000000000E+00  0.12357478550E+04  0.13161388627E+04  0.45293348835E+03 0.  0.
      99925    2    3    3    0    0  0.69918842703E+02 -0.38621203944E+02  0.55394359223E+03  0.61836755150E+03  0.26295376668E+03 0.  0.
         25    1    3    3    0    0 -0.69918842703E+02  0.38621203944E+02  0.68180426277E+03  0.69777131124E+03  0.12509000000E+03 0.  0.
         25    1    4    4    0    0  0.71353103597E+02 -0.28558513918E+02  0.25675743934E+03  0.29576805924E+03  0.12509000000E+03 0.  0.
         25    1    4    4    0    0 -0.14342608938E+01 -0.10062690025E+02  0.29718615290E+03  0.32259949227E+03  0.12509000000E+03 0.  0.
<mgrwt>
<rscale>  2 0.45293349E+03</rscale>
<asrwt>0</asrwt>
<pdfrwt beam="1">  1       21 0.18763870E+00 0.45293349E+03</pdfrwt>
<pdfrwt beam="2">  1       21 0.59111043E-02 0.45293349E+03</pdfrwt>
<totfact> 0.29114632E+04</totfact>
</mgrwt>
</event>
<event>
 7    0  0.4793433E-002  0.4508284E+03  0.7546771E-02  0.1027475E+00
         21   -1    0    0  502  501  0.00000000000E+00  0.00000000000E+00  0.96552169481E+03  0.96552169481E+03  0.00000000000E+00 0. -1.
         21   -1    0    0  501  502 -0.00000000000E+00 -0.00000000000E+00 -0.52626009283E+02  0.52626009283E+02  0.00000000000E+00 0. -1.
      99926    2    1    2    0    0  0.00000000000E+00 -0.71054273576E-14  0.91289568553E+03  0.10181477041E+04  0.45082836501E+03 0.  0.
      99925    2    3    3    0    0  0.92933547540E+02  0.54811298007E+02  0.61609273077E+03  0.67847076242E+03  0.26289047132E+03 0.  0.
         25    1    4    4    0    0  0.70816245644E+02  0.48262391548E+02  0.39924864653E+03  0.42707281457E+03  0.12509000000E+03 0.  0.
         25    1    4    4    0    0  0.22117301896E+02  0.65489064590E+01  0.21684408424E+03  0.25139794786E+03  0.12509000000E+03 0.  0.
         25    1    3    3    0    0 -0.92933547540E+02 -0.54811298007E+02  0.29680295476E+03  0.33967694167E+03  0.12509000000E+03 0.  0.
<mgrwt>
<rscale>  2 0.45082837E+03</rscale>
<asrwt>0</asrwt>
<pdfrwt beam="1">  1       21 0.14198847E+00 0.45082837E+03</pdfrwt>
<pdfrwt beam="2">  1       21 0.77391196E-02 0.45082837E+03</pdfrwt>
<totfact> 0.39747202E+04</totfact>
</mgrwt>
</event>
<event>
 7    0  0.4793433E-002  0.4577491E+03  0.7546771E-02  0.1025436E+00
         21   -1    0    0  502  501  0.00000000000E+00  0.00000000000E+00  0.16462286340E+03  0.16462286340E+03  0.00000000000E+00 0.  1.
         21   -1    0    0  501  502 -0.00000000000E+00 -0.00000000000E+00 -0.31820349663E+03  0.31820349663E+03  0.00000000000E+00 0.  1.
      99926    2    1    2    0    0  0.00000000000E+00  0.00000000000E+00 -0.15358063323E+03  0.48282636004E+03  0.45774914860E+03 0.  0.
      99925    2    3    3    0    0  0.76636016854E+02  0.48832578728E+02 -0.20758531154E+02  0.27899574721E+03  0.26296389586E+03 0.  0.
         25    1    3    3    0    0 -0.76636016854E+02 -0.48832578728E+02 -0.13282210207E+03  0.20383061282E+03  0.12509000000E+03 0.  0.
         25    1    4    4    0    0  0.60943169712E+02  0.27916008439E+02 -0.45083550651E+02  0.14890738095E+03  0.12509000000E+03 0.  0.
         25    1    4    4    0    0  0.15692847142E+02  0.20916570288E+02  0.24325019497E+02  0.13008836627E+03  0.12509000000E+03 0.  0.
<mgrwt>
<rscale>  2 0.45774915E+03</rscale>
<asrwt>0</asrwt>
<pdfrwt beam="1">  1       21 0.24209245E-01 0.45774915E+03</pdfrwt>
<pdfrwt beam="2">  1       21 0.46794631E-01 0.45774915E+03</pdfrwt>
<totfact> 0.65063482E+04</totfact>
</mgrwt>
</event>
<event>
 7    0  0.4793433E-002  0.4514605E+03  0.7546771E-02  0.1027287E+00
         21   -1    0    0  502  501  0.00000000000E+00  0.00000000000E+00  0.21861893708E+03  0.21861893708E+03  0.00000000000E+00 0.  1.
         21   -1    0    0  501  502 -0.00000000000E+00 -0.00000000000E+00 -0.23307293357E+03  0.23307293357E+03  0.00000000000E+00 0.  1.
      99926    2    1    2    0    0  0.00000000000E+00  0.00000000000E+00 -0.14453996483E+02  0.45169187065E+03  0.45146054977E+03 0.  0.
      99925    2    3    3    0    0 -0.12240555370E+02 -0.94386842420E+02  0.45420902805E+02  0.28349193342E+03  0.26314617741E+03 0.  0.
         25    1    3    3    0    0  0.12240555370E+02  0.94386842420E+02 -0.59874899288E+02  0.16819993723E+03  0.12509000000E+03 0.  0.
         25    1    4    4    0    0 -0.32087533802E+02 -0.14628395783E+02  0.26295513522E+02  0.13259925309E+03  0.12509000000E+03 0.  0.
         25    1    4    4    0    0  0.19846978432E+02 -0.79758446637E+02  0.19125389283E+02  0.15089268033E+03  0.12509000000E+03 0.  0.
<mgrwt>
<rscale>  2 0.45146055E+03</rscale>
<asrwt>0</asrwt>
<pdfrwt beam="1">  1       21 0.32149844E-01 0.45146055E+03</pdfrwt>
<pdfrwt beam="2">  1       21 0.34275431E-01 0.45146055E+03</pdfrwt>
<totfact> 0.70766332E+04</totfact>
</mgrwt>
</event>
<event>
 7    0  0.4793433E-002  0.4542507E+03  0.7546771E-02  0.1026462E+00
         21   -1    0    0  502  501  0.00000000000E+00  0.00000000000E+00  0.30160130140E+03  0.30160130140E+03  0.00000000000E+00 0.  1.
         21   -1    0    0  501  502 -0.00000000000E+00 -0.00000000000E+00 -0.17104012518E+03  0.17104012518E+03  0.00000000000E+00 0.  1.
      99926    2    1    2    0    0  0.00000000000E+00  0.00000000000E+00  0.13056117621E+03  0.47264142658E+03  0.45425069883E+03 0.  0.
      99925    2    3    3    0    0 -0.10894882566E+03  0.26043194849E+02  0.92262176664E+02  0.30041362372E+03  0.26303600792E+03 0.  0.
         25    1    4    4    0    0 -0.15682305125E+02  0.20154983368E+02  0.23568060060E+02  0.12982726834E+03  0.12509000000E+03 0.  0.
         25    1    3    3    0    0  0.10894882566E+03 -0.26043194849E+02  0.38298999549E+02  0.17222780286E+03  0.12509000000E+03 0.  0.
         25    1    4    4    0    0 -0.93266520535E+02  0.58882114805E+01  0.68694116605E+02  0.17058635538E+03  0.12509000000E+03 0.  0.
<mgrwt>
<rscale>  2 0.45425070E+03</rscale>
<asrwt>0</asrwt>
<pdfrwt beam="1">  1       21 0.44353133E-01 0.45425070E+03</pdfrwt>
<pdfrwt beam="2">  1       21 0.25152959E-01 0.45425070E+03</pdfrwt>
<totfact> 0.67641094E+04</totfact>
</mgrwt>
</event>
<event>
 7    0  0.4793433E-002  0.4649560E+03  0.7546771E-02  0.1023354E+00
         21   -1    0    0  502  501  0.00000000000E+00  0.00000000000E+00  0.18158952321E+03  0.18158952321E+03  0.00000000000E+00 0.  1.
         21   -1    0    0  501  502 -0.00000000000E+00 -0.00000000000E+00 -0.29762740693E+03  0.29762740693E+03  0.00000000000E+00 0.  1.
      99926    2    1    2    0    0 -0.14210854715E-13  0.35527136788E-14 -0.11603788372E+03  0.47921693014E+03  0.46495599327E+03 0.  0.
      99925    2    3    3    0    0 -0.85305696732E+02  0.17054715690E+02  0.16160327168E+02  0.27749484339E+03  0.26301008861E+03 0.  0.
         25    1    3    3    0    0  0.85305696732E+02 -0.17054715690E+02 -0.13219821089E+03  0.20172208675E+03  0.12509000000E+03 0.  0.
         25    1    4    4    0    0 -0.82091532153E+02 -0.40163059752E+01  0.81520344580E+00  0.14967739650E+03  0.12509000000E+03 0.  0.
         25    1    4    4    0    0 -0.32141645790E+01  0.21071021665E+02  0.15345123722E+02  0.12781744689E+03  0.12509000000E+03 0.  0.
<mgrwt>
<rscale>  2 0.46495599E+03</rscale>
<asrwt>0</asrwt>
<pdfrwt beam="1">  1       21 0.26704342E-01 0.46495599E+03</pdfrwt>
<pdfrwt beam="2">  1       21 0.43768736E-01 0.46495599E+03</pdfrwt>
<totfact> 0.61734093E+04</totfact>
</mgrwt>
</event>
<event>
 7    0  0.4793433E-002  0.4630947E+03  0.7546771E-02  0.1023887E+00
         21   -1    0    0  502  501  0.00000000000E+00  0.00000000000E+00  0.61319745512E+02  0.61319745512E+02  0.00000000000E+00 0. -1.
         21   -1    0    0  501  502 -0.00000000000E+00 -0.00000000000E+00 -0.87433775495E+03  0.87433775495E+03  0.00000000000E+00 0. -1.
      99926    2    1    2    0    0 -0.71054273576E-14 -0.35527136788E-14 -0.81301800944E+03  0.93565750046E+03  0.46309467121E+03 0.  0.
      99925    2    3    3    0    0 -0.61893909184E+02 -0.14125258820E+02 -0.30120192953E+03  0.40496588880E+03  0.26314328760E+03 0.  0.
         25    1    3    3    0    0  0.61893909184E+02  0.14125258820E+02 -0.51181607991E+03  0.53069161166E+03  0.12509000000E+03 0.  0.
         25    1    4    4    0    0 -0.53932349673E+02 -0.36004757641E+02 -0.13040666689E+03  0.19198554056E+03  0.12509000000E+03 0.  0.
         25    1    4    4    0    0 -0.79615595111E+01  0.21879498821E+02 -0.17079526264E+03  0.21298034824E+03  0.12509000000E+03 0.  0.
<mgrwt>
<rscale>  2 0.46309467E+03</rscale>
<asrwt>0</asrwt>
<pdfrwt beam="1">  1       21 0.90176101E-02 0.46309467E+03</pdfrwt>
<pdfrwt beam="2">  1       21 0.12857907E+00 0.46309467E+03</pdfrwt>
<totfact> 0.39186196E+04</totfact>
</mgrwt>
</event>
<event>
 7    0  0.4793433E-002  0.4544116E+03  0.7546771E-02  0.1026415E+00
         21   -1    0    0  502  501  0.00000000000E+00  0.00000000000E+00  0.48811769835E+02  0.48811769835E+02  0.00000000000E+00 0. -1.
         21   -1    0    0  501  502 -0.00000000000E+00 -0.00000000000E+00 -0.10575827540E+04  0.10575827540E+04  0.00000000000E+00 0. -1.
      99926    2    1    2    0    0  0.35527136788E-14 -0.14210854715E-13 -0.10087709842E+04  0.11063945239E+04  0.45441164585E+03 0.  0.
      99925    2    3    3    0    0 -0.24382536463E+02  0.10001017791E+03 -0.52466868997E+03  0.59590546116E+03  0.26311507109E+03 0.  0.
         25    1    4    4    0    0  0.19835604265E+01  0.11641260514E+02 -0.26513876814E+03  0.29340335365E+03  0.12509000000E+03 0.  0.
         25    1    3    3    0    0  0.24382536463E+02 -0.10001017791E+03 -0.48410229422E+03  0.51048906270E+03  0.12509000000E+03 0.  0.
         25    1    4    4    0    0 -0.26366096890E+02  0.88368917392E+02 -0.25952992182E+03  0.30250210751E+03  0.12509000000E+03 0.  0.
<mgrwt>
<rscale>  2 0.45441165E+03</rscale>
<asrwt>0</asrwt>
<pdfrwt beam="1">  1       21 0.71782025E-02 0.45441165E+03</pdfrwt>
<pdfrwt beam="2">  1       21 0.15552685E+00 0.45441165E+03</pdfrwt>
<totfact> 0.35434208E+04</totfact>
</mgrwt>
</event>
<event>
 7    0  0.4793433E-002  0.4678191E+03  0.7546771E-02  0.1022538E+00
         21   -1    0    0  502  501  0.00000000000E+00  0.00000000000E+00  0.95292570091E+02  0.95292570091E+02  0.00000000000E+00 0.  1.
         21   -1    0    0  501  502 -0.00000000000E+00 -0.00000000000E+00 -0.57416531137E+03  0.57416531137E+03  0.00000000000E+00 0.  1.
      99926    2    1    2    0    0  0.71054273576E-14  0.00000000000E+00 -0.47887274128E+03  0.66945788146E+03  0.46781914530E+03 0.  0.
      99925    2    3    3    0    0 -0.34153626781E+02 -0.86493747647E+02 -0.41720112011E+03  0.50183170343E+03  0.26292707228E+03 0.  0.
         25    1    3    3    0    0  0.34153626781E+02  0.86493747647E+02 -0.61671621170E+02  0.16762617803E+03  0.12509000000E+03 0.  0.
         25    1    4    4    0    0 -0.42303721058E+02 -0.76101075532E+02 -0.21086352418E+03  0.26017669465E+03  0.12509000000E+03 0.  0.
         25    1    4    4    0    0  0.81500942776E+01 -0.10392672115E+02 -0.20633759593E+03  0.24165500877E+03  0.12509000000E+03 0.  0.
<mgrwt>
<rscale>  2 0.46781915E+03</rscale>
<asrwt>0</asrwt>
<pdfrwt beam="1">  1       21 0.14013613E-01 0.46781915E+03</pdfrwt>
<pdfrwt beam="2">  1       21 0.84436077E-01 0.46781915E+03</pdfrwt>
<totfact> 0.49406846E+04</totfact>
</mgrwt>
</event>
<event>
 7    0  0.4793433E-002  0.4568178E+03  0.7546771E-02  0.1025708E+00
         21   -1    0    0  502  501  0.00000000000E+00  0.00000000000E+00  0.73323260172E+02  0.73323260172E+02  0.00000000000E+00 0. -1.
         21   -1    0    0  501  502 -0.00000000000E+00 -0.00000000000E+00 -0.71151523062E+03  0.71151523062E+03  0.00000000000E+00 0. -1.
      99926    2    1    2    0    0 -0.35527136788E-14  0.00000000000E+00 -0.63819197045E+03  0.78483849079E+03  0.45681775960E+03 0.  0.
      99925    2    3    3    0    0 -0.18478700406E+02 -0.10785174319E+03 -0.33987699636E+03  0.44335233772E+03  0.26281450079E+03 0.  0.
         25    1    4    4    0    0 -0.17511280757E+02 -0.94107615768E+02 -0.16752973960E+03  0.22994914666E+03  0.12509000000E+03 0.  0.
         25    1    4    4    0    0 -0.96741964964E+00 -0.13744127424E+02 -0.17234725677E+03  0.21340319106E+03  0.12509000000E+03 0.  0.
         25    1    3    3    0    0  0.18478700406E+02  0.10785174319E+03 -0.29831497408E+03  0.34148615307E+03  0.12509000000E+03 0.  0.
<mgrwt>
<rscale>  2 0.45681776E+03</rscale>
<asrwt>0</asrwt>
<pdfrwt beam="1">  1       21 0.10782833E-01 0.45681776E+03</pdfrwt>
<pdfrwt beam="2">  1       21 0.10463459E+00 0.45681776E+03</pdfrwt>
<totfact> 0.47821001E+04</totfact>
</mgrwt>
</event>
<event>
 7    0  0.4793433E-002  0.4536509E+03  0.7546771E-02  0.1026639E+00
         21   -1    0    0  502  501  0.00000000000E+00  0.00000000000E+00  0.11287933286E+03  0.11287933286E+03  0.00000000000E+00 0. -1.
         21   -1    0    0  501  502 -0.00000000000E+00 -0.00000000000E+00 -0.45579454119E+03  0.45579454119E+03  0.00000000000E+00 0. -1.
      99926    2    1    2    0    0  0.00000000000E+00  0.00000000000E+00 -0.34291520832E+03  0.56867387405E+03  0.45365089543E+03 0.  0.
      99925    2    3    3    0    0 -0.27531731850E+02  0.23625997708E+02 -0.34881656574E+03  0.43829550872E+03  0.26289498361E+03 0.  0.
         25    1    4    4    0    0 -0.42861050279E+02  0.88858978781E+01 -0.13180646907E+03  0.18691303379E+03  0.12509000000E+03 0.  0.
         25    1    4    4    0    0  0.15329318429E+02  0.14740099830E+02 -0.21701009667E+03  0.25138247493E+03  0.12509000000E+03 0.  0.
         25    1    3    3    0    0  0.27531731850E+02 -0.23625997708E+02  0.59013574169E+01  0.13037836533E+03  0.12509000000E+03 0.  0.
<mgrwt>
<rscale>  2 0.45365090E+03</rscale>
<asrwt>0</asrwt>
<pdfrwt beam="1">  1       21 0.16599902E-01 0.45365090E+03</pdfrwt>
<pdfrwt beam="2">  1       21 0.67028609E-01 0.45365090E+03</pdfrwt>
<totfact> 0.61300523E+04</totfact>
</mgrwt>
</event>
<event>
 7    0  0.4793433E-002  0.4557174E+03  0.7546771E-02  0.1026031E+00
         21   -1    0    0  502  501  0.00000000000E+00  0.00000000000E+00  0.41456755269E+03  0.41456755269E+03  0.00000000000E+00 0. -1.
         21   -1    0    0  501  502 -0.00000000000E+00 -0.00000000000E+00 -0.12523793590E+03  0.12523793590E+03  0.00000000000E+00 0. -1.
      99926    2    1    2    0    0  0.00000000000E+00 -0.71054273576E-14  0.28932961679E+03  0.53980548860E+03  0.45571738870E+03 0.  0.
      99925    2    3    3    0    0 -0.79109124206E+02 -0.43500759372E+02  0.26410107686E+03  0.38348992019E+03  0.26299157875E+03 0.  0.
         25    1    4    4    0    0 -0.41350442860E+02 -0.52019301806E+02  0.17484753860E+03  0.22502230276E+03  0.12509000000E+03 0.  0.
         25    1    3    3    0    0  0.79109124206E+02  0.43500759372E+02  0.25228539933E+02  0.15631556840E+03  0.12509000000E+03 0.  0.
         25    1    4    4    0    0 -0.37758681346E+02  0.85185424339E+01  0.89253538257E+02  0.15846761743E+03  0.12509000000E+03 0.  0.
<mgrwt>
<rscale>  2 0.45571739E+03</rscale>
<asrwt>0</asrwt>
<pdfrwt beam="1">  1       21 0.60965816E-01 0.45571739E+03</pdfrwt>
<pdfrwt beam="2">  1       21 0.18417344E-01 0.45571739E+03</pdfrwt>
<totfact> 0.62191404E+04</totfact>
</mgrwt>
</event>
<event>
 7    0  0.4793433E-002  0.3929111E+03  0.7546771E-02  0.1046262E+00
         21   -1    0    0  502  501  0.00000000000E+00  0.00000000000E+00  0.30423209468E+03  0.30423209468E+03  0.00000000000E+00 0.  1.
         21   -1    0    0  501  502 -0.00000000000E+00 -0.00000000000E+00 -0.12685969242E+03  0.12685969242E+03  0.00000000000E+00 0.  1.
      99926    2    1    2    0    0 -0.18873791419E-14  0.35527136788E-14  0.17737240226E+03  0.43109178709E+03  0.39291113476E+03 0.  0.
      99925    2    3    3    0    0  0.75257787391E+00  0.23342357081E+02  0.13802038100E+03  0.29789448350E+03  0.26295639509E+03 0.  0.
         25    1    4    4    0    0  0.19341889658E+02 -0.21402674320E+02  0.51805603770E+02  0.13843233670E+03  0.12509000000E+03 0.  0.
         25    1    4    4    0    0 -0.18589311784E+02  0.44745031401E+02  0.86214777235E+02  0.15946214680E+03  0.12509000000E+03 0.  0.
         25    1    3    3    0    0 -0.75257787391E+00 -0.23342357081E+02  0.39352021251E+02  0.13319730359E+03  0.12509000000E+03 0.  0.
<mgrwt>
<rscale>  2 0.39291113E+03</rscale>
<asrwt>0</asrwt>
<pdfrwt beam="1">  1       21 0.44740014E-01 0.39291113E+03</pdfrwt>
<pdfrwt beam="2">  1       21 0.18655837E-01 0.39291113E+03</pdfrwt>
<totfact> 0.11921544E+05</totfact>
</mgrwt>
</event>
<event>
 7    0  0.4793433E-002  0.4553084E+03  0.7546771E-02  0.1026151E+00
         21   -1    0    0  502  501  0.00000000000E+00  0.00000000000E+00  0.38076085159E+02  0.38076085159E+02  0.00000000000E+00 0. -1.
         21   -1    0    0  501  502 -0.00000000000E+00 -0.00000000000E+00 -0.13611284820E+04  0.13611284820E+04  0.00000000000E+00 0. -1.
      99926    2    1    2    0    0 -0.17763568394E-14  0.00000000000E+00 -0.13230523969E+04  0.13992045672E+04  0.45530844049E+03 0.  0.
      99925    2    3    3    0    0 -0.83595128018E+01 -0.48776975185E+02 -0.11461471782E+04  0.11769613687E+04  0.26293656016E+03 0.  0.
         25    1    3    3    0    0  0.83595128018E+01  0.48776975185E+02 -0.17690521870E+03  0.22224319847E+03  0.12509000000E+03 0.  0.
         25    1    4    4    0    0  0.45969997008E+00 -0.74188029235E+01 -0.39832726368E+03  0.41757318766E+03  0.12509000000E+03 0.  0.
         25    1    4    4    0    0 -0.88192127719E+01 -0.41358172262E+02 -0.74781991449E+03  0.75938818106E+03  0.12509000000E+03 0.  0.
<mgrwt>
<rscale>  2 0.45530844E+03</rscale>
<asrwt>0</asrwt>
<pdfrwt beam="1">  1       21 0.55994252E-02 0.45530844E+03</pdfrwt>
<pdfrwt beam="2">  1       21 0.20016592E+00 0.45530844E+03</pdfrwt>
<totfact> 0.26290136E+04</totfact>
</mgrwt>
</event>
<event>
 7    0  0.4793433E-002  0.4559949E+03  0.7546771E-02  0.1025949E+00
         21   -1    0    0  502  501  0.00000000000E+00  0.00000000000E+00  0.18524894793E+03  0.18524894793E+03  0.00000000000E+00 0. -1.
         21   -1    0    0  501  502 -0.00000000000E+00 -0.00000000000E+00 -0.28061064898E+03  0.28061064898E+03  0.00000000000E+00 0. -1.
      99926    2    1    2    0    0  0.00000000000E+00 -0.14210854715E-13 -0.95361701042E+02  0.46585959691E+03  0.45599485744E+03 0.  0.
      99925    2    3    3    0    0  0.10649258247E+02  0.11344291290E+03 -0.67711066433E+02  0.29441057568E+03  0.26288799395E+03 0.  0.
         25    1    4    4    0    0 -0.23462300984E+02  0.46363292305E+02 -0.50466612418E+01  0.13554708160E+03  0.12509000000E+03 0.  0.
         25    1    4    4    0    0  0.34111559231E+02  0.67079620593E+02 -0.62664405191E+02  0.15886349408E+03  0.12509000000E+03 0.  0.
         25    1    3    3    0    0 -0.10649258247E+02 -0.11344291290E+03 -0.27650634610E+02  0.17144902123E+03  0.12509000000E+03 0.  0.
<mgrwt>
<rscale>  2 0.45599486E+03</rscale>
<asrwt>0</asrwt>
<pdfrwt beam="1">  1       21 0.27242492E-01 0.45599486E+03</pdfrwt>
<pdfrwt beam="2">  1       21 0.41266272E-01 0.45599486E+03</pdfrwt>
<totfact> 0.67213425E+04</totfact>
</mgrwt>
</event>
<event>
 7    0  0.4793433E-002  0.4494100E+03  0.7546771E-02  0.1027898E+00
         21   -1    0    0  502  501  0.00000000000E+00  0.00000000000E+00  0.15981113892E+03  0.15981113892E+03  0.00000000000E+00 0. -1.
         21   -1    0    0  501  502 -0.00000000000E+00 -0.00000000000E+00 -0.31594999793E+03  0.31594999793E+03  0.00000000000E+00 0. -1.
      99926    2    1    2    0    0  0.00000000000E+00 -0.26645352591E-14 -0.15613885901E+03  0.47576113686E+03  0.44940996434E+03 0.  0.
      99925    2    3    3    0    0 -0.99549383759E+02 -0.25643627522E+01 -0.55180214773E+02  0.28666642061E+03  0.26308957570E+03 0.  0.
         25    1    4    4    0    0 -0.44135699836E+02  0.32970842824E+02 -0.53576760289E+01  0.13678906853E+03  0.12509000000E+03 0.  0.
         25    1    4    4    0    0 -0.55413683923E+02 -0.35535205577E+02 -0.49822538745E+02  0.14987735209E+03  0.12509000000E+03 0.  0.
         25    1    3    3    0    0  0.99549383759E+02  0.25643627522E+01 -0.10095864424E+03  0.18909471624E+03  0.12509000000E+03 0.  0.
<mgrwt>
<rscale>  2 0.44940996E+03</rscale>
<asrwt>0</asrwt>
<pdfrwt beam="1">  1       21 0.23501639E-01 0.44940996E+03</pdfrwt>
<pdfrwt beam="2">  1       21 0.46463234E-01 0.44940996E+03</pdfrwt>
<totfact> 0.70067571E+04</totfact>
</mgrwt>
</event>
<event>
 7    0  0.4793433E-002  0.4487162E+03  0.7546771E-02  0.1028106E+00
         21   -1    0    0  502  501  0.00000000000E+00  0.00000000000E+00  0.38588196211E+03  0.38588196211E+03  0.00000000000E+00 0. -1.
         21   -1    0    0  501  502 -0.00000000000E+00 -0.00000000000E+00 -0.13044546852E+03  0.13044546852E+03  0.00000000000E+00 0. -1.
      99926    2    1    2    0    0  0.88817841970E-15 -0.71054273576E-14  0.25543649359E+03  0.51632743063E+03  0.44871618353E+03 0.  0.
      99925    2    3    3    0    0  0.46093196566E+01 -0.58506017144E+02  0.58506532473E+02  0.27575910861E+03  0.26301306388E+03 0.  0.
         25    1    3    3    0    0 -0.46093196566E+01  0.58506017144E+02  0.19692996112E+03  0.24056832202E+03  0.12509000000E+03 0.  0.
         25    1    4    4    0    0  0.70489721393E+01 -0.25634648615E+02  0.70177182588E+02  0.14587380942E+03  0.12509000000E+03 0.  0.
         25    1    4    4    0    0 -0.24396524826E+01 -0.32871368529E+02 -0.11670650115E+02  0.12988529920E+03  0.12509000000E+03 0.  0.
<mgrwt>
<rscale>  2 0.44871618E+03</rscale>
<asrwt>0</asrwt>
<pdfrwt beam="1">  1       21 0.56747347E-01 0.44871618E+03</pdfrwt>
<pdfrwt beam="2">  1       21 0.19183157E-01 0.44871618E+03</pdfrwt>
<totfact> 0.67438042E+04</totfact>
</mgrwt>
</event>
<event>
 7    0  0.4793433E-002  0.4543921E+03  0.7546771E-02  0.1026420E+00
         21   -1    0    0  502  501  0.00000000000E+00  0.00000000000E+00  0.16219739944E+04  0.16219739944E+04  0.00000000000E+00 0.  1.
         21   -1    0    0  501  502 -0.00000000000E+00 -0.00000000000E+00 -0.31824214208E+02  0.31824214208E+02  0.00000000000E+00 0.  1.
      99926    2    1    2    0    0  0.00000000000E+00  0.00000000000E+00  0.15901497801E+04  0.16537982086E+04  0.45439211189E+03 0.  0.
      99925    2    3    3    0    0 -0.41929546405E+02 -0.10448792564E+03  0.10251847232E+04  0.10642994070E+04  0.26278070215E+03 0.  0.
         25    1    4    4    0    0 -0.56293574694E+02 -0.59087048528E+02  0.61271272292E+03  0.63065413246E+03  0.12509000000E+03 0.  0.
         25    1    3    3    0    0  0.41929546405E+02  0.10448792564E+03  0.56496505690E+03  0.58949880159E+03  0.12509000000E+03 0.  0.
         25    1    4    4    0    0  0.14364028289E+02 -0.45400877112E+02  0.41247200033E+03  0.43364527451E+03  0.12509000000E+03 0.  0.
<mgrwt>
<rscale>  2 0.45439211E+03</rscale>
<asrwt>0</asrwt>
<pdfrwt beam="1">  1       21 0.23852553E+00 0.45439211E+03</pdfrwt>
<pdfrwt beam="2">  1       21 0.46800326E-02 0.45439211E+03</pdfrwt>
<totfact> 0.20336755E+04</totfact>
</mgrwt>
</event>
<event>
 7    0  0.4793433E-002  0.4506351E+03  0.7546771E-02  0.1027533E+00
         21   -1    0    0  502  501  0.00000000000E+00  0.00000000000E+00  0.49625039946E+02  0.49625039946E+02  0.00000000000E+00 0. -1.
         21   -1    0    0  501  502 -0.00000000000E+00 -0.00000000000E+00 -0.10230319759E+04  0.10230319759E+04  0.00000000000E+00 0. -1.
      99926    2    1    2    0    0  0.35527136788E-14  0.00000000000E+00 -0.97340693597E+03  0.10726570159E+04  0.45063511923E+03 0.  0.
      99925    2    3    3    0    0 -0.22510565999E+02  0.18392027349E+02 -0.86512612735E+03  0.90467715437E+03  0.26296871517E+03 0.  0.
         25    1    4    4    0    0 -0.45789576258E+01  0.20269307679E+02 -0.56448018453E+03  0.57854749029E+03  0.12509000000E+03 0.  0.
         25    1    4    4    0    0 -0.17931608373E+02 -0.18772803300E+01 -0.30064594282E+03  0.32612966408E+03  0.12509000000E+03 0.  0.
         25    1    3    3    0    0  0.22510565999E+02 -0.18392027349E+02 -0.10828080861E+03  0.16797986149E+03  0.12509000000E+03 0.  0.
<mgrwt>
<rscale>  2 0.45063512E+03</rscale>
<asrwt>0</asrwt>
<pdfrwt beam="1">  1       21 0.72978002E-02 0.45063512E+03</pdfrwt>
<pdfrwt beam="2">  1       21 0.15044587E+00 0.45063512E+03</pdfrwt>
<totfact> 0.37725537E+04</totfact>
</mgrwt>
</event>
<event>
 7    0  0.4793433E-002  0.4538280E+03  0.7546771E-02  0.1026587E+00
         21   -1    0    0  502  501  0.00000000000E+00  0.00000000000E+00  0.29471568551E+03  0.29471568551E+03  0.00000000000E+00 0. -1.
         21   -1    0    0  501  502 -0.00000000000E+00 -0.00000000000E+00 -0.17471062256E+03  0.17471062256E+03  0.00000000000E+00 0. -1.
      99926    2    1    2    0    0  0.71054273576E-14 -0.35527136788E-14  0.12000506295E+03  0.46942630807E+03  0.45382798897E+03 0.  0.
      99925    2    3    3    0    0  0.45939153894E+02 -0.21441371894E+02 -0.27961327830E+02  0.26914725477E+03  0.26284647726E+03 0.  0.
         25    1    4    4    0    0  0.51957356680E+02 -0.21406956124E+02  0.12088943305E+02  0.13766435753E+03  0.12509000000E+03 0.  0.
         25    1    3    3    0    0 -0.45939153894E+02  0.21441371894E+02  0.14796639078E+03  0.20027905329E+03  0.12509000000E+03 0.  0.
         25    1    4    4    0    0 -0.60182027859E+01 -0.34415770410E-01 -0.40050271135E+02  0.13148289724E+03  0.12509000000E+03 0.  0.
<mgrwt>
<rscale>  2 0.45382799E+03</rscale>
<asrwt>0</asrwt>
<pdfrwt beam="1">  1       21 0.43340542E-01 0.45382799E+03</pdfrwt>
<pdfrwt beam="2">  1       21 0.25692739E-01 0.45382799E+03</pdfrwt>
<totfact> 0.68109464E+04</totfact>
</mgrwt>
</event>
<event>
 7    0  0.4793433E-002  0.4713155E+03  0.7546771E-02  0.1021550E+00
         21   -1    0    0  502  501  0.00000000000E+00  0.00000000000E+00  0.90127454487E+03  0.90127454487E+03  0.00000000000E+00 0.  1.
         21   -1    0    0  501  502 -0.00000000000E+00 -0.00000000000E+00 -0.61617820119E+02  0.61617820119E+02  0.00000000000E+00 0.  1.
      99926    2    1    2    0    0 -0.71054273576E-14  0.00000000000E+00  0.83965672475E+03  0.96289236499E+03  0.47131549002E+03 0.  0.
      99925    2    3    3    0    0  0.35820513141E+02  0.49050970369E+02  0.29114298528E+03  0.39702671190E+03  0.26301495248E+03 0.  0.
         25    1    4    4    0    0  0.75131684008E+01 -0.11757205763E+02  0.11211009219E+03  0.16855521486E+03  0.12509000000E+03 0.  0.
         25    1    4    4    0    0  0.28307344740E+02  0.60808176131E+02  0.17903289309E+03  0.22847149704E+03  0.12509000000E+03 0.  0.
         25    1    3    3    0    0 -0.35820513141E+02 -0.49050970369E+02  0.54851373948E+03  0.56586565309E+03  0.12509000000E+03 0.  0.
<mgrwt>
<rscale>  2 0.47131549E+03</rscale>
<asrwt>0</asrwt>
<pdfrwt beam="1">  1       21 0.13254037E+00 0.47131549E+03</pdfrwt>
<pdfrwt beam="2">  1       21 0.90614447E-02 0.47131549E+03</pdfrwt>
<totfact> 0.35828586E+04</totfact>
</mgrwt>
</event>
<event>
 7    0  0.4793433E-002  0.4730372E+03  0.7546771E-02  0.1021066E+00
         21   -1    0    0  502  501  0.00000000000E+00  0.00000000000E+00  0.10538681775E+03  0.10538681775E+03  0.00000000000E+00 0. -1.
         21   -1    0    0  501  502 -0.00000000000E+00 -0.00000000000E+00 -0.53081631250E+03  0.53081631250E+03  0.00000000000E+00 0. -1.
      99926    2    1    2    0    0  0.00000000000E+00  0.00000000000E+00 -0.42542949476E+03  0.63620313025E+03  0.47303717395E+03 0.  0.
      99925    2    3    3    0    0  0.15557487330E+02 -0.12830195738E+03 -0.27050286438E+03  0.39881484794E+03  0.26301721544E+03 0.  0.
         25    1    4    4    0    0  0.30591834798E+02 -0.99566697487E+02 -0.16744469787E+03  0.23352649218E+03  0.12509000000E+03 0.  0.
         25    1    4    4    0    0 -0.15034347468E+02 -0.28735259897E+02 -0.10305816652E+03  0.16528835576E+03  0.12509000000E+03 0.  0.
         25    1    3    3    0    0 -0.15557487330E+02  0.12830195738E+03 -0.15492663037E+03  0.23738828231E+03  0.12509000000E+03 0.  0.
<mgrwt>
<rscale>  2 0.47303717E+03</rscale>
<asrwt>0</asrwt>
<pdfrwt beam="1">  1       21 0.15498061E-01 0.47303717E+03</pdfrwt>
<pdfrwt beam="2">  1       21 0.78061222E-01 0.47303717E+03</pdfrwt>
<totfact> 0.49126279E+04</totfact>
</mgrwt>
</event>
<event>
 7    0  0.4793433E-002  0.4550485E+03  0.7546771E-02  0.1026227E+00
         21   -1    0    0  502  501  0.00000000000E+00  0.00000000000E+00  0.36785301595E+03  0.36785301595E+03  0.00000000000E+00 0. -1.
         21   -1    0    0  501  502 -0.00000000000E+00 -0.00000000000E+00 -0.14072818312E+03  0.14072818312E+03  0.00000000000E+00 0. -1.
      99926    2    1    2    0    0  0.00000000000E+00  0.00000000000E+00  0.22712483284E+03  0.50858119907E+03  0.45504850989E+03 0.  0.
      99925    2    3    3    0    0  0.10069386135E+03  0.49871534750E+02  0.12723250299E+03  0.31299896738E+03  0.26297113924E+03 0.  0.
         25    1    3    3    0    0 -0.10069386135E+03 -0.49871534750E+02  0.99892329851E+02  0.19558223169E+03  0.12509000000E+03 0.  0.
         25    1    4    4    0    0  0.66456651124E+02  0.49587920931E+02  0.35711416932E+02  0.15426685250E+03  0.12509000000E+03 0.  0.
         25    1    4    4    0    0  0.34237210222E+02  0.28361381905E+00  0.91521086057E+02  0.15873211488E+03  0.12509000000E+03 0.  0.
<mgrwt>
<rscale>  2 0.45504851E+03</rscale>
<asrwt>0</asrwt>
<pdfrwt beam="1">  1       21 0.54096032E-01 0.45504851E+03</pdfrwt>
<pdfrwt beam="2">  1       21 0.20695321E-01 0.45504851E+03</pdfrwt>
<totfact> 0.64647020E+04</totfact>
</mgrwt>
</event>
<event>
 7    0  0.4793433E-002  0.4493530E+03  0.7546771E-02  0.1027915E+00
         21   -1    0    0  502  501  0.00000000000E+00  0.00000000000E+00  0.17971903212E+03  0.17971903212E+03  0.00000000000E+00 0.  1.
         21   -1    0    0  501  502 -0.00000000000E+00 -0.00000000000E+00 -0.28088031390E+03  0.28088031390E+03  0.00000000000E+00 0.  1.
      99926    2    1    2    0    0  0.00000000000E+00  0.00000000000E+00 -0.10116128177E+03  0.46059934602E+03  0.44935303785E+03 0.  0.
      99925    2    3    3    0    0  0.10364355275E+03 -0.84871016097E+01 -0.35250692853E+02  0.28508373204E+03  0.26308953990E+03 0.  0.
         25    1    4    4    0    0  0.67730257997E+02  0.12116782384E+02 -0.52675671049E+02  0.15217239790E+03  0.12509000000E+03 0.  0.
         25    1    3    3    0    0 -0.10364355275E+03  0.84871016097E+01 -0.65910588918E+02  0.17551561398E+03  0.12509000000E+03 0.  0.
         25    1    4    4    0    0  0.35913294753E+02 -0.20603883994E+02  0.17424978196E+02  0.13291133413E+03  0.12509000000E+03 0.  0.
<mgrwt>
<rscale>  2 0.44935304E+03</rscale>
<asrwt>0</asrwt>
<pdfrwt beam="1">  1       21 0.26429270E-01 0.44935304E+03</pdfrwt>
<pdfrwt beam="2">  1       21 0.41305928E-01 0.44935304E+03</pdfrwt>
<totfact> 0.71281399E+04</totfact>
</mgrwt>
</event>
<event>
 7    0  0.4793433E-002  0.4631701E+03  0.7546771E-02  0.1023866E+00
         21   -1    0    0  502  501  0.00000000000E+00  0.00000000000E+00  0.22048743699E+03  0.22048743699E+03  0.00000000000E+00 0. -1.
         21   -1    0    0  501  502 -0.00000000000E+00 -0.00000000000E+00 -0.24324124192E+03  0.24324124192E+03  0.00000000000E+00 0. -1.
      99926    2    1    2    0    0 -0.14210854715E-13 -0.14210854715E-13 -0.22753804939E+02  0.46372867891E+03  0.46317011130E+03 0.  0.
      99925    2    3    3    0    0 -0.81054482721E+02 -0.88391632108E+02 -0.90813550028E+00  0.28906428308E+03  0.26301031396E+03 0.  0.
         25    1    3    3    0    0  0.81054482721E+02  0.88391632108E+02 -0.21845669439E+02  0.17466439583E+03  0.12509000000E+03 0.  0.
         25    1    4    4    0    0 -0.21459516516E+02 -0.60678074007E+02  0.31342480832E+02  0.14412563519E+03  0.12509000000E+03 0.  0.
         25    1    4    4    0    0 -0.59594966205E+02 -0.27713558101E+02 -0.32250616332E+02  0.14493864789E+03  0.12509000000E+03 0.  0.
<mgrwt>
<rscale>  2 0.46317011E+03</rscale>
<asrwt>0</asrwt>
<pdfrwt beam="1">  1       21 0.32424623E-01 0.46317011E+03</pdfrwt>
<pdfrwt beam="2">  1       21 0.35770771E-01 0.46317011E+03</pdfrwt>
<totfact> 0.63658911E+04</totfact>
</mgrwt>
</event>
<event>
 7    0  0.4793433E-002  0.4516192E+03  0.7546771E-02  0.1027240E+00
         21   -1    0    0  502  501  0.00000000000E+00  0.00000000000E+00  0.12110278017E+03  0.12110278017E+03  0.00000000000E+00 0. -1.
         21   -1    0    0  501  502 -0.00000000000E+00 -0.00000000000E+00 -0.42104715754E+03  0.42104715754E+03  0.00000000000E+00 0. -1.
      99926    2    1    2    0    0  0.00000000000E+00  0.14210854715E-13 -0.29994437737E+03  0.54214993771E+03  0.45161922616E+03 0.  0.
      99925    2    3    3    0    0 -0.53244609144E+02 -0.95835416029E+02 -0.18692761095E+03  0.34105365987E+03  0.26335575142E+03 0.  0.
         25    1    3    3    0    0  0.53244609144E+02  0.95835416029E+02 -0.11301676642E+03  0.20109627784E+03  0.12509000000E+03 0.  0.
         25    1    4    4    0    0  0.11412076106E+02 -0.40165339650E+02 -0.10707526442E+03  0.16987086372E+03  0.12509000000E+03 0.  0.
         25    1    4    4    0    0 -0.64656685250E+02 -0.55670076379E+02 -0.79852346530E+02  0.17118279615E+03  0.12509000000E+03 0.  0.
<mgrwt>
<rscale>  2 0.45161923E+03</rscale>
<asrwt>0</asrwt>
<pdfrwt beam="1">  1       21 0.17809233E-01 0.45161923E+03</pdfrwt>
<pdfrwt beam="2">  1       21 0.61918699E-01 0.45161923E+03</pdfrwt>
<totfact> 0.64085635E+04</totfact>
</mgrwt>
</event>
<event>
 7    0  0.4793433E-002  0.4566013E+03  0.7546771E-02  0.1025772E+00
         21   -1    0    0  502  501  0.00000000000E+00  0.00000000000E+00  0.69763095232E+03  0.69763095232E+03  0.00000000000E+00 0.  1.
         21   -1    0    0  501  502 -0.00000000000E+00 -0.00000000000E+00 -0.74711683759E+02  0.74711683759E+02  0.00000000000E+00 0.  1.
      99926    2    1    2    0    0  0.00000000000E+00  0.35527136788E-14  0.62291926856E+03  0.77234263608E+03  0.45660128379E+03 0.  0.
      99925    2    3    3    0    0  0.10884151384E+03  0.15645486884E+02  0.33627990378E+03  0.44082960475E+03  0.26297397276E+03 0.  0.
         25    1    4    4    0    0  0.79254970757E+02  0.40269722987E+02  0.19678976816E+03  0.24955304432E+03  0.12509000000E+03 0.  0.
         25    1    3    3    0    0 -0.10884151384E+03 -0.15645486884E+02  0.28663936478E+03  0.33151303132E+03  0.12509000000E+03 0.  0.
         25    1    4    4    0    0  0.29586543080E+02 -0.24624236103E+02  0.13949013562E+03  0.19127656043E+03  0.12509000000E+03 0.  0.
<mgrwt>
<rscale>  2 0.45660128E+03</rscale>
<asrwt>0</asrwt>
<pdfrwt beam="1">  1       21 0.10259278E+00 0.45660128E+03</pdfrwt>
<pdfrwt beam="2">  1       21 0.10987013E-01 0.45660128E+03</pdfrwt>
<totfact> 0.48518887E+04</totfact>
</mgrwt>
</event>
<event>
 7    0  0.4793433E-002  0.4533511E+03  0.7546771E-02  0.1026727E+00
         21   -1    0    0  502  501  0.00000000000E+00  0.00000000000E+00  0.33253271618E+03  0.33253271618E+03  0.00000000000E+00 0.  1.
         21   -1    0    0  501  502 -0.00000000000E+00 -0.00000000000E+00 -0.15451651031E+03  0.15451651031E+03  0.00000000000E+00 0.  1.
      99926    2    1    2    0    0 -0.71054273576E-14  0.00000000000E+00  0.17801620587E+03  0.48704922649E+03  0.45335105544E+03 0.  0.
      99925    2    3    3    0    0 -0.39016742179E+02 -0.94453515588E+02  0.16030149608E+03  0.32455279016E+03  0.26304784960E+03 0.  0.
         25    1    3    3    0    0  0.39016742179E+02  0.94453515588E+02  0.17714709795E+02  0.16249643633E+03  0.12509000000E+03 0.  0.
         25    1    4    4    0    0  0.17730457531E+02 -0.40705121983E+02  0.56896363443E+02  0.14441599757E+03  0.12509000000E+03 0.  0.
         25    1    4    4    0    0 -0.56747199710E+02 -0.53748393605E+02  0.10340513263E+03  0.18013679259E+03  0.12509000000E+03 0.  0.
<mgrwt>
<rscale>  2 0.45335106E+03</rscale>
<asrwt>0</asrwt>
<pdfrwt beam="1">  1       21 0.48901870E-01 0.45335106E+03</pdfrwt>
<pdfrwt beam="2">  1       21 0.22723016E-01 0.45335106E+03</pdfrwt>
<totfact> 0.67064040E+04</totfact>
</mgrwt>
</event>
<event>
 7    0  0.4793433E-002  0.4474938E+03  0.7546771E-02  0.1028472E+00
         21   -1    0    0  502  501  0.00000000000E+00  0.00000000000E+00  0.21190763170E+03  0.21190763170E+03  0.00000000000E+00 0.  1.
         21   -1    0    0  501  502 -0.00000000000E+00 -0.00000000000E+00 -0.23624758581E+03  0.23624758581E+03  0.00000000000E+00 0.  1.
      99926    2    1    2    0    0  0.35527136788E-14  0.00000000000E+00 -0.24339954102E+02  0.44815521751E+03  0.44749376042E+03 0.  0.
      99925    2    3    3    0    0 -0.22492573011E+02 -0.98006838951E+02 -0.48736860721E+02  0.28581614805E+03  0.26306716361E+03 0.  0.
         25    1    3    3    0    0  0.22492573011E+02  0.98006838951E+02  0.24396906619E+02  0.16233906946E+03  0.12509000000E+03 0.  0.
         25    1    4    4    0    0 -0.43666273797E+02 -0.76323316050E+02 -0.24867266031E+02  0.15491249485E+03  0.12509000000E+03 0.  0.
         25    1    4    4    0    0  0.21173700786E+02 -0.21683522901E+02 -0.23869594690E+02  0.13090365320E+03  0.12509000000E+03 0.  0.
<mgrwt>
<rscale>  2 0.44749376E+03</rscale>
<asrwt>0</asrwt>
<pdfrwt beam="1">  1       21 0.31162887E-01 0.44749376E+03</pdfrwt>
<pdfrwt beam="2">  1       21 0.34742292E-01 0.44749376E+03</pdfrwt>
<totfact> 0.73345494E+04</totfact>
</mgrwt>
</event>
<event>
 7    0  0.4793433E-002  0.4535375E+03  0.7546771E-02  0.1026672E+00
         21   -1    0    0  502  501  0.00000000000E+00  0.00000000000E+00  0.96067944111E+02  0.96067944111E+02  0.00000000000E+00 0.  1.
         21   -1    0    0  501  502 -0.00000000000E+00 -0.00000000000E+00 -0.53528859765E+03  0.53528859765E+03  0.00000000000E+00 0.  1.
      99926    2    1    2    0    0  0.14210854715E-13  0.00000000000E+00 -0.43922065354E+03  0.63135654176E+03  0.45353754016E+03 0.  0.
      99925    2    3    3    0    0 -0.77517173836E+02 -0.76720823356E+02 -0.24291029427E+03  0.37429572749E+03  0.26305300527E+03 0.  0.
         25    1    4    4    0    0 -0.34195993600E+02  0.30935944623E+01 -0.10015199569E+03  0.16388064756E+03  0.12509000000E+03 0.  0.
         25    1    3    3    0    0  0.77517173836E+02  0.76720823356E+02 -0.19631035927E+03  0.25706081427E+03  0.12509000000E+03 0.  0.
         25    1    4    4    0    0 -0.43321180236E+02 -0.79814417818E+02 -0.14275829858E+03  0.21041507993E+03  0.12509000000E+03 0.  0.
<mgrwt>
<rscale>  2 0.45353754E+03</rscale>
<asrwt>0</asrwt>
<pdfrwt beam="1">  1       21 0.14127639E-01 0.45353754E+03</pdfrwt>
<pdfrwt beam="2">  1       21 0.78718911E-01 0.45353754E+03</pdfrwt>
<totfact> 0.57448863E+04</totfact>
</mgrwt>
</event>
<event>
 7    0  0.4793433E-002  0.4489925E+03  0.7546771E-02  0.1028023E+00
         21   -1    0    0  502  501  0.00000000000E+00  0.00000000000E+00  0.47874118357E+03  0.47874118357E+03  0.00000000000E+00 0.  1.
         21   -1    0    0  501  502 -0.00000000000E+00 -0.00000000000E+00 -0.10527311330E+03  0.10527311330E+03  0.00000000000E+00 0.  1.
      99926    2    1    2    0    0  0.00000000000E+00  0.00000000000E+00  0.37346807027E+03  0.58401429687E+03  0.44899253828E+03 0.  0.
      99925    2    3    3    0    0  0.21800169130E+02 -0.10245966436E+03  0.26731947569E+03  0.38936522179E+03  0.26300635670E+03 0.  0.
         25    1    4    4    0    0 -0.25923053618E+02 -0.68545914778E+02  0.13861918722E+03  0.20058248754E+03  0.12509000000E+03 0.  0.
         25    1    3    3    0    0 -0.21800169130E+02  0.10245966436E+03  0.10614859458E+03  0.19464907507E+03  0.12509000000E+03 0.  0.
         25    1    4    4    0    0  0.47723222748E+02 -0.33913749586E+02  0.12870028847E+03  0.18878273426E+03  0.12509000000E+03 0.  0.
<mgrwt>
<rscale>  2 0.44899254E+03</rscale>
<asrwt>0</asrwt>
<pdfrwt beam="1">  1       21 0.70403115E-01 0.44899254E+03</pdfrwt>
<pdfrwt beam="2">  1       21 0.15481340E-01 0.44899254E+03</pdfrwt>
<totfact> 0.62592994E+04</totfact>
</mgrwt>
</event>
<event>
 7    0  0.4793433E-002  0.4591188E+03  0.7546771E-02  0.1025037E+00
         21   -1    0    0  502  501  0.00000000000E+00  0.00000000000E+00  0.29567652317E+03  0.29567652317E+03  0.00000000000E+00 0.  1.
         21   -1    0    0  501  502 -0.00000000000E+00 -0.00000000000E+00 -0.17822692365E+03  0.17822692365E+03  0.00000000000E+00 0.  1.
      99926    2    1    2    0    0  0.00000000000E+00  0.00000000000E+00  0.11744959952E+03  0.47390344681E+03  0.45911879560E+03 0.  0.
      99925    2    3    3    0    0 -0.79644278976E+02 -0.80889818320E+02  0.96758225942E+02  0.30372114773E+03  0.26457136543E+03 0.  0.
         25    1    4    4    0    0 -0.39057443196E+02 -0.45734818276E+02  0.93876357568E+02  0.16756323010E+03  0.12509000000E+03 0.  0.
         25    1    3    3    0    0  0.79644278976E+02  0.80889818320E+02  0.20691373576E+02  0.17018229909E+03  0.12509000000E+03 0.  0.
         25    1    4    4    0    0 -0.40586835781E+02 -0.35155000043E+02  0.28818683743E+01  0.13615791763E+03  0.12509000000E+03 0.  0.
<mgrwt>
<rscale>  2 0.45911880E+03</rscale>
<asrwt>0</asrwt>
<pdfrwt beam="1">  1       21 0.43481842E-01 0.45911880E+03</pdfrwt>
<pdfrwt beam="2">  1       21 0.26209842E-01 0.45911880E+03</pdfrwt>
<totfact> 0.64996585E+04</totfact>
</mgrwt>
</event>
<event>
 7    0  0.4793433E-002  0.4600200E+03  0.7546771E-02  0.1024775E+00
         21   -1    0    0  502  501  0.00000000000E+00  0.00000000000E+00  0.63442223406E+03  0.63442223406E+03  0.00000000000E+00 0.  1.
         21   -1    0    0  501  502 -0.00000000000E+00 -0.00000000000E+00 -0.83390202454E+02  0.83390202454E+02  0.00000000000E+00 0.  1.
      99926    2    1    2    0    0  0.00000000000E+00  0.00000000000E+00  0.55103203160E+03  0.71781243651E+03  0.46001999322E+03 0.  0.
      99925    2    3    3    0    0  0.38468658462E+02 -0.73308035941E+02  0.21345034839E+03  0.34840371063E+03  0.26262175945E+03 0.  0.
         25    1    4    4    0    0  0.24723635627E+02 -0.10556000756E+02  0.14035282983E+03  0.18991869906E+03  0.12509000000E+03 0.  0.
         25    1    3    3    0    0 -0.38468658462E+02  0.73308035941E+02  0.33758168321E+03  0.36940872588E+03  0.12509000000E+03 0.  0.
         25    1    4    4    0    0  0.13745022835E+02 -0.62752035185E+02  0.73097518555E+02  0.15848501157E+03  0.12509000000E+03 0.  0.
<mgrwt>
<rscale>  2 0.46001999E+03</rscale>
<asrwt>0</asrwt>
<pdfrwt beam="1">  1       21 0.93297385E-01 0.46001999E+03</pdfrwt>
<pdfrwt beam="2">  1       21 0.12263265E-01 0.46001999E+03</pdfrwt>
<totfact> 0.49944907E+04</totfact>
</mgrwt>
</event>
<event>
 7    0  0.4793433E-002  0.4549450E+03  0.7546771E-02  0.1026258E+00
         21   -1    0    0  502  501  0.00000000000E+00  0.00000000000E+00  0.14884866488E+03  0.14884866488E+03  0.00000000000E+00 0.  1.
         21   -1    0    0  501  502 -0.00000000000E+00 -0.00000000000E+00 -0.34762642108E+03  0.34762642108E+03  0.00000000000E+00 0.  1.
      99926    2    1    2    0    0  0.00000000000E+00  0.00000000000E+00 -0.19877775620E+03  0.49647508596E+03  0.45494495779E+03 0.  0.
      99925    2    3    3    0    0  0.13985376621E+02  0.50995119798E+02 -0.23422463087E+03  0.35611810528E+03  0.26298827769E+03 0.  0.
         25    1    4    4    0    0  0.21614273440E+02  0.55832209650E+02 -0.15399918286E+03  0.20723819356E+03  0.12509000000E+03 0.  0.
         25    1    4    4    0    0 -0.76288968187E+01 -0.48370898523E+01 -0.80225448010E+02  0.14887991172E+03  0.12509000000E+03 0.  0.
         25    1    3    3    0    0 -0.13985376621E+02 -0.50995119798E+02  0.35446874661E+02  0.14035698068E+03  0.12509000000E+03 0.  0.
<mgrwt>
<rscale>  2 0.45494496E+03</rscale>
<asrwt>0</asrwt>
<pdfrwt beam="1">  1       21 0.21889510E-01 0.45494496E+03</pdfrwt>
<pdfrwt beam="2">  1       21 0.51121532E-01 0.45494496E+03</pdfrwt>
<totfact> 0.65547646E+04</totfact>
</mgrwt>
</event>
<event>
 7    0  0.4793433E-002  0.4555585E+03  0.7546771E-02  0.1026077E+00
         21   -1    0    0  502  501  0.00000000000E+00  0.00000000000E+00  0.44361271797E+03  0.44361271797E+03  0.00000000000E+00 0. -1.
         21   -1    0    0  501  502 -0.00000000000E+00 -0.00000000000E+00 -0.11695647460E+03  0.11695647460E+03  0.00000000000E+00 0. -1.
      99926    2    1    2    0    0  0.14210854715E-13  0.71054273576E-14  0.32665624337E+03  0.56056919257E+03  0.45555846861E+03 0.  0.
      99925    2    3    3    0    0 -0.92992433183E+02 -0.32116688559E+02  0.13808939769E+03  0.31382228235E+03  0.26407701307E+03 0.  0.
         25    1    3    3    0    0  0.92992433183E+02  0.32116688559E+02  0.18856684568E+03  0.24674691022E+03  0.12509000000E+03 0.  0.
         25    1    4    4    0    0 -0.69556558245E+02 -0.53391815577E+02  0.76374730839E+02  0.17079053948E+03  0.12509000000E+03 0.  0.
         25    1    4    4    0    0 -0.23435874938E+02  0.21275127019E+02  0.61714666852E+02  0.14303174287E+03  0.12509000000E+03 0.  0.
<mgrwt>
<rscale>  2 0.45555847E+03</rscale>
<asrwt>0</asrwt>
<pdfrwt beam="1">  1       21 0.65237164E-01 0.45555847E+03</pdfrwt>
<pdfrwt beam="2">  1       21 0.17199482E-01 0.45555847E+03</pdfrwt>
<totfact> 0.60903967E+04</totfact>
</mgrwt>
</event>
<event>
 7    0  0.4793433E-002  0.4177901E+03  0.7546771E-02  0.1037788E+00
         21   -1    0    0  502  501  0.00000000000E+00  0.00000000000E+00  0.98061772019E+02  0.98061772019E+02  0.00000000000E+00 0. -1.
         21   -1    0    0  501  502 -0.00000000000E+00 -0.00000000000E+00 -0.44499656154E+03  0.44499656154E+03  0.00000000000E+00 0. -1.
      99926    2    1    2    0    0 -0.17763568394E-14  0.00000000000E+00 -0.34693478953E+03  0.54305833356E+03  0.41779014525E+03 0.  0.
      99925    2    3    3    0    0 -0.76738681934E+01 -0.34352240037E+02 -0.31008982963E+03  0.40798789335E+03  0.26279165519E+03 0.  0.
         25    1    3    3    0    0  0.76738681934E+01  0.34352240037E+02 -0.36844959899E+02  0.13507044021E+03  0.12509000000E+03 0.  0.
         25    1    4    4    0    0 -0.17375104081E+02 -0.55386088731E+02 -0.16378069041E+03  0.21410543132E+03  0.12509000000E+03 0.  0.
         25    1    4    4    0    0  0.97012358880E+01  0.21033848694E+02 -0.14630913921E+03  0.19388246204E+03  0.12509000000E+03 0.  0.
<mgrwt>
<rscale>  2 0.41779015E+03</rscale>
<asrwt>0</asrwt>
<pdfrwt beam="1">  1       21 0.14420849E-01 0.41779015E+03</pdfrwt>
<pdfrwt beam="2">  1       21 0.65440669E-01 0.41779015E+03</pdfrwt>
<totfact> 0.84626349E+04</totfact>
</mgrwt>
</event>
<event>
 7    0  0.4793433E-002  0.4563718E+03  0.7546771E-02  0.1025839E+00
         21   -1    0    0  502  501  0.00000000000E+00  0.00000000000E+00  0.17834854756E+03  0.17834854756E+03  0.00000000000E+00 0. -1.
         21   -1    0    0  501  502 -0.00000000000E+00 -0.00000000000E+00 -0.29194973977E+03  0.29194973977E+03  0.00000000000E+00 0. -1.
      99926    2    1    2    0    0  0.00000000000E+00  0.00000000000E+00 -0.11360119221E+03  0.47029828734E+03  0.45637183108E+03 0.  0.
      99925    2    3    3    0    0  0.10696733731E+02 -0.10763118556E+03 -0.32616744606E+02  0.28616550625E+03  0.26292195177E+03 0.  0.
         25    1    3    3    0    0 -0.10696733731E+02  0.10763118556E+03 -0.80984447604E+02  0.18413278109E+03  0.12509000000E+03 0.  0.
         25    1    4    4    0    0  0.12078150197E+02 -0.49571066287E+02  0.23768238235E+02  0.13717000246E+03  0.12509000000E+03 0.  0.
         25    1    4    4    0    0 -0.13814164667E+01 -0.58060119272E+02 -0.56384982841E+02  0.14899550380E+03  0.12509000000E+03 0.  0.
<mgrwt>
<rscale>  2 0.45637183E+03</rscale>
<asrwt>0</asrwt>
<pdfrwt beam="1">  1       21 0.26227727E-01 0.45637183E+03</pdfrwt>
<pdfrwt beam="2">  1       21 0.42933785E-01 0.45637183E+03</pdfrwt>
<totfact> 0.66684911E+04</totfact>
</mgrwt>
</event>
<event>
 7    0  0.4793433E-002  0.4570553E+03  0.7546771E-02  0.1025639E+00
         21   -1    0    0  502  501  0.00000000000E+00  0.00000000000E+00  0.68129280107E+03  0.68129280107E+03  0.00000000000E+00 0.  1.
         21   -1    0    0  501  502 -0.00000000000E+00 -0.00000000000E+00 -0.76655552366E+02  0.76655552366E+02  0.00000000000E+00 0.  1.
      99926    2    1    2    0    0  0.00000000000E+00  0.14210854715E-13  0.60463724870E+03  0.75794835344E+03  0.45705525263E+03 0.  0.
      99925    2    3    3    0    0 -0.29498600358E+02  0.11107544658E+03  0.36952703998E+03  0.46789277152E+03  0.26299332712E+03 0.  0.
         25    1    4    4    0    0  0.23274435710E+02  0.52610243171E+02  0.15437446849E+03  0.20685386548E+03  0.12509000000E+03 0.  0.
         25    1    3    3    0    0  0.29498600358E+02 -0.11107544658E+03  0.23511020872E+03  0.29005558191E+03  0.12509000000E+03 0.  0.
         25    1    4    4    0    0 -0.52773036069E+02  0.58465203406E+02  0.21515257150E+03  0.26103890604E+03  0.12509000000E+03 0.  0.
<mgrwt>
<rscale>  2 0.45705525E+03</rscale>
<asrwt>0</asrwt>
<pdfrwt beam="1">  1       21 0.10019011E+00 0.45705525E+03</pdfrwt>
<pdfrwt beam="2">  1       21 0.11272876E-01 0.45705525E+03</pdfrwt>
<totfact> 0.49068824E+04</totfact>
</mgrwt>
</event>
<event>
 7    0  0.4793433E-002  0.4543769E+03  0.7546771E-02  0.1026425E+00
         21   -1    0    0  502  501  0.00000000000E+00  0.00000000000E+00  0.24965510859E+03  0.24965510859E+03  0.00000000000E+00 0. -1.
         21   -1    0    0  501  502 -0.00000000000E+00 -0.00000000000E+00 -0.20674355054E+03  0.20674355054E+03  0.00000000000E+00 0. -1.
      99926    2    1    2    0    0  0.14210854715E-13  0.17763568394E-14  0.42911558051E+02  0.45639865913E+03  0.45437686367E+03 0.  0.
      99925    2    3    3    0    0 -0.70131668826E+02  0.13718186181E+02 -0.60231045553E+02  0.27921924615E+03  0.26311398474E+03 0.  0.
         25    1    4    4    0    0 -0.58068537091E+01 -0.22043749600E+02 -0.35294551101E+02  0.13195779584E+03  0.12509000000E+03 0.  0.
         25    1    3    3    0    0  0.70131668826E+02 -0.13718186181E+02  0.10314260360E+03  0.17717941298E+03  0.12509000000E+03 0.  0.
         25    1    4    4    0    0 -0.64324815117E+02  0.35761935780E+02 -0.24936494452E+02  0.14726145031E+03  0.12509000000E+03 0.  0.
<mgrwt>
<rscale>  2 0.45437686E+03</rscale>
<asrwt>0</asrwt>
<pdfrwt beam="1">  1       21 0.36713987E-01 0.45437686E+03</pdfrwt>
<pdfrwt beam="2">  1       21 0.30403463E-01 0.45437686E+03</pdfrwt>
<totfact> 0.68784803E+04</totfact>
</mgrwt>
</event>
<event>
 7    0  0.4793433E-002  0.4509014E+03  0.7546771E-02  0.1027454E+00
         21   -1    0    0  502  501  0.00000000000E+00  0.00000000000E+00  0.31728192954E+03  0.31728192954E+03  0.00000000000E+00 0. -1.
         21   -1    0    0  501  502 -0.00000000000E+00 -0.00000000000E+00 -0.16019828076E+03  0.16019828076E+03  0.00000000000E+00 0. -1.
      99926    2    1    2    0    0  0.00000000000E+00 -0.71054273576E-14  0.15708364877E+03  0.47748021030E+03  0.45090140664E+03 0.  0.
      99925    2    3    3    0    0  0.91456473116E+02 -0.57390093231E+02  0.11774250127E+03  0.30761808013E+03  0.26288339116E+03 0.  0.
         25    1    4    4    0    0  0.24833640746E+02 -0.46315382481E+02  0.25224684841E+02  0.13800585927E+03  0.12509000000E+03 0.  0.
         25    1    3    3    0    0 -0.91456473116E+02  0.57390093231E+02  0.39341147509E+02  0.16986213016E+03  0.12509000000E+03 0.  0.
         25    1    4    4    0    0  0.66622832370E+02 -0.11074710750E+02  0.92517816424E+02  0.16961222087E+03  0.12509000000E+03 0.  0.
<mgrwt>
<rscale>  2 0.45090141E+03</rscale>
<asrwt>0</asrwt>
<pdfrwt beam="1">  1       21 0.46659107E-01 0.45090141E+03</pdfrwt>
<pdfrwt beam="2">  1       21 0.23558571E-01 0.45090141E+03</pdfrwt>
<totfact> 0.69104896E+04</totfact>
</mgrwt>
</event>
<event>
 7    0  0.4793433E-002  0.4604074E+03  0.7546771E-02  0.1024663E+00
         21   -1    0    0  502  501  0.00000000000E+00  0.00000000000E+00  0.41115301696E+03  0.41115301696E+03  0.00000000000E+00 0.  1.
         21   -1    0    0  501  502 -0.00000000000E+00 -0.00000000000E+00 -0.12889057709E+03  0.12889057709E+03  0.00000000000E+00 0.  1.
      99926    2    1    2    0    0  0.00000000000E+00  0.14210854715E-13  0.28226243988E+03  0.54004359405E+03  0.46040742664E+03 0.  0.
      99925    2    3    3    0    0 -0.29421812992E+02  0.70188705236E+02  0.70923782104E+02  0.28293732460E+03  0.26311831818E+03 0.  0.
         25    1    4    4    0    0 -0.40288322130E+02  0.51925376497E+02  0.85764705468E+01  0.14156432309E+03  0.12509000000E+03 0.  0.
         25    1    3    3    0    0  0.29421812992E+02 -0.70188705236E+02  0.21133865777E+03  0.25710626945E+03  0.12509000000E+03 0.  0.
         25    1    4    4    0    0  0.10866509138E+02  0.18263328739E+02  0.62347311558E+02  0.14137300151E+03  0.12509000000E+03 0.  0.
<mgrwt>
<rscale>  2 0.46040743E+03</rscale>
<asrwt>0</asrwt>
<pdfrwt beam="1">  1       21 0.60463679E-01 0.46040743E+03</pdfrwt>
<pdfrwt beam="2">  1       21 0.18954497E-01 0.46040743E+03</pdfrwt>
<totfact> 0.59922362E+04</totfact>
</mgrwt>
</event>
<event>
 7    0  0.4793433E-002  0.4577102E+03  0.7546771E-02  0.1025447E+00
         21   -1    0    0  502  501  0.00000000000E+00  0.00000000000E+00  0.16233229963E+03  0.16233229963E+03  0.00000000000E+00 0. -1.
         21   -1    0    0  501  502 -0.00000000000E+00 -0.00000000000E+00 -0.32263859459E+03  0.32263859459E+03  0.00000000000E+00 0. -1.
      99926    2    1    2    0    0  0.00000000000E+00  0.00000000000E+00 -0.16030629495E+03  0.48497089422E+03  0.45771023589E+03 0.  0.
      99925    2    3    3    0    0 -0.51151560724E+02 -0.68638114219E+02 -0.18306255141E+03  0.33169653826E+03  0.26302665811E+03 0.  0.
         25    1    3    3    0    0  0.51151560724E+02  0.68638114219E+02  0.22756256455E+02  0.15327435596E+03  0.12509000000E+03 0.  0.
         25    1    4    4    0    0  0.52583831566E+01 -0.60170337492E+02 -0.98540566632E+02  0.17031110204E+03  0.12509000000E+03 0.  0.
         25    1    4    4    0    0 -0.56409943881E+02 -0.84677767264E+01 -0.84521984776E+02  0.16138543621E+03  0.12509000000E+03 0.  0.
<mgrwt>
<rscale>  2 0.45771024E+03</rscale>
<asrwt>0</asrwt>
<pdfrwt beam="1">  1       21 0.23872397E-01 0.45771024E+03</pdfrwt>
<pdfrwt beam="2">  1       21 0.47446852E-01 0.45771024E+03</pdfrwt>
<totfact> 0.64931761E+04</totfact>
</mgrwt>
</event>
<event>
 7    0  0.4793433E-002  0.4443737E+03  0.7546771E-02  0.1029413E+00
         21   -1    0    0  502  501  0.00000000000E+00  0.00000000000E+00  0.13293178293E+03  0.13293178293E+03  0.00000000000E+00 0. -1.
         21   -1    0    0  501  502 -0.00000000000E+00 -0.00000000000E+00 -0.37137095676E+03  0.37137095676E+03  0.00000000000E+00 0. -1.
      99926    2    1    2    0    0  0.00000000000E+00  0.00000000000E+00 -0.23843917383E+03  0.50430273970E+03  0.44437373195E+03 0.  0.
      99925    2    3    3    0    0  0.32211555753E+02 -0.72957524685E+02 -0.77759306167E+02  0.28561137566E+03  0.26299612826E+03 0.  0.
         25    1    4    4    0    0  0.33471157649E+02 -0.48300764796E+02 -0.39000275296E+01  0.13826062559E+03  0.12509000000E+03 0.  0.
         25    1    4    4    0    0 -0.12596018965E+01 -0.24656759890E+02 -0.73859278637E+02  0.14735075007E+03  0.12509000000E+03 0.  0.
         25    1    3    3    0    0 -0.32211555753E+02  0.72957524685E+02 -0.16067986766E+03  0.21869136403E+03  0.12509000000E+03 0.  0.
<mgrwt>
<rscale>  2 0.44437373E+03</rscale>
<asrwt>0</asrwt>
<pdfrwt beam="1">  1       21 0.19548792E-01 0.44437373E+03</pdfrwt>
<pdfrwt beam="2">  1       21 0.54613376E-01 0.44437373E+03</pdfrwt>
<totfact> 0.70750287E+04</totfact>
</mgrwt>
</event>
<event>
 7    0  0.4793433E-002  0.4555942E+03  0.7546771E-02  0.1026067E+00
         21   -1    0    0  502  501  0.00000000000E+00  0.00000000000E+00  0.25661699665E+03  0.25661699665E+03  0.00000000000E+00 0.  1.
         21   -1    0    0  501  502 -0.00000000000E+00 -0.00000000000E+00 -0.20221391752E+03  0.20221391752E+03  0.00000000000E+00 0.  1.
      99926    2    1    2    0    0 -0.88817841970E-15  0.00000000000E+00  0.54403079130E+02  0.45883091417E+03  0.45559424138E+03 0.  0.
      99925    2    3    3    0    0 -0.68009162103E+01  0.10216467323E+03  0.84100859045E+02  0.29447356220E+03  0.26297880414E+03 0.  0.
         25    1    3    3    0    0  0.68009162103E+01 -0.10216467323E+03 -0.29697779915E+02  0.16435735198E+03  0.12509000000E+03 0.  0.
         25    1    4    4    0    0  0.15805389190E+02  0.81294593767E+02  0.67794249388E+02  0.16462742680E+03  0.12509000000E+03 0.  0.
         25    1    4    4    0    0 -0.22606305401E+02  0.20870079459E+02  0.16306609656E+02  0.12984613540E+03  0.12509000000E+03 0.  0.
<mgrwt>
<rscale>  2 0.45559424E+03</rscale>
<asrwt>0</asrwt>
<pdfrwt beam="1">  1       21 0.37737794E-01 0.45559424E+03</pdfrwt>
<pdfrwt beam="2">  1       21 0.29737341E-01 0.45559424E+03</pdfrwt>
<totfact> 0.67943237E+04</totfact>
</mgrwt>
</event>
<event>
 7    0  0.4793433E-002  0.4642949E+03  0.7546771E-02  0.1023543E+00
         21   -1    0    0  502  501  0.00000000000E+00  0.00000000000E+00  0.21547214107E+03  0.21547214107E+03  0.00000000000E+00 0.  1.
         21   -1    0    0  501  502 -0.00000000000E+00 -0.00000000000E+00 -0.25011326547E+03  0.25011326547E+03  0.00000000000E+00 0.  1.
      99926    2    1    2    0    0  0.35527136788E-14  0.00000000000E+00 -0.34641124406E+02  0.46558540654E+03  0.46429490982E+03 0.  0.
      99925    2    3    3    0    0 -0.31839341481E+02 -0.10502036081E+03  0.30632420327E+02  0.28683652237E+03  0.26323720394E+03 0.  0.
         25    1    4    4    0    0 -0.30106017686E+02 -0.94144738755E+02  0.22396175914E+02  0.16099285988E+03  0.12509000000E+03 0.  0.
         25    1    4    4    0    0 -0.17333237959E+01 -0.10875622055E+02  0.82362444133E+01  0.12584366249E+03  0.12509000000E+03 0.  0.
         25    1    3    3    0    0  0.31839341481E+02  0.10502036081E+03 -0.65273544734E+02  0.17874888417E+03  0.12509000000E+03 0.  0.
<mgrwt>
<rscale>  2 0.46429491E+03</rscale>
<asrwt>0</asrwt>
<pdfrwt beam="1">  1       21 0.31687080E-01 0.46429491E+03</pdfrwt>
<pdfrwt beam="2">  1       21 0.36781362E-01 0.46429491E+03</pdfrwt>
<totfact> 0.62975628E+04</totfact>
</mgrwt>
</event>
<event>
 7    0  0.4793433E-002  0.4655184E+03  0.7546771E-02  0.1023193E+00
         21   -1    0    0  502  501  0.00000000000E+00  0.00000000000E+00  0.15627205939E+03  0.15627205939E+03  0.00000000000E+00 0.  1.
         21   -1    0    0  501  502 -0.00000000000E+00 -0.00000000000E+00 -0.34668290111E+03  0.34668290111E+03  0.00000000000E+00 0.  1.
      99926    2    1    2    0    0  0.00000000000E+00  0.00000000000E+00 -0.19041084173E+03  0.50295496050E+03  0.46551842460E+03 0.  0.
      99925    2    3    3    0    0  0.36594857762E+02 -0.82106764251E+02 -0.28170529041E+02  0.27923609336E+03  0.26286595972E+03 0.  0.
         25    1    3    3    0    0 -0.36594857762E+02  0.82106764251E+02 -0.16224031268E+03  0.22371886713E+03  0.12509000000E+03 0.  0.
         25    1    4    4    0    0  0.35959999352E+02 -0.62182953796E+01 -0.35934326872E+00  0.13030512645E+03  0.12509000000E+03 0.  0.
         25    1    4    4    0    0  0.63485840947E+00 -0.75888468871E+02 -0.27811185772E+02  0.14893096692E+03  0.12509000000E+03 0.  0.
<mgrwt>
<rscale>  2 0.46551842E+03</rscale>
<asrwt>0</asrwt>
<pdfrwt beam="1">  1       21 0.22981185E-01 0.46551842E+03</pdfrwt>
<pdfrwt beam="2">  1       21 0.50982779E-01 0.46551842E+03</pdfrwt>
<totfact> 0.59903277E+04</totfact>
</mgrwt>
</event>
<event>
 7    0  0.4793433E-002  0.4531845E+03  0.7546771E-02  0.1026777E+00
         21   -1    0    0  502  501  0.00000000000E+00  0.00000000000E+00  0.69137806337E+03  0.69137806337E+03  0.00000000000E+00 0.  1.
         21   -1    0    0  501  502 -0.00000000000E+00 -0.00000000000E+00 -0.74263343108E+02  0.74263343108E+02  0.00000000000E+00 0.  1.
      99926    2    1    2    0    0  0.00000000000E+00 -0.71054273576E-14  0.61711472026E+03  0.76564140648E+03  0.45318449372E+03 0.  0.
      99925    2    3    3    0    0  0.71498087830E+02 -0.44615859393E+02  0.51213069743E+03  0.58187061276E+03  0.26304563725E+03 0.  0.
         25    1    4    4    0    0  0.33362910140E+02  0.18897907614E+02  0.24220499263E+03  0.27528345616E+03  0.12509000000E+03 0.  0.
         25    1    3    3    0    0 -0.71498087830E+02  0.44615859393E+02  0.10498402283E+03  0.18377079372E+03  0.12509000000E+03 0.  0.
         25    1    4    4    0    0  0.38135177691E+02 -0.63513767008E+02  0.26992570480E+03  0.30658715660E+03  0.12509000000E+03 0.  0.
<mgrwt>
<rscale>  2 0.45318449E+03</rscale>
<asrwt>0</asrwt>
<pdfrwt beam="1">  1       21 0.10167324E+00 0.45318449E+03</pdfrwt>
<pdfrwt beam="2">  1       21 0.10921080E-01 0.45318449E+03</pdfrwt>
<totfact> 0.50182854E+04</totfact>
</mgrwt>
</event>
<event>
 7    0  0.4793433E-002  0.4502820E+03  0.7546771E-02  0.1027638E+00
         21   -1    0    0  502  501  0.00000000000E+00  0.00000000000E+00  0.54883924789E+03  0.54883924789E+03  0.00000000000E+00 0.  1.
         21   -1    0    0  501  502 -0.00000000000E+00 -0.00000000000E+00 -0.92355781298E+02  0.92355781298E+02  0.00000000000E+00 0.  1.
      99926    2    1    2    0    0  0.35527136788E-14  0.00000000000E+00  0.45648346660E+03  0.64119502919E+03  0.45028203405E+03 0.  0.
      99925    2    3    3    0    0 -0.27211506191E+02  0.51458590897E+02  0.41920928542E+03  0.49827783174E+03  0.26297513185E+03 0.  0.
         25    1    3    3    0    0  0.27211506191E+02 -0.51458590897E+02  0.37274181177E+02  0.14291719746E+03  0.12509000000E+03 0.  0.
         25    1    4    4    0    0 -0.37085834215E+02  0.37395585350E+02  0.15899326355E+03  0.20904582000E+03  0.12509000000E+03 0.  0.
         25    1    4    4    0    0  0.98743280237E+01  0.14063005547E+02  0.26021602186E+03  0.28923201174E+03  0.12509000000E+03 0.  0.
<mgrwt>
<rscale>  2 0.45028203E+03</rscale>
<asrwt>0</asrwt>
<pdfrwt beam="1">  1       21 0.80711652E-01 0.45028203E+03</pdfrwt>
<pdfrwt beam="2">  1       21 0.13581733E-01 0.45028203E+03</pdfrwt>
<totfact> 0.58353924E+04</totfact>
</mgrwt>
</event>
<event>
 7    0  0.4793433E-002  0.4631254E+03  0.7546771E-02  0.1023879E+00
         21   -1    0    0  502  501  0.00000000000E+00  0.00000000000E+00  0.15703514761E+03  0.15703514761E+03  0.00000000000E+00 0. -1.
         21   -1    0    0  501  502 -0.00000000000E+00 -0.00000000000E+00 -0.34146041960E+03  0.34146041960E+03  0.00000000000E+00 0. -1.
      99926    2    1    2    0    0  0.14210854715E-13 -0.71054273576E-14 -0.18442527200E+03  0.49849556721E+03  0.46312541452E+03 0.  0.
      99925    2    3    3    0    0 -0.11196850982E+03  0.43805247624E+02 -0.10372794628E+03  0.30714402322E+03  0.26291085419E+03 0.  0.
         25    1    4    4    0    0 -0.68871014998E+02  0.57497482406E+02 -0.36950669087E+02  0.15830994042E+03  0.12509000000E+03 0.  0.
         25    1    4    4    0    0 -0.43097494818E+02 -0.13692234783E+02 -0.66777277188E+02  0.14883408280E+03  0.12509000000E+03 0.  0.
         25    1    3    3    0    0  0.11196850982E+03 -0.43805247624E+02 -0.80697325722E+02  0.19135154399E+03  0.12509000000E+03 0.  0.
<mgrwt>
<rscale>  2 0.46312541E+03</rscale>
<asrwt>0</asrwt>
<pdfrwt beam="1">  1       21 0.23093404E-01 0.46312541E+03</pdfrwt>
<pdfrwt beam="2">  1       21 0.50214767E-01 0.46312541E+03</pdfrwt>
<totfact> 0.61324321E+04</totfact>
</mgrwt>
</event>
<event>
 7    0  0.4793433E-002  0.4579615E+03  0.7546771E-02  0.1025374E+00
         21   -1    0    0  502  501  0.00000000000E+00  0.00000000000E+00  0.46625303109E+02  0.46625303109E+02  0.00000000000E+00 0. -1.
         21   -1    0    0  501  502 -0.00000000000E+00 -0.00000000000E+00 -0.11245436879E+04  0.11245436879E+04  0.00000000000E+00 0. -1.
      99926    2    1    2    0    0  0.00000000000E+00  0.71054273576E-14 -0.10779183848E+04  0.11711689910E+04  0.45796152811E+03 0.  0.
      99925    2    3    3    0    0 -0.64032645948E+02  0.47377204031E+02 -0.46063042189E+03  0.53631726308E+03  0.26288979041E+03 0.  0.
         25    1    4    4    0    0 -0.56596490166E+02  0.16772186106E+02 -0.17621849324E+03  0.22401994193E+03  0.12509000000E+03 0.  0.
         25    1    4    4    0    0 -0.74361557819E+01  0.30605017925E+02 -0.28441192865E+03  0.31229732115E+03  0.12509000000E+03 0.  0.
         25    1    3    3    0    0  0.64032645948E+02 -0.47377204031E+02 -0.61728796289E+03  0.63485172792E+03  0.12509000000E+03 0.  0.
<mgrwt>
<rscale>  2 0.45796153E+03</rscale>
<asrwt>0</asrwt>
<pdfrwt beam="1">  1       21 0.68566625E-02 0.45796153E+03</pdfrwt>
<pdfrwt beam="2">  1       21 0.16537407E+00 0.45796153E+03</pdfrwt>
<totfact> 0.32330840E+04</totfact>
</mgrwt>
</event>
<event>
 7    0  0.4793433E-002  0.4571686E+03  0.7546771E-02  0.1025606E+00
         21   -1    0    0  502  501  0.00000000000E+00  0.00000000000E+00  0.42158599686E+03  0.42158599686E+03  0.00000000000E+00 0. -1.
         21   -1    0    0  501  502 -0.00000000000E+00 -0.00000000000E+00 -0.12393861617E+03  0.12393861617E+03  0.00000000000E+00 0. -1.
      99926    2    1    2    0    0  0.00000000000E+00  0.00000000000E+00  0.29764738068E+03  0.54552461303E+03  0.45716861243E+03 0.  0.
      99925    2    3    3    0    0  0.32913521625E+02 -0.10528997755E+03  0.14730679807E+03  0.32098268341E+03  0.26298538175E+03 0.  0.
         25    1    4    4    0    0 -0.10028747362E+02 -0.35115835025E+02  0.38428979429E+02  0.13586019359E+03  0.12509000000E+03 0.  0.
         25    1    4    4    0    0  0.42942268988E+02 -0.70174142520E+02  0.10887781864E+03  0.18512248982E+03  0.12509000000E+03 0.  0.
         25    1    3    3    0    0 -0.32913521625E+02  0.10528997755E+03  0.15034058261E+03  0.22454192962E+03  0.12509000000E+03 0.  0.
<mgrwt>
<rscale>  2 0.45716861E+03</rscale>
<asrwt>0</asrwt>
<pdfrwt beam="1">  1       21 0.61997940E-01 0.45716861E+03</pdfrwt>
<pdfrwt beam="2">  1       21 0.18226267E-01 0.45716861E+03</pdfrwt>
<totfact> 0.61107847E+04</totfact>
</mgrwt>
</event>
<event>
 7    0  0.4793433E-002  0.4541493E+03  0.7546771E-02  0.1026492E+00
         21   -1    0    0  502  501  0.00000000000E+00  0.00000000000E+00  0.75131249212E+03  0.75131249212E+03  0.00000000000E+00 0.  1.
         21   -1    0    0  501  502 -0.00000000000E+00 -0.00000000000E+00 -0.68630437080E+02  0.68630437080E+02  0.00000000000E+00 0.  1.
      99926    2    1    2    0    0  0.00000000000E+00  0.00000000000E+00  0.68268205504E+03  0.81994292920E+03  0.45414933543E+03 0.  0.
      99925    2    3    3    0    0  0.11064997014E+03 -0.19219494429E+02  0.44178391560E+03  0.52618754364E+03  0.26284500783E+03 0.  0.
         25    1    4    4    0    0  0.60049030945E+02 -0.49721822691E+02  0.22110956644E+03  0.26573500756E+03  0.12509000000E+03 0.  0.
         25    1    4    4    0    0  0.50600939195E+02  0.30502328262E+02  0.22067434916E+03  0.26045253608E+03  0.12509000000E+03 0.  0.
         25    1    3    3    0    0 -0.11064997014E+03  0.19219494429E+02  0.24089813944E+03  0.29375538556E+03  0.12509000000E+03 0.  0.
<mgrwt>
<rscale>  2 0.45414934E+03</rscale>
<asrwt>0</asrwt>
<pdfrwt beam="1">  1       21 0.11048713E+00 0.45414934E+03</pdfrwt>
<pdfrwt beam="2">  1       21 0.10092712E-01 0.45414934E+03</pdfrwt>
<totfact> 0.47129077E+04</totfact>
</mgrwt>
</event>
<event>
 7    0  0.4793433E-002  0.4073130E+03  0.7546771E-02  0.1041276E+00
         21   -1    0    0  502  501  0.00000000000E+00  0.00000000000E+00  0.36194535737E+02  0.36194535737E+02  0.00000000000E+00 0.  1.
         21   -1    0    0  501  502 -0.00000000000E+00 -0.00000000000E+00 -0.11459177676E+04  0.11459177676E+04  0.00000000000E+00 0.  1.
      99926    2    1    2    0    0 -0.35527136788E-14  0.00000000000E+00 -0.11097232319E+04  0.11821123033E+04  0.40731295874E+03 0.  0.
      99925    2    3    3    0    0  0.23882919215E+02  0.36882174578E+02 -0.84447204339E+03  0.88557159834E+03  0.26300824149E+03 0.  0.
         25    1    3    3    0    0 -0.23882919215E+02 -0.36882174578E+02 -0.26525118846E+03  0.29654070498E+03  0.12509000000E+03 0.  0.
         25    1    4    4    0    0  0.51148319691E+02  0.29902652665E+02 -0.44437249055E+03  0.46542962701E+03  0.12509000000E+03 0.  0.
         25    1    4    4    0    0 -0.27265400475E+02  0.69795219129E+01 -0.40009955284E+03  0.42014197133E+03  0.12509000000E+03 0.  0.
<mgrwt>
<rscale>  2 0.40731296E+03</rscale>
<asrwt>0</asrwt>
<pdfrwt beam="1">  1       21 0.53227254E-02 0.40731296E+03</pdfrwt>
<pdfrwt beam="2">  1       21 0.16851733E+00 0.40731296E+03</pdfrwt>
<totfact> 0.48339964E+04</totfact>
</mgrwt>
</event>
<event>
 7    0  0.4793433E-002  0.4564046E+03  0.7546771E-02  0.1025829E+00
         21   -1    0    0  502  501  0.00000000000E+00  0.00000000000E+00  0.78039874917E+03  0.78039874917E+03  0.00000000000E+00 0.  1.
         21   -1    0    0  501  502 -0.00000000000E+00 -0.00000000000E+00 -0.66730356121E+02  0.66730356121E+02  0.00000000000E+00 0.  1.
      99926    2    1    2    0    0  0.17763568394E-14  0.00000000000E+00  0.71366839304E+03  0.84712910529E+03  0.45640458564E+03 0.  0.
      99925    2    3    3    0    0 -0.22661822744E+01  0.11134849744E+03  0.39899699436E+03  0.49066140589E+03  0.26295701218E+03 0.  0.
         25    1    4    4    0    0  0.37808236672E+02  0.43583962607E+02  0.19473363882E+03  0.23853243542E+03  0.12509000000E+03 0.  0.
         25    1    3    3    0    0  0.22661822744E+01 -0.11134849744E+03  0.31467139869E+03  0.35646769940E+03  0.12509000000E+03 0.  0.
         25    1    4    4    0    0 -0.40074418946E+02  0.67764534836E+02  0.20426335554E+03  0.25212897047E+03  0.12509000000E+03 0.  0.
<mgrwt>
<rscale>  2 0.45640459E+03</rscale>
<asrwt>0</asrwt>
<pdfrwt beam="1">  1       21 0.11476452E+00 0.45640459E+03</pdfrwt>
<pdfrwt beam="2">  1       21 0.98132881E-02 0.45640459E+03</pdfrwt>
<totfact> 0.45069414E+04</totfact>
</mgrwt>
</event>
<event>
 7    0  0.4793433E-002  0.4487160E+03  0.7546771E-02  0.1028106E+00
         21   -1    0    0  502  501  0.00000000000E+00  0.00000000000E+00  0.15724650948E+03  0.15724650948E+03  0.00000000000E+00 0. -1.
         21   -1    0    0  501  502 -0.00000000000E+00 -0.00000000000E+00 -0.32011214971E+03  0.32011214971E+03  0.00000000000E+00 0. -1.
      99926    2    1    2    0    0  0.00000000000E+00  0.88817841970E-15 -0.16286564024E+03  0.47735865919E+03  0.44871602683E+03 0.  0.
      99925    2    3    3    0    0 -0.52687635413E+02  0.35659629187E+01 -0.37951485768E+01  0.26821843725E+03  0.26294110350E+03 0.  0.
         25    1    4    4    0    0 -0.64858283916E+02  0.14540910708E+02  0.51150947412E+01  0.14174521992E+03  0.12509000000E+03 0.  0.
         25    1    3    3    0    0  0.52687635413E+02 -0.35659629187E+01 -0.15907049166E+03  0.20914022194E+03  0.12509000000E+03 0.  0.
         25    1    4    4    0    0  0.12170648503E+02 -0.10974947789E+02 -0.89102433180E+01  0.12647321732E+03  0.12509000000E+03 0.  0.
<mgrwt>
<rscale>  2 0.44871603E+03</rscale>
<asrwt>0</asrwt>
<pdfrwt beam="1">  1       21 0.23124487E-01 0.44871603E+03</pdfrwt>
<pdfrwt beam="2">  1       21 0.47075315E-01 0.44871603E+03</pdfrwt>
<totfact> 0.70336318E+04</totfact>
</mgrwt>
</event>
<event>
 7    0  0.4793433E-002  0.4535970E+03  0.7546771E-02  0.1026655E+00
         21   -1    0    0  502  501  0.00000000000E+00  0.00000000000E+00  0.20629414259E+03  0.20629414259E+03  0.00000000000E+00 0.  1.
         21   -1    0    0  501  502 -0.00000000000E+00 -0.00000000000E+00 -0.24934081680E+03  0.24934081680E+03  0.00000000000E+00 0.  1.
      99926    2    1    2    0    0 -0.35527136788E-14  0.00000000000E+00 -0.43046674210E+02  0.45563495939E+03  0.45359695772E+03 0.  0.
      99925    2    3    3    0    0  0.27894729121E+02 -0.93125395323E+02  0.28510398475E+02  0.28180061894E+03  0.26296062604E+03 0.  0.
         25    1    4    4    0    0 -0.25210576169E+02 -0.50354029818E+02  0.39960399548E+01  0.13723912673E+03  0.12509000000E+03 0.  0.
         25    1    4    4    0    0  0.53105305290E+02 -0.42771365505E+02  0.24514358521E+02  0.14456149221E+03  0.12509000000E+03 0.  0.
         25    1    3    3    0    0 -0.27894729121E+02  0.93125395323E+02 -0.71557072685E+02  0.17383434045E+03  0.12509000000E+03 0.  0.
<mgrwt>
<rscale>  2 0.45359696E+03</rscale>
<asrwt>0</asrwt>
<pdfrwt beam="1">  1       21 0.30337374E-01 0.45359696E+03</pdfrwt>
<pdfrwt beam="2">  1       21 0.36667767E-01 0.45359696E+03</pdfrwt>
<totfact> 0.69271513E+04</totfact>
</mgrwt>
</event>
<event>
 7    0  0.4793433E-002  0.4533884E+03  0.7546771E-02  0.1026716E+00
         21   -1    0    0  502  501  0.00000000000E+00  0.00000000000E+00  0.32175823035E+03  0.32175823035E+03  0.00000000000E+00 0.  1.
         21   -1    0    0  501  502 -0.00000000000E+00 -0.00000000000E+00 -0.15971701107E+03  0.15971701107E+03  0.00000000000E+00 0.  1.
      99926    2    1    2    0    0 -0.37747582837E-14  0.17763568394E-14  0.16204121928E+03  0.48147524142E+03  0.45338841114E+03 0.  0.
      99925    2    3    3    0    0  0.14102840060E+01  0.12380877276E+02  0.21991638111E+03  0.34308334325E+03  0.26303553128E+03 0.  0.
         25    1    4    4    0    0 -0.35713148895E+02  0.22181531256E+02  0.12114454490E+03  0.17913949367E+03  0.12509000000E+03 0.  0.
         25    1    4    4    0    0  0.37123432901E+02 -0.98006539798E+01  0.98771836202E+02  0.16394384958E+03  0.12509000000E+03 0.  0.
         25    1    3    3    0    0 -0.14102840060E+01 -0.12380877276E+02 -0.57875161826E+02  0.13839189817E+03  0.12509000000E+03 0.  0.
<mgrwt>
<rscale>  2 0.45338841E+03</rscale>
<asrwt>0</asrwt>
<pdfrwt beam="1">  1       21 0.47317387E-01 0.45338841E+03</pdfrwt>
<pdfrwt beam="2">  1       21 0.23487796E-01 0.45338841E+03</pdfrwt>
<totfact> 0.67451640E+04</totfact>
</mgrwt>
</event>
<event>
 7    0  0.4793433E-002  0.4545773E+03  0.7546771E-02  0.1026366E+00
         21   -1    0    0  502  501  0.00000000000E+00  0.00000000000E+00  0.35560484721E+03  0.35560484721E+03  0.00000000000E+00 0. -1.
         21   -1    0    0  501  502 -0.00000000000E+00 -0.00000000000E+00 -0.14527396774E+03  0.14527396774E+03  0.00000000000E+00 0. -1.
      99926    2    1    2    0    0  0.00000000000E+00  0.00000000000E+00  0.21033087947E+03  0.50087881495E+03  0.45457728541E+03 0.  0.
      99925    2    3    3    0    0 -0.57739613575E+02 -0.84192015312E+02  0.79592076241E+02  0.29312342708E+03  0.26299103879E+03 0.  0.
         25    1    4    4    0    0 -0.39709454706E+02 -0.10912492249E+02  0.12262899247E+02  0.13226416778E+03  0.12509000000E+03 0.  0.
         25    1    4    4    0    0 -0.18030158869E+02 -0.73279523062E+02  0.67329176994E+02  0.16085925930E+03  0.12509000000E+03 0.  0.
         25    1    3    3    0    0  0.57739613575E+02  0.84192015312E+02  0.13073880323E+03  0.20775538787E+03  0.12509000000E+03 0.  0.
<mgrwt>
<rscale>  2 0.45457729E+03</rscale>
<asrwt>0</asrwt>
<pdfrwt beam="1">  1       21 0.52294831E-01 0.45457729E+03</pdfrwt>
<pdfrwt beam="2">  1       21 0.21363819E-01 0.45457729E+03</pdfrwt>
<totfact> 0.65428233E+04</totfact>
</mgrwt>
</event>
<event>
 7    0  0.4793433E-002  0.4515131E+03  0.7546771E-02  0.1027272E+00
         21   -1    0    0  502  501  0.00000000000E+00  0.00000000000E+00  0.11726762552E+03  0.11726762552E+03  0.00000000000E+00 0. -1.
         21   -1    0    0  501  502 -0.00000000000E+00 -0.00000000000E+00 -0.43461286379E+03  0.43461286379E+03  0.00000000000E+00 0. -1.
      99926    2    1    2    0    0  0.00000000000E+00  0.00000000000E+00 -0.31734523826E+03  0.55188048931E+03  0.45151309420E+03 0.  0.
      99925    2    3    3    0    0 -0.12699754840E+02 -0.10286530094E+03 -0.15586614040E+03  0.32282686883E+03  0.26302163334E+03 0.  0.
         25    1    4    4    0    0  0.26830218929E+01 -0.45438167733E+02 -0.12127152409E+03  0.18007253080E+03  0.12509000000E+03 0.  0.
         25    1    4    4    0    0 -0.15382776733E+02 -0.57427133202E+02 -0.34594616307E+02  0.14275433803E+03  0.12509000000E+03 0.  0.
         25    1    3    3    0    0  0.12699754840E+02  0.10286530094E+03 -0.16147909787E+03  0.22905362048E+03  0.12509000000E+03 0.  0.
<mgrwt>
<rscale>  2 0.45151309E+03</rscale>
<asrwt>0</asrwt>
<pdfrwt beam="1">  1       21 0.17245239E-01 0.45151309E+03</pdfrwt>
<pdfrwt beam="2">  1       21 0.63913657E-01 0.45151309E+03</pdfrwt>
<totfact> 0.63475448E+04</totfact>
</mgrwt>
</event>
<event>
 7    0  0.4793433E-002  0.4548595E+03  0.7546771E-02  0.1026283E+00
         21   -1    0    0  502  501  0.00000000000E+00  0.00000000000E+00  0.49870175695E+03  0.49870175695E+03  0.00000000000E+00 0.  1.
         21   -1    0    0  501  502 -0.00000000000E+00 -0.00000000000E+00 -0.10371788609E+03  0.10371788609E+03  0.00000000000E+00 0.  1.
      99926    2    1    2    0    0  0.14210854715E-13 -0.53290705182E-14  0.39498387086E+03  0.60241964304E+03  0.45485950367E+03 0.  0.
      99925    2    3    3    0    0 -0.83454647792E+02  0.12526202492E+02  0.14890560792E+03  0.31376136136E+03  0.26296716112E+03 0.  0.
         25    1    4    4    0    0 -0.67869643836E+02 -0.25133451226E+02  0.82070860606E+02  0.16619600833E+03  0.12509000000E+03 0.  0.
         25    1    3    3    0    0  0.83454647792E+02 -0.12526202492E+02  0.24607826294E+03  0.28865828167E+03  0.12509000000E+03 0.  0.
         25    1    4    4    0    0 -0.15585003956E+02  0.37659653718E+02  0.66834747316E+02  0.14756535303E+03  0.12509000000E+03 0.  0.
<mgrwt>
<rscale>  2 0.45485950E+03</rscale>
<asrwt>0</asrwt>
<pdfrwt beam="1">  1       21 0.73338493E-01 0.45485950E+03</pdfrwt>
<pdfrwt beam="2">  1       21 0.15252630E-01 0.45485950E+03</pdfrwt>
<totfact> 0.58594594E+04</totfact>
</mgrwt>
</event>
<event>
 7    0  0.4793433E-002  0.4566001E+03  0.7546771E-02  0.1025772E+00
         21   -1    0    0  502  501  0.00000000000E+00  0.00000000000E+00  0.66377372535E+03  0.66377372535E+03  0.00000000000E+00 0.  1.
         21   -1    0    0  501  502 -0.00000000000E+00 -0.00000000000E+00 -0.78522105137E+02  0.78522105137E+02  0.00000000000E+00 0.  1.
      99926    2    1    2    0    0  0.17763568394E-14  0.00000000000E+00  0.58525162021E+03  0.74229583049E+03  0.45660008870E+03 0.  0.
      99925    2    3    3    0    0 -0.14127181219E+02  0.11254443796E+02  0.18362337116E+03  0.32125070429E+03  0.26297952927E+03 0.  0.
         25    1    3    3    0    0  0.14127181219E+02 -0.11254443796E+02  0.40162824906E+03  0.42104512620E+03  0.12509000000E+03 0.  0.
         25    1    4    4    0    0 -0.41460050030E+02 -0.11331784649E+02  0.10860152177E+03  0.17114071322E+03  0.12509000000E+03 0.  0.
         25    1    4    4    0    0  0.27332868811E+02  0.22586228445E+02  0.75021849391E+02  0.15010999107E+03  0.12509000000E+03 0.  0.
<mgrwt>
<rscale>  2 0.45660009E+03</rscale>
<asrwt>0</asrwt>
<pdfrwt beam="1">  1       21 0.97613780E-01 0.45660009E+03</pdfrwt>
<pdfrwt beam="2">  1       21 0.11547369E-01 0.45660009E+03</pdfrwt>
<totfact> 0.50033677E+04</totfact>
</mgrwt>
</event>
<event>
 7    0  0.4793433E-002  0.4501682E+03  0.7546771E-02  0.1027672E+00
         21   -1    0    0  502  501  0.00000000000E+00  0.00000000000E+00  0.70063333109E+02  0.70063333109E+02  0.00000000000E+00 0.  1.
         21   -1    0    0  501  502 -0.00000000000E+00 -0.00000000000E+00 -0.72310087267E+03  0.72310087267E+03  0.00000000000E+00 0.  1.
      99926    2    1    2    0    0  0.00000000000E+00  0.00000000000E+00 -0.65303753956E+03  0.79316420578E+03  0.45016822328E+03 0.  0.
      99925    2    3    3    0    0 -0.59099339819E+02 -0.50231316890E+02 -0.54648901610E+03  0.61146111523E+03  0.26309415341E+03 0.  0.
         25    1    4    4    0    0 -0.41040952890E+02  0.87620874224E+00 -0.20352036323E+03  0.24239054005E+03  0.12509000000E+03 0.  0.
         25    1    3    3    0    0  0.59099339819E+02  0.50231316890E+02 -0.10654852347E+03  0.18170309055E+03  0.12509000000E+03 0.  0.
         25    1    4    4    0    0 -0.18058386929E+02 -0.51107525632E+02 -0.34296865286E+03  0.36907057518E+03  0.12509000000E+03 0.  0.
<mgrwt>
<rscale>  2 0.45016822E+03</rscale>
<asrwt>0</asrwt>
<pdfrwt beam="1">  1       21 0.10303431E-01 0.45016822E+03</pdfrwt>
<pdfrwt beam="2">  1       21 0.10633836E+00 0.45016822E+03</pdfrwt>
<totfact> 0.49965199E+04</totfact>
</mgrwt>
</event>
<event>
 7    0  0.4793433E-002  0.4495668E+03  0.7546771E-02  0.1027851E+00
         21   -1    0    0  502  501  0.00000000000E+00  0.00000000000E+00  0.15096327361E+02  0.15096327361E+02  0.00000000000E+00 0. -1.
         21   -1    0    0  501  502 -0.00000000000E+00 -0.00000000000E+00 -0.33470107528E+04  0.33470107528E+04  0.00000000000E+00 0. -1.
      99926    2    1    2    0    0  0.14210854715E-13  0.88817841970E-15 -0.33319144254E+04  0.33621070801E+04  0.44956676926E+03 0.  0.
      99925    2    3    3    0    0 -0.10399753700E+03  0.68007217620E+01 -0.18946153941E+04  0.19156155485E+04  0.26297091219E+03 0.  0.
         25    1    4    4    0    0 -0.17367326119E+02  0.23373912051E+02 -0.77122525446E+03  0.78184644592E+03  0.12509000000E+03 0.  0.
         25    1    3    3    0    0  0.10399753700E+03 -0.68007217620E+01 -0.14372990313E+04  0.14464915316E+04  0.12509000000E+03 0.  0.
         25    1    4    4    0    0 -0.86630210880E+02 -0.16573190289E+02 -0.11233901397E+04  0.11337691026E+04  0.12509000000E+03 0.  0.
<mgrwt>
<rscale>  2 0.44956677E+03</rscale>
<asrwt>0</asrwt>
<pdfrwt beam="1">  1       21 0.22200458E-02 0.44956677E+03</pdfrwt>
<pdfrwt beam="2">  1       21 0.49220799E+00 0.44956677E+03</pdfrwt>
<totfact> 0.17574278E+03</totfact>
</mgrwt>
</event>
<event>
 7    0  0.4793433E-002  0.4629439E+03  0.7546771E-02  0.1023931E+00
         21   -1    0    0  502  501  0.00000000000E+00  0.00000000000E+00  0.33513561785E+03  0.33513561785E+03  0.00000000000E+00 0.  1.
         21   -1    0    0  501  502 -0.00000000000E+00 -0.00000000000E+00 -0.15987337732E+03  0.15987337732E+03  0.00000000000E+00 0.  1.
      99926    2    1    2    0    0  0.00000000000E+00  0.00000000000E+00  0.17526224053E+03  0.49500899517E+03  0.46294389762E+03 0.  0.
      99925    2    3    3    0    0  0.83573089616E+02  0.45259653697E+02  0.18872857456E+03  0.33733291007E+03  0.26294889199E+03 0.  0.
         25    1    3    3    0    0 -0.83573089616E+02 -0.45259653697E+02 -0.13466334034E+02  0.15767608510E+03  0.12509000000E+03 0.  0.
         25    1    4    4    0    0  0.73808084572E+02  0.80776243798E+01  0.12491206591E+03  0.19173787751E+03  0.12509000000E+03 0.  0.
         25    1    4    4    0    0  0.97650050437E+01  0.37182029317E+02  0.63816508653E+02  0.14559503255E+03  0.12509000000E+03 0.  0.
<mgrwt>
<rscale>  2 0.46294390E+03</rscale>
<asrwt>0</asrwt>
<pdfrwt beam="1">  1       21 0.49284650E-01 0.46294390E+03</pdfrwt>
<pdfrwt beam="2">  1       21 0.23510791E-01 0.46294390E+03</pdfrwt>
<totfact> 0.61642637E+04</totfact>
</mgrwt>
</event>
<event>
 7    0  0.4793433E-002  0.4177977E+03  0.7546771E-02  0.1037785E+00
         21   -1    0    0  502  501  0.00000000000E+00  0.00000000000E+00  0.37940705225E+02  0.37940705225E+02  0.00000000000E+00 0. -1.
         21   -1    0    0  501  502 -0.00000000000E+00 -0.00000000000E+00 -0.11501823679E+04  0.11501823679E+04  0.00000000000E+00 0. -1.
      99926    2    1    2    0    0  0.00000000000E+00  0.00000000000E+00 -0.11122416626E+04  0.11881230731E+04  0.41779770307E+03 0.  0.
      99925    2    3    3    0    0 -0.33598171227E+02 -0.64668754156E+02 -0.73750312124E+03  0.78639260700E+03  0.26304295016E+03 0.  0.
         25    1    4    4    0    0 -0.43122425104E+02 -0.62761637019E+02 -0.36279346224E+03  0.39123544186E+03  0.12509000000E+03 0.  0.
         25    1    3    3    0    0  0.33598171227E+02  0.64668754156E+02 -0.37473854139E+03  0.40173046608E+03  0.12509000000E+03 0.  0.
         25    1    4    4    0    0  0.95242538766E+01 -0.19071171364E+01 -0.37470965900E+03  0.39515716513E+03  0.12509000000E+03 0.  0.
<mgrwt>
<rscale>  2 0.41779770E+03</rscale>
<asrwt>0</asrwt>
<pdfrwt beam="1">  1       21 0.55795161E-02 0.41779770E+03</pdfrwt>
<pdfrwt beam="2">  1       21 0.16914445E+00 0.41779770E+03</pdfrwt>
<totfact> 0.43955968E+04</totfact>
</mgrwt>
</event>
<event>
 7    0  0.4793433E-002  0.4546206E+03  0.7546771E-02  0.1026353E+00
         21   -1    0    0  502  501  0.00000000000E+00  0.00000000000E+00  0.94773789167E+03  0.94773789167E+03  0.00000000000E+00 0.  1.
         21   -1    0    0  501  502 -0.00000000000E+00 -0.00000000000E+00 -0.54519252827E+02  0.54519252827E+02  0.00000000000E+00 0.  1.
      99926    2    1    2    0    0 -0.14210854715E-13 -0.44408920985E-15  0.89321863884E+03  0.10022571445E+04  0.45462055268E+03 0.  0.
      99925    2    3    3    0    0 -0.94095995040E+02  0.32591330298E+01  0.42561998033E+03  0.50914387984E+03  0.26307878002E+03 0.  0.
         25    1    4    4    0    0 -0.20943728904E+02  0.80424522929E+01  0.14166737771E+03  0.19031677495E+03  0.12509000000E+03 0.  0.
         25    1    3    3    0    0  0.94095995040E+02 -0.32591330298E+01  0.46759865852E+03  0.49311326465E+03  0.12509000000E+03 0.  0.
         25    1    4    4    0    0 -0.73152266136E+02 -0.47833192631E+01  0.28395260262E+03  0.31882710490E+03  0.12509000000E+03 0.  0.
<mgrwt>
<rscale>  2 0.45462055E+03</rscale>
<asrwt>0</asrwt>
<pdfrwt beam="1">  1       21 0.13937321E+00 0.45462055E+03</pdfrwt>
<pdfrwt beam="2">  1       21 0.80175378E-02 0.45462055E+03</pdfrwt>
<totfact> 0.39195140E+04</totfact>
</mgrwt>
</event>
<event>
 7    0  0.4793433E-002  0.4616130E+03  0.7546771E-02  0.1024314E+00
         21   -1    0    0  502  501  0.00000000000E+00  0.00000000000E+00  0.81564389551E+02  0.81564389551E+02  0.00000000000E+00 0. -1.
         21   -1    0    0  501  502 -0.00000000000E+00 -0.00000000000E+00 -0.65312371583E+03  0.65312371583E+03  0.00000000000E+00 0. -1.
      99926    2    1    2    0    0  0.00000000000E+00  0.17763568394E-14 -0.57155932628E+03  0.73468810538E+03  0.46161298588E+03 0.  0.
      99925    2    3    3    0    0 -0.10563060389E+03 -0.62334982668E+01 -0.44539231390E+03  0.52789762182E+03  0.26287811789E+03 0.  0.
         25    1    4    4    0    0 -0.25690478185E+02  0.14341460451E+02 -0.25542894394E+03  0.28593204028E+03  0.12509000000E+03 0.  0.
         25    1    3    3    0    0  0.10563060389E+03  0.62334982668E+01 -0.12616701238E+03  0.20679048356E+03  0.12509000000E+03 0.  0.
         25    1    4    4    0    0 -0.79940125700E+02 -0.20574958718E+02 -0.18996336996E+03  0.24196558154E+03  0.12509000000E+03 0.  0.
<mgrwt>
<rscale>  2 0.46161299E+03</rscale>
<asrwt>0</asrwt>
<pdfrwt beam="1">  1       21 0.11994763E-01 0.46161299E+03</pdfrwt>
<pdfrwt beam="2">  1       21 0.96047606E-01 0.46161299E+03</pdfrwt>
<totfact> 0.48488941E+04</totfact>
</mgrwt>
</event>
<event>
 7    0  0.4793433E-002  0.4610004E+03  0.7546771E-02  0.1024491E+00
         21   -1    0    0  502  501  0.00000000000E+00  0.00000000000E+00  0.16583592494E+03  0.16583592494E+03  0.00000000000E+00 0. -1.
         21   -1    0    0  501  502 -0.00000000000E+00 -0.00000000000E+00 -0.32037892480E+03  0.32037892480E+03  0.00000000000E+00 0. -1.
      99926    2    1    2    0    0 -0.17763568394E-14 -0.71054273576E-14 -0.15454299987E+03  0.48621484974E+03  0.46100037017E+03 0.  0.
      99925    2    3    3    0    0 -0.11113725180E+02  0.48863874130E+02  0.16650316830E+02  0.26834825555E+03  0.26310142554E+03 0.  0.
         25    1    3    3    0    0  0.11113725180E+02 -0.48863874130E+02 -0.17119331670E+03  0.21786659419E+03  0.12509000000E+03 0.  0.
         25    1    4    4    0    0  0.34534957944E+02  0.21274130933E+02  0.14964522475E+02  0.13235065924E+03  0.12509000000E+03 0.  0.
         25    1    4    4    0    0 -0.45648683124E+02  0.27589743197E+02  0.16857943558E+01  0.13599759631E+03  0.12509000000E+03 0.  0.
<mgrwt>
<rscale>  2 0.46100037E+03</rscale>
<asrwt>0</asrwt>
<pdfrwt beam="1">  1       21 0.24387636E-01 0.46100037E+03</pdfrwt>
<pdfrwt beam="2">  1       21 0.47114548E-01 0.46100037E+03</pdfrwt>
<totfact> 0.63186713E+04</totfact>
</mgrwt>
</event>
<event>
 7    0  0.4793433E-002  0.4534870E+03  0.7546771E-02  0.1026687E+00
         21   -1    0    0  502  501  0.00000000000E+00  0.00000000000E+00  0.16987044057E+03  0.16987044057E+03  0.00000000000E+00 0. -1.
         21   -1    0    0  501  502 -0.00000000000E+00 -0.00000000000E+00 -0.30265780897E+03  0.30265780897E+03  0.00000000000E+00 0. -1.
      99926    2    1    2    0    0 -0.71054273576E-14  0.00000000000E+00 -0.13278736840E+03  0.47252824954E+03  0.45348700247E+03 0.  0.
      99925    2    3    3    0    0  0.53204719587E+02 -0.65998394800E+02 -0.15946406858E+03  0.31908221754E+03  0.26305539736E+03 0.  0.
         25    1    4    4    0    0 -0.12616202064E+02 -0.44379120109E+02 -0.73723442872E+02  0.15235264679E+03  0.12509000000E+03 0.  0.
         25    1    4    4    0    0  0.65820921651E+02 -0.21619274691E+02 -0.85740625709E+02  0.16672957075E+03  0.12509000000E+03 0.  0.
         25    1    3    3    0    0 -0.53204719587E+02  0.65998394800E+02  0.26676700182E+02  0.15344603200E+03  0.12509000000E+03 0.  0.
<mgrwt>
<rscale>  2 0.45348700E+03</rscale>
<asrwt>0</asrwt>
<pdfrwt beam="1">  1       21 0.24980947E-01 0.45348700E+03</pdfrwt>
<pdfrwt beam="2">  1       21 0.44508501E-01 0.45348700E+03</pdfrwt>
<totfact> 0.68061648E+04</totfact>
</mgrwt>
</event>
<event>
 6    0  0.4793433E-002  0.4564006E+03  0.7546771E-02  0.1025830E+00
         21   -1    0    0  502  501  0.00000000000E+00  0.00000000000E+00  0.34053932913E+03  0.34053932913E+03  0.00000000000E+00 0.  1.
         21   -1    0    0  501  502 -0.00000000000E+00 -0.00000000000E+00 -0.15292031461E+03  0.15292031461E+03  0.00000000000E+00 0.  1.
      99926    2    1    2    0    0  0.00000000000E+00 -0.17763568394E-14  0.18761901452E+03  0.49345964375E+03  0.45640061941E+03 0.  0.
         25    1    3    3    0    0  0.51819176167E+02  0.14247999322E+02  0.17011151100E+03  0.21788452625E+03  0.12509000000E+03 0.  0.
         25    1    3    3    0    0  0.42330443591E+01 -0.47396263422E+02  0.38579334975E+01  0.13389068751E+03  0.12509000000E+03 0.  0.
         25    1    3    3    0    0 -0.56052220526E+02  0.33148264100E+02  0.13649570016E+02  0.14168442999E+03  0.12509000000E+03 0.  0.
<mgrwt>
<rscale>  2 0.45640062E+03</rscale>
<asrwt>0</asrwt>
<pdfrwt beam="1">  1       21 0.50079313E-01 0.45640062E+03</pdfrwt>
<pdfrwt beam="2">  1       21 0.22488282E-01 0.45640062E+03</pdfrwt>
<totfact> 0.65006797E+04</totfact>
</mgrwt>
</event>
<event>
 7    0  0.4793433E-002  0.4462241E+03  0.7546771E-02  0.1028854E+00
         21   -1    0    0  502  501  0.00000000000E+00  0.00000000000E+00  0.92996398187E+03  0.92996398187E+03  0.00000000000E+00 0.  1.
         21   -1    0    0  501  502 -0.00000000000E+00 -0.00000000000E+00 -0.53527862259E+02  0.53527862259E+02  0.00000000000E+00 0.  1.
      99926    2    1    2    0    0 -0.14210854715E-13  0.00000000000E+00  0.87643611962E+03  0.98349184413E+03  0.44622408688E+03 0.  0.
      99925    2    3    3    0    0 -0.96998814621E+02 -0.38943548485E+02  0.57095098235E+03  0.63723464609E+03  0.26297832596E+03 0.  0.
         25    1    3    3    0    0  0.96998814621E+02  0.38943548485E+02  0.30548513727E+03  0.34625719805E+03  0.12509000000E+03 0.  0.
         25    1    4    4    0    0 -0.58186130923E+02  0.15242670310E+01  0.21141003018E+03  0.25244733744E+03  0.12509000000E+03 0.  0.
         25    1    4    4    0    0 -0.38812683698E+02 -0.40467815516E+02  0.35954095217E+03  0.38478730865E+03  0.12509000000E+03 0.  0.
<mgrwt>
<rscale>  2 0.44622409E+03</rscale>
<asrwt>0</asrwt>
<pdfrwt beam="1">  1       21 0.13675940E+00 0.44622409E+03</pdfrwt>
<pdfrwt beam="2">  1       21 0.78717450E-02 0.44622409E+03</pdfrwt>
<totfact> 0.42665574E+04</totfact>
</mgrwt>
</event>
<event>
 7    0  0.4793433E-002  0.4467529E+03  0.7546771E-02  0.1028695E+00
         21   -1    0    0  502  501  0.00000000000E+00  0.00000000000E+00  0.16830800894E+03  0.16830800894E+03  0.00000000000E+00 0.  1.
         21   -1    0    0  501  502 -0.00000000000E+00 -0.00000000000E+00 -0.29646269020E+03  0.29646269020E+03  0.00000000000E+00 0.  1.
      99926    2    1    2    0    0  0.00000000000E+00  0.00000000000E+00 -0.12815468125E+03  0.46477069914E+03  0.44675292999E+03 0.  0.
      99925    2    3    3    0    0 -0.48448261458E+02  0.93081728373E+02 -0.72436402790E+02  0.29224975302E+03  0.26296662050E+03 0.  0.
         25    1    4    4    0    0 -0.39542472418E+02  0.85460178410E+02 -0.51870061359E+02  0.16493956646E+03  0.12509000000E+03 0.  0.
         25    1    4    4    0    0 -0.89057890402E+01  0.76215499628E+01 -0.20566341431E+02  0.12731018656E+03  0.12509000000E+03 0.  0.
         25    1    3    3    0    0  0.48448261458E+02 -0.93081728373E+02 -0.55718278462E+02  0.17252094612E+03  0.12509000000E+03 0.  0.
<mgrwt>
<rscale>  2 0.44675293E+03</rscale>
<asrwt>0</asrwt>
<pdfrwt beam="1">  1       21 0.24751178E-01 0.44675293E+03</pdfrwt>
<pdfrwt beam="2">  1       21 0.43597454E-01 0.44675293E+03</pdfrwt>
<totfact> 0.72452171E+04</totfact>
</mgrwt>
</event>
<event>
 7    0  0.4793433E-002  0.4575431E+03  0.7546771E-02  0.1025496E+00
         21   -1    0    0  502  501  0.00000000000E+00  0.00000000000E+00  0.82113946789E+03  0.82113946789E+03  0.00000000000E+00 0. -1.
         21   -1    0    0  501  502 -0.00000000000E+00 -0.00000000000E+00 -0.63736331774E+02  0.63736331774E+02  0.00000000000E+00 0. -1.
      99926    2    1    2    0    0  0.71054273576E-14 -0.17763568394E-14  0.75740313612E+03  0.88487579967E+03  0.45754308019E+03 0.  0.
      99925    2    3    3    0    0 -0.38919222670E+02  0.14071026172E+02  0.68411750803E+03  0.73410779558E+03  0.26303001934E+03 0.  0.
         25    1    4    4    0    0 -0.44619641901E+02  0.33811637558E+02  0.30546754779E+03  0.33480153843E+03  0.12509000000E+03 0.  0.
         25    1    3    3    0    0  0.38919222670E+02 -0.14071026172E+02  0.73285628086E+02  0.15076800408E+03  0.12509000000E+03 0.  0.
         25    1    4    4    0    0  0.57004192305E+01 -0.19740611385E+02  0.37864996024E+03  0.39930625716E+03  0.12509000000E+03 0.  0.
<mgrwt>
<rscale>  2 0.45754308E+03</rscale>
<asrwt>0</asrwt>
<pdfrwt beam="1">  1       21 0.12075580E+00 0.45754308E+03</pdfrwt>
<pdfrwt beam="2">  1       21 0.93729905E-02 0.45754308E+03</pdfrwt>
<totfact> 0.43030681E+04</totfact>
</mgrwt>
</event>
<event>
 7    0  0.4793433E-002  0.4562149E+03  0.7546771E-02  0.1025885E+00
         21   -1    0    0  502  501  0.00000000000E+00  0.00000000000E+00  0.41450275102E+03  0.41450275102E+03  0.00000000000E+00 0. -1.
         21   -1    0    0  501  502 -0.00000000000E+00 -0.00000000000E+00 -0.12553115109E+03  0.12553115109E+03  0.00000000000E+00 0. -1.
      99926    2    1    2    0    0 -0.35527136788E-14 -0.17763568394E-14  0.28897159993E+03  0.54003390212E+03  0.45621489440E+03 0.  0.
      99925    2    3    3    0    0 -0.12693086156E+02 -0.85717111504E+01  0.47379702090E+02  0.26754767885E+03  0.26287323108E+03 0.  0.
         25    1    4    4    0    0  0.23468968503E+02 -0.29775673975E+02  0.33206291146E+02  0.13486122169E+03  0.12509000000E+03 0.  0.
         25    1    3    3    0    0  0.12693086156E+02  0.85717111504E+01  0.24159189784E+03  0.27248622327E+03  0.12509000000E+03 0.  0.
         25    1    4    4    0    0 -0.36162054659E+02  0.21203962825E+02  0.14173410944E+02  0.13268645716E+03  0.12509000000E+03 0.  0.
<mgrwt>
<rscale>  2 0.45621489E+03</rscale>
<asrwt>0</asrwt>
<pdfrwt beam="1">  1       21 0.60956287E-01 0.45621489E+03</pdfrwt>
<pdfrwt beam="2">  1       21 0.18460464E-01 0.45621489E+03</pdfrwt>
<totfact> 0.61932317E+04</totfact>
</mgrwt>
</event>
<event>
 7    0  0.4793433E-002  0.4548023E+03  0.7546771E-02  0.1026300E+00
         21   -1    0    0  502  501  0.00000000000E+00  0.00000000000E+00  0.24819302890E+03  0.24819302890E+03  0.00000000000E+00 0.  1.
         21   -1    0    0  501  502 -0.00000000000E+00 -0.00000000000E+00 -0.20835111495E+03  0.20835111495E+03  0.00000000000E+00 0.  1.
      99926    2    1    2    0    0  0.00000000000E+00  0.00000000000E+00  0.39841913951E+02  0.45654414385E+03  0.45480234957E+03 0.  0.
      99925    2    3    3    0    0 -0.48547595436E+02 -0.50811851219E+02  0.11393041079E+03  0.29506557961E+03  0.26295407302E+03 0.  0.
         25    1    3    3    0    0  0.48547595436E+02  0.50811851219E+02 -0.74088496835E+02  0.16147856424E+03  0.12509000000E+03 0.  0.
         25    1    4    4    0    0 -0.24715711527E+02  0.41336802813E+01  0.24114776497E+02  0.12983444941E+03  0.12509000000E+03 0.  0.
         25    1    4    4    0    0 -0.23831883908E+02 -0.54945531500E+02  0.89815634289E+02  0.16523113019E+03  0.12509000000E+03 0.  0.
<mgrwt>
<rscale>  2 0.45480235E+03</rscale>
<asrwt>0</asrwt>
<pdfrwt beam="1">  1       21 0.36498975E-01 0.45480235E+03</pdfrwt>
<pdfrwt beam="2">  1       21 0.30639870E-01 0.45480235E+03</pdfrwt>
<totfact> 0.68540864E+04</totfact>
</mgrwt>
</event>
<event>
 7    0  0.4793433E-002  0.4539554E+03  0.7546771E-02  0.1026549E+00
         21   -1    0    0  502  501  0.00000000000E+00  0.00000000000E+00  0.16822717739E+03  0.16822717739E+03  0.00000000000E+00 0.  1.
         21   -1    0    0  501  502 -0.00000000000E+00 -0.00000000000E+00 -0.30624590656E+03  0.30624590656E+03  0.00000000000E+00 0.  1.
      99926    2    1    2    0    0 -0.17763568394E-14  0.00000000000E+00 -0.13801872917E+03  0.47447308396E+03  0.45395543591E+03 0.  0.
      99925    2    3    3    0    0  0.11353491846E+02  0.27440051309E+02 -0.20013511164E+03  0.33168719087E+03  0.26283164095E+03 0.  0.
         25    1    4    4    0    0 -0.21597848539E+02  0.42823010592E+02 -0.10889968345E+03  0.17264682578E+03  0.12509000000E+03 0.  0.
         25    1    3    3    0    0 -0.11353491846E+02 -0.27440051309E+02  0.62116382468E+02  0.14278589308E+03  0.12509000000E+03 0.  0.
         25    1    4    4    0    0  0.32951340385E+02 -0.15382959283E+02 -0.91235428194E+02  0.15904036509E+03  0.12509000000E+03 0.  0.
<mgrwt>
<rscale>  2 0.45395544E+03</rscale>
<asrwt>0</asrwt>
<pdfrwt beam="1">  1       21 0.24739291E-01 0.45395544E+03</pdfrwt>
<pdfrwt beam="2">  1       21 0.45036162E-01 0.45395544E+03</pdfrwt>
<totfact> 0.67663841E+04</totfact>
</mgrwt>
</event>
<event>
 7    0  0.4793433E-002  0.4361376E+03  0.7546771E-02  0.1031939E+00
         21   -1    0    0  502  501  0.00000000000E+00  0.00000000000E+00  0.40573496230E+02  0.40573496230E+02  0.00000000000E+00 0. -1.
         21   -1    0    0  501  502 -0.00000000000E+00 -0.00000000000E+00 -0.11720459782E+04  0.11720459782E+04  0.00000000000E+00 0. -1.
      99926    2    1    2    0    0  0.00000000000E+00  0.14210854715E-13 -0.11314724820E+04  0.12126194744E+04  0.43613760708E+03 0.  0.
      99925    2    3    3    0    0 -0.35395958109E+02  0.79920649816E+02 -0.62509863072E+03  0.68375071051E+03  0.26291928777E+03 0.  0.
         25    1    4    4    0    0  0.13761944171E+02  0.11865704316E+02 -0.28874237559E+03  0.31519811802E+03  0.12509000000E+03 0.  0.
         25    1    4    4    0    0 -0.49157902281E+02  0.68054945500E+02 -0.33635625513E+03  0.36855259249E+03  0.12509000000E+03 0.  0.
         25    1    3    3    0    0  0.35395958109E+02 -0.79920649816E+02 -0.50637385125E+03  0.52886876392E+03  0.12509000000E+03 0.  0.
<mgrwt>
<rscale>  2 0.43613761E+03</rscale>
<asrwt>0</asrwt>
<pdfrwt beam="1">  1       21 0.59666896E-02 0.43613761E+03</pdfrwt>
<pdfrwt beam="2">  1       21 0.17235973E+00 0.43613761E+03</pdfrwt>
<totfact> 0.36886216E+04</totfact>
</mgrwt>
</event>
<event>
 7    0  0.4793433E-002  0.4374959E+03  0.7546771E-02  0.1031518E+00
         21   -1    0    0  502  501  0.00000000000E+00  0.00000000000E+00  0.27808745922E+03  0.27808745922E+03  0.00000000000E+00 0.  1.
         21   -1    0    0  501  502 -0.00000000000E+00 -0.00000000000E+00 -0.17207054465E+03  0.17207054465E+03  0.00000000000E+00 0.  1.
      99926    2    1    2    0    0  0.33306690739E-15  0.17763568394E-14  0.10601691458E+03  0.45015800387E+03  0.43749587686E+03 0.  0.
      99925    2    3    3    0    0 -0.96911735030E+00  0.90438573828E+01  0.16599546564E+03  0.31113403028E+03  0.26299650119E+03 0.  0.
         25    1    3    3    0    0  0.96911735030E+00 -0.90438573828E+01 -0.59978551065E+02  0.13902397359E+03  0.12509000000E+03 0.  0.
         25    1    4    4    0    0 -0.27315702430E+02 -0.19083655570E+02  0.10521869138E+03  0.16681970694E+03  0.12509000000E+03 0.  0.
         25    1    4    4    0    0  0.26346585079E+02  0.28127512953E+02  0.60776774262E+02  0.14431432334E+03  0.12509000000E+03 0.  0.
<mgrwt>
<rscale>  2 0.43749588E+03</rscale>
<asrwt>0</asrwt>
<pdfrwt beam="1">  1       21 0.40895215E-01 0.43749588E+03</pdfrwt>
<pdfrwt beam="2">  1       21 0.25304492E-01 0.43749588E+03</pdfrwt>
<totfact> 0.79405488E+04</totfact>
</mgrwt>
</event>
<event>
 7    0  0.4793433E-002  0.4392088E+03  0.7546771E-02  0.1030990E+00
         21   -1    0    0  502  501  0.00000000000E+00  0.00000000000E+00  0.23462917549E+03  0.23462917549E+03  0.00000000000E+00 0. -1.
         21   -1    0    0  501  502 -0.00000000000E+00 -0.00000000000E+00 -0.20554173428E+03  0.20554173428E+03  0.00000000000E+00 0. -1.
      99926    2    1    2    0    0  0.00000000000E+00  0.00000000000E+00  0.29087441211E+02  0.44017090977E+03  0.43920877788E+03 0.  0.
      99925    2    3    3    0    0 -0.42421741335E+02  0.28223813371E+02 -0.64888780028E+02  0.27562539620E+03  0.26298786564E+03 0.  0.
         25    1    3    3    0    0  0.42421741335E+02 -0.28223813371E+02  0.93976221239E+02  0.16454551357E+03  0.12509000000E+03 0.  0.
         25    1    4    4    0    0  0.11453780918E+02  0.38183965075E+02 -0.29838779958E+02  0.13463678983E+03  0.12509000000E+03 0.  0.
         25    1    4    4    0    0 -0.53875522254E+02 -0.99601517039E+01 -0.35050000070E+02  0.14098860637E+03  0.12509000000E+03 0.  0.
<mgrwt>
<rscale>  2 0.43920878E+03</rscale>
<asrwt>0</asrwt>
<pdfrwt beam="1">  1       21 0.34504291E-01 0.43920878E+03</pdfrwt>
<pdfrwt beam="2">  1       21 0.30226726E-01 0.43920878E+03</pdfrwt>
<totfact> 0.79159462E+04</totfact>
</mgrwt>
</event>
<event>
 7    0  0.4793433E-002  0.4327242E+03  0.7546771E-02  0.1033003E+00
         21   -1    0    0  502  501  0.00000000000E+00  0.00000000000E+00  0.15560457240E+03  0.15560457240E+03  0.00000000000E+00 0. -1.
         21   -1    0    0  501  502 -0.00000000000E+00 -0.00000000000E+00 -0.30084312701E+03  0.30084312701E+03  0.00000000000E+00 0. -1.
      99926    2    1    2    0    0  0.71054273576E-14  0.00000000000E+00 -0.14523855460E+03  0.45644769941E+03  0.43272423615E+03 0.  0.
      99925    2    3    3    0    0 -0.63931096982E+02  0.57678917656E+02 -0.62678088721E+02  0.28359579364E+03  0.26283833179E+03 0.  0.
         25    1    4    4    0    0 -0.46311133002E+02  0.19630057851E+02 -0.69116937507E+02  0.15150814949E+03  0.12509000000E+03 0.  0.
         25    1    3    3    0    0  0.63931096982E+02 -0.57678917656E+02 -0.82560465882E+02  0.17285190577E+03  0.12509000000E+03 0.  0.
         25    1    4    4    0    0 -0.17619963980E+02  0.38048859805E+02  0.64388487853E+01  0.13208764415E+03  0.12509000000E+03 0.  0.
<mgrwt>
<rscale>  2 0.43272424E+03</rscale>
<asrwt>0</asrwt>
<pdfrwt beam="1">  1       21 0.22883026E-01 0.43272424E+03</pdfrwt>
<pdfrwt beam="2">  1       21 0.44241636E-01 0.43272424E+03</pdfrwt>
<totfact> 0.82023110E+04</totfact>
</mgrwt>
</event>
<event>
 7    0  0.4793433E-002  0.5125288E+03  0.7546771E-02  0.1010559E+00
         21   -1    0    0  502  501  0.00000000000E+00  0.00000000000E+00  0.59948359232E+02  0.59948359232E+02  0.00000000000E+00 0. -1.
         21   -1    0    0  501  502 -0.00000000000E+00 -0.00000000000E+00 -0.10954668874E+04  0.10954668874E+04  0.00000000000E+00 0. -1.
      99926    2    1    2    0    0  0.00000000000E+00  0.00000000000E+00 -0.10355185281E+04  0.11554152466E+04  0.51252879916E+03 0.  0.
      99925    2    3    3    0    0 -0.89290667869E+02 -0.13269441999E+03 -0.57758604763E+03  0.65448581318E+03  0.26299316487E+03 0.  0.
         25    1    3    3    0    0  0.89290667869E+02  0.13269441999E+03 -0.45793248051E+03  0.50092943343E+03  0.12509000000E+03 0.  0.
         25    1    4    4    0    0 -0.64929390201E+02 -0.63717224139E+02 -0.37282329989E+03  0.40363403152E+03  0.12509000000E+03 0.  0.
         25    1    4    4    0    0 -0.24361277668E+02 -0.68977195853E+02 -0.20476274774E+03  0.25085178165E+03  0.12509000000E+03 0.  0.
<mgrwt>
<rscale>  2 0.51252880E+03</rscale>
<asrwt>0</asrwt>
<pdfrwt beam="1">  1       21 0.88159359E-02 0.51252880E+03</pdfrwt>
<pdfrwt beam="2">  1       21 0.16109806E+00 0.51252880E+03</pdfrwt>
<totfact> 0.21973594E+04</totfact>
</mgrwt>
</event>
<event>
 7    0  0.4793433E-002  0.4560608E+03  0.7546771E-02  0.1025930E+00
         21   -1    0    0  502  501  0.00000000000E+00  0.00000000000E+00  0.52172144966E+03  0.52172144966E+03  0.00000000000E+00 0.  1.
         21   -1    0    0  501  502 -0.00000000000E+00 -0.00000000000E+00 -0.99665955620E+02  0.99665955620E+02  0.00000000000E+00 0.  1.
      99926    2    1    2    0    0  0.71054273576E-14  0.00000000000E+00  0.42205549404E+03  0.62138740528E+03  0.45606081545E+03 0.  0.
      99925    2    3    3    0    0  0.48298933532E+02  0.44557220069E+02  0.39257297184E+03  0.47704454936E+03  0.26294453980E+03 0.  0.
         25    1    4    4    0    0 -0.13986227387E+02  0.18699987269E+02  0.21198301197E+03  0.24724402833E+03  0.12509000000E+03 0.  0.
         25    1    3    3    0    0 -0.48298933532E+02 -0.44557220069E+02  0.29482522199E+02  0.14434285592E+03  0.12509000000E+03 0.  0.
         25    1    4    4    0    0  0.62285160919E+02  0.25857232799E+02  0.18058995988E+03  0.22980052103E+03  0.12509000000E+03 0.  0.
<mgrwt>
<rscale>  2 0.45606082E+03</rscale>
<asrwt>0</asrwt>
<pdfrwt beam="1">  1       21 0.76723741E-01 0.45606082E+03</pdfrwt>
<pdfrwt beam="2">  1       21 0.14656758E-01 0.45606082E+03</pdfrwt>
<totfact> 0.56902617E+04</totfact>
</mgrwt>
</event>
<event>
 7    0  0.4793433E-002  0.4320269E+03  0.7546771E-02  0.1033222E+00
         21   -1    0    0  502  501  0.00000000000E+00  0.00000000000E+00  0.13021890435E+04  0.13021890435E+04  0.00000000000E+00 0. -1.
         21   -1    0    0  501  502 -0.00000000000E+00 -0.00000000000E+00 -0.35833360419E+02  0.35833360419E+02  0.00000000000E+00 0. -1.
      99926    2    1    2    0    0  0.88817841970E-15  0.00000000000E+00  0.12663556831E+04  0.13380224039E+04  0.43202689421E+03 0.  0.
      99925    2    3    3    0    0 -0.41114886662E+01 -0.84769872523E+02  0.74151409622E+03  0.79184566053E+03  0.26452515867E+03 0.  0.
         25    1    4    4    0    0  0.10079997273E+02 -0.20007352176E+01  0.38004911073E+03  0.40023798415E+03  0.12509000000E+03 0.  0.
         25    1    4    4    0    0 -0.14191485939E+02 -0.82769137305E+02  0.36146498549E+03  0.39160767638E+03  0.12509000000E+03 0.  0.
         25    1    3    3    0    0  0.41114886662E+01  0.84769872523E+02  0.52484158687E+03  0.54617674341E+03  0.12509000000E+03 0.  0.
<mgrwt>
<rscale>  2 0.43202689E+03</rscale>
<asrwt>0</asrwt>
<pdfrwt beam="1">  1       21 0.19149836E+00 0.43202689E+03</pdfrwt>
<pdfrwt beam="2">  1       21 0.52696127E-02 0.43202689E+03</pdfrwt>
<totfact> 0.33651545E+04</totfact>
</mgrwt>
</event>
<event>
 7    0  0.4793433E-002  0.4493999E+03  0.7546771E-02  0.1027901E+00
         21   -1    0    0  502  501  0.00000000000E+00  0.00000000000E+00  0.15044389166E+03  0.15044389166E+03  0.00000000000E+00 0. -1.
         21   -1    0    0  501  502 -0.00000000000E+00 -0.00000000000E+00 -0.33560726720E+03  0.33560726720E+03  0.00000000000E+00 0. -1.
      99926    2    1    2    0    0  0.00000000000E+00  0.00000000000E+00 -0.18516337554E+03  0.48605115886E+03  0.44939988139E+03 0.  0.
      99925    2    3    3    0    0  0.41708130371E+02 -0.76429964234E+02 -0.48353752324E+02  0.28124518073E+03  0.26302026300E+03 0.  0.
         25    1    4    4    0    0  0.12646867613E+02 -0.53256948054E+02 -0.62152413164E+02  0.15002225281E+03  0.12509000000E+03 0.  0.
         25    1    3    3    0    0 -0.41708130371E+02  0.76429964234E+02 -0.13680962322E+03  0.20480597813E+03  0.12509000000E+03 0.  0.
         25    1    4    4    0    0  0.29061262757E+02 -0.23173016180E+02  0.13798660839E+02  0.13122292792E+03  0.12509000000E+03 0.  0.
<mgrwt>
<rscale>  2 0.44939988E+03</rscale>
<asrwt>0</asrwt>
<pdfrwt beam="1">  1       21 0.22124102E-01 0.44939988E+03</pdfrwt>
<pdfrwt beam="2">  1       21 0.49354009E-01 0.44939988E+03</pdfrwt>
<totfact> 0.69291868E+04</totfact>
</mgrwt>
</event>
<event>
 7    0  0.4793433E-002  0.4564006E+03  0.7546771E-02  0.1025830E+00
         21   -1    0    0  502  501  0.00000000000E+00  0.00000000000E+00  0.68775345420E+02  0.68775345420E+02  0.00000000000E+00 0.  1.
         21   -1    0    0  501  502 -0.00000000000E+00 -0.00000000000E+00 -0.75718071951E+03  0.75718071951E+03  0.00000000000E+00 0.  1.
      99926    2    1    2    0    0 -0.71054273576E-14  0.00000000000E+00 -0.68840537409E+03  0.82595606492E+03  0.45640055008E+03 0.  0.
      99925    2    3    3    0    0  0.48440019314E+02  0.99881684716E+02 -0.48317786331E+03  0.56121349999E+03  0.26301512990E+03 0.  0.
         25    1    4    4    0    0  0.46056972788E+01  0.20081612076E+02 -0.17174650558E+03  0.21346862502E+03  0.12509000000E+03 0.  0.
         25    1    4    4    0    0  0.43834322035E+02  0.79800072640E+02 -0.31143135774E+03  0.34774487496E+03  0.12509000000E+03 0.  0.
         25    1    3    3    0    0 -0.48440019314E+02 -0.99881684716E+02 -0.20522751077E+03  0.26474256494E+03  0.12509000000E+03 0.  0.
<mgrwt>
<rscale>  2 0.45640055E+03</rscale>
<asrwt>0</asrwt>
<pdfrwt beam="1">  1       21 0.10114022E-01 0.45640055E+03</pdfrwt>
<pdfrwt beam="2">  1       21 0.11135009E+00 0.45640055E+03</pdfrwt>
<totfact> 0.46026955E+04</totfact>
</mgrwt>
</event>
<event>
 7    0  0.4793433E-002  0.4535840E+03  0.7546771E-02  0.1026659E+00
         21   -1    0    0  502  501  0.00000000000E+00  0.00000000000E+00  0.77347905431E+02  0.77347905431E+02  0.00000000000E+00 0.  1.
         21   -1    0    0  501  502 -0.00000000000E+00 -0.00000000000E+00 -0.66497736806E+03  0.66497736806E+03  0.00000000000E+00 0.  1.
      99926    2    1    2    0    0  0.00000000000E+00  0.00000000000E+00 -0.58762946263E+03  0.74232527349E+03  0.45358397934E+03 0.  0.
      99925    2    3    3    0    0 -0.39463111548E+02 -0.12419725682E+02 -0.54029735296E+03  0.60232733256E+03  0.26299315424E+03 0.  0.
         25    1    3    3    0    0  0.39463111548E+02  0.12419725682E+02 -0.47332109668E+02  0.13999794093E+03  0.12509000000E+03 0.  0.
         25    1    4    4    0    0  0.42992032885E+01  0.20975908157E+02 -0.21798094661E+03  0.25223337023E+03  0.12509000000E+03 0.  0.
         25    1    4    4    0    0 -0.43762314836E+02 -0.33395633839E+02 -0.32231640635E+03  0.35009396233E+03  0.12509000000E+03 0.  0.
<mgrwt>
<rscale>  2 0.45358398E+03</rscale>
<asrwt>0</asrwt>
<pdfrwt beam="1">  1       21 0.11374692E-01 0.45358398E+03</pdfrwt>
<pdfrwt beam="2">  1       21 0.97790788E-01 0.45358398E+03</pdfrwt>
<totfact> 0.51232386E+04</totfact>
</mgrwt>
</event>
<event>
 7    0  0.4793433E-002  0.4560307E+03  0.7546771E-02  0.1025939E+00
         21   -1    0    0  502  501  0.00000000000E+00  0.00000000000E+00  0.14676684480E+03  0.14676684480E+03  0.00000000000E+00 0. -1.
         21   -1    0    0  501  502 -0.00000000000E+00 -0.00000000000E+00 -0.35424216837E+03  0.35424216837E+03  0.00000000000E+00 0. -1.
      99926    2    1    2    0    0 -0.71054273576E-14  0.00000000000E+00 -0.20747532357E+03  0.50100901317E+03  0.45603072417E+03 0.  0.
      99925    2    3    3    0    0  0.56678920732E+02 -0.81176984989E+02 -0.19436365967E+03  0.34094144376E+03  0.26203364846E+03 0.  0.
         25    1    3    3    0    0 -0.56678920732E+02  0.81176984989E+02 -0.13111663900E+02  0.16006756941E+03  0.12509000000E+03 0.  0.
         25    1    4    4    0    0  0.64394169023E+02 -0.48175316941E+02 -0.84504038549E+02  0.17104359327E+03  0.12509000000E+03 0.  0.
         25    1    4    4    0    0 -0.77152482907E+01 -0.33001668048E+02 -0.10985962112E+03  0.16989785049E+03  0.12509000000E+03 0.  0.
<mgrwt>
<rscale>  2 0.45603072E+03</rscale>
<asrwt>0</asrwt>
<pdfrwt beam="1">  1       21 0.21583360E-01 0.45603072E+03</pdfrwt>
<pdfrwt beam="2">  1       21 0.52094435E-01 0.45603072E+03</pdfrwt>
<totfact> 0.64669097E+04</totfact>
</mgrwt>
</event>
<event>
 7    0  0.4793433E-002  0.4552813E+03  0.7546771E-02  0.1026159E+00
         21   -1    0    0  502  501  0.00000000000E+00  0.00000000000E+00  0.22022493259E+04  0.22022493259E+04  0.00000000000E+00 0. -1.
         21   -1    0    0  501  502 -0.00000000000E+00 -0.00000000000E+00 -0.23530612064E+02  0.23530612064E+02  0.00000000000E+00 0. -1.
      99926    2    1    2    0    0  0.00000000000E+00  0.00000000000E+00  0.21787187138E+04  0.22257799379E+04  0.45528133963E+03 0.  0.
      99925    2    3    3    0    0 -0.43171974436E+02  0.10128302734E+03  0.15025844021E+04  0.15294128031E+04  0.26309991570E+03 0.  0.
         25    1    3    3    0    0  0.43171974436E+02 -0.10128302734E+03  0.67613431167E+03  0.69636713487E+03  0.12509000000E+03 0.  0.
         25    1    4    4    0    0 -0.61447573930E+02  0.42143093885E+02  0.75425580766E+03  0.76818043206E+03  0.12509000000E+03 0.  0.
         25    1    4    4    0    0  0.18275599494E+02  0.59139933457E+02  0.74832859447E+03  0.76123237101E+03  0.12509000000E+03 0.  0.
<mgrwt>
<rscale>  2 0.45528134E+03</rscale>
<asrwt>0</asrwt>
<pdfrwt beam="1">  1       21 0.32386006E+00 0.45528134E+03</pdfrwt>
<pdfrwt beam="2">  1       21 0.34603856E-02 0.45528134E+03</pdfrwt>
<totfact> 0.10338851E+04</totfact>
</mgrwt>
</event>
<event>
 7    0  0.4793433E-002  0.4586439E+03  0.7546771E-02  0.1025175E+00
         21   -1    0    0  502  501  0.00000000000E+00  0.00000000000E+00  0.13507855615E+03  0.13507855615E+03  0.00000000000E+00 0. -1.
         21   -1    0    0  501  502 -0.00000000000E+00 -0.00000000000E+00 -0.38931825619E+03  0.38931825619E+03  0.00000000000E+00 0. -1.
      99926    2    1    2    0    0  0.00000000000E+00  0.00000000000E+00 -0.25423970005E+03  0.52439681234E+03  0.45864386152E+03 0.  0.
      99925    2    3    3    0    0  0.89384306669E+02 -0.56124866316E+02 -0.21579014525E+03  0.35627355023E+03  0.26310815440E+03 0.  0.
         25    1    4    4    0    0  0.34833033329E+02 -0.31580418727E+01 -0.61911463231E+02  0.14388832760E+03  0.12509000000E+03 0.  0.
         25    1    3    3    0    0 -0.89384306669E+02  0.56124866316E+02 -0.38449554801E+02  0.16812326211E+03  0.12509000000E+03 0.  0.
         25    1    4    4    0    0  0.54551273341E+02 -0.52966824444E+02 -0.15387868201E+03  0.21238522263E+03  0.12509000000E+03 0.  0.
<mgrwt>
<rscale>  2 0.45864386E+03</rscale>
<asrwt>0</asrwt>
<pdfrwt beam="1">  1       21 0.19864494E-01 0.45864386E+03</pdfrwt>
<pdfrwt beam="2">  1       21 0.57252684E-01 0.45864386E+03</pdfrwt>
<totfact> 0.61783174E+04</totfact>
</mgrwt>
</event>
<event>
 7    0  0.4793433E-002  0.4516272E+03  0.7546771E-02  0.1027238E+00
         21   -1    0    0  502  501  0.00000000000E+00  0.00000000000E+00  0.34637482959E+03  0.34637482959E+03  0.00000000000E+00 0. -1.
         21   -1    0    0  501  502 -0.00000000000E+00 -0.00000000000E+00 -0.14721561534E+03  0.14721561534E+03  0.00000000000E+00 0. -1.
      99926    2    1    2    0    0  0.00000000000E+00  0.00000000000E+00  0.19915921425E+03  0.49359044494E+03  0.45162720767E+03 0.  0.
      99925    2    3    3    0    0 -0.69295239077E+02  0.21219013642E+02  0.36617900230E+02  0.27606053076E+03  0.26384933073E+03 0.  0.
         25    1    4    4    0    0 -0.65594360742E+02  0.23035879195E+02  0.46595449526E+02  0.15050553448E+03  0.12509000000E+03 0.  0.
         25    1    4    4    0    0 -0.37008783350E+01 -0.18168655536E+01 -0.99775492950E+01  0.12555499628E+03  0.12509000000E+03 0.  0.
         25    1    3    3    0    0  0.69295239077E+02 -0.21219013642E+02  0.16254131402E+03  0.21752991418E+03  0.12509000000E+03 0.  0.
<mgrwt>
<rscale>  2 0.45162721E+03</rscale>
<asrwt>0</asrwt>
<pdfrwt beam="1">  1       21 0.50937475E-01 0.45162721E+03</pdfrwt>
<pdfrwt beam="2">  1       21 0.21649355E-01 0.45162721E+03</pdfrwt>
<totfact> 0.67512960E+04</totfact>
</mgrwt>
</event>
<event>
 7    0  0.4793433E-002  0.4552279E+03  0.7546771E-02  0.1026174E+00
         21   -1    0    0  502  501  0.00000000000E+00  0.00000000000E+00  0.12254096026E+04  0.12254096026E+04  0.00000000000E+00 0.  1.
         21   -1    0    0  501  502 -0.00000000000E+00 -0.00000000000E+00 -0.42278206020E+02  0.42278206020E+02  0.00000000000E+00 0.  1.
      99926    2    1    2    0    0 -0.71054273576E-14  0.00000000000E+00  0.11831313966E+04  0.12676878086E+04  0.45522794131E+03 0.  0.
      99925    2    3    3    0    0  0.18272424023E+02  0.10297101794E+03  0.62159573314E+03  0.68295990487E+03  0.26289934229E+03 0.  0.
         25    1    3    3    0    0 -0.18272424023E+02 -0.10297101794E+03  0.56153566343E+03  0.58472790375E+03  0.12509000000E+03 0.  0.
         25    1    4    4    0    0  0.36291406006E+02  0.77718685645E+02  0.29153519453E+03  0.32862978867E+03  0.12509000000E+03 0.  0.
         25    1    4    4    0    0 -0.18018981984E+02  0.25252332296E+02  0.33006053861E+03  0.35433011620E+03  0.12509000000E+03 0.  0.
<mgrwt>
<rscale>  2 0.45522794E+03</rscale>
<asrwt>0</asrwt>
<pdfrwt beam="1">  1       21 0.18020727E+00 0.45522794E+03</pdfrwt>
<pdfrwt beam="2">  1       21 0.62173841E-02 0.45522794E+03</pdfrwt>
<totfact> 0.30014465E+04</totfact>
</mgrwt>
</event>
<event>
 7    0  0.4793433E-002  0.4453558E+03  0.7546771E-02  0.1029116E+00
         21   -1    0    0  502  501  0.00000000000E+00  0.00000000000E+00  0.16096539179E+04  0.16096539179E+04  0.00000000000E+00 0.  1.
         21   -1    0    0  501  502 -0.00000000000E+00 -0.00000000000E+00 -0.30805036565E+02  0.30805036565E+02  0.00000000000E+00 0.  1.
      99926    2    1    2    0    0  0.71054273576E-14  0.19984014443E-14  0.15788488814E+04  0.16404589545E+04  0.44535580292E+03 0.  0.
      99925    2    3    3    0    0  0.56916195786E+02 -0.16270721375E+01  0.68292545473E+03  0.73405485301E+03  0.26307270819E+03 0.  0.
         25    1    4    4    0    0  0.36775564835E+01 -0.27677465609E+02  0.27797346194E+03  0.30609854649E+03  0.12509000000E+03 0.  0.
         25    1    4    4    0    0  0.53238639303E+02  0.26050393472E+02  0.40495199279E+03  0.42795630651E+03  0.12509000000E+03 0.  0.
         25    1    3    3    0    0 -0.56916195786E+02  0.16270721375E+01  0.89592342665E+03  0.90640410151E+03  0.12509000000E+03 0.  0.
<mgrwt>
<rscale>  2 0.44535580E+03</rscale>
<asrwt>0</asrwt>
<pdfrwt beam="1">  1       21 0.23671375E+00 0.44535580E+03</pdfrwt>
<pdfrwt beam="2">  1       21 0.45301535E-02 0.44535580E+03</pdfrwt>
<totfact> 0.22143077E+04</totfact>
</mgrwt>
</event>
<event>
 7    0  0.4793433E-002  0.4485530E+03  0.7546771E-02  0.1028154E+00
         21   -1    0    0  502  501  0.00000000000E+00  0.00000000000E+00  0.17014283632E+03  0.17014283632E+03  0.00000000000E+00 0.  1.
         21   -1    0    0  501  502 -0.00000000000E+00 -0.00000000000E+00 -0.29563366056E+03  0.29563366056E+03  0.00000000000E+00 0.  1.
      99926    2    1    2    0    0 -0.71054273576E-14  0.00000000000E+00 -0.12549082424E+03  0.46577649688E+03  0.44855300476E+03 0.  0.
      99925    2    3    3    0    0  0.57401167194E+02  0.71840508390E+02 -0.13564075152E+03  0.31019217323E+03  0.26337201488E+03 0.  0.
         25    1    4    4    0    0  0.43300939521E+01  0.27068405781E+01 -0.76171904260E+02  0.14654604668E+03  0.12509000000E+03 0.  0.
         25    1    4    4    0    0  0.53071073242E+02  0.69133667812E+02 -0.59468847262E+02  0.16364612655E+03  0.12509000000E+03 0.  0.
         25    1    3    3    0    0 -0.57401167194E+02 -0.71840508390E+02  0.10149927281E+02  0.15558432365E+03  0.12509000000E+03 0.  0.
<mgrwt>
<rscale>  2 0.44855300E+03</rscale>
<asrwt>0</asrwt>
<pdfrwt beam="1">  1       21 0.25021006E-01 0.44855300E+03</pdfrwt>
<pdfrwt beam="2">  1       21 0.43475538E-01 0.44855300E+03</pdfrwt>
<totfact> 0.71330125E+04</totfact>
</mgrwt>
</event>
<event>
 7    0  0.4793433E-002  0.4579805E+03  0.7546771E-02  0.1025369E+00
         21   -1    0    0  502  501  0.00000000000E+00  0.00000000000E+00  0.41682139734E+03  0.41682139734E+03  0.00000000000E+00 0. -1.
         21   -1    0    0  501  502 -0.00000000000E+00 -0.00000000000E+00 -0.12580097432E+03  0.12580097432E+03  0.00000000000E+00 0. -1.
      99926    2    1    2    0    0  0.00000000000E+00  0.00000000000E+00  0.29102042302E+03  0.54262237166E+03  0.45798051444E+03 0.  0.
      99925    2    3    3    0    0  0.63349500641E+02  0.83736211516E+02  0.24092807176E+03  0.37179595653E+03  0.26298476226E+03 0.  0.
         25    1    4    4    0    0  0.45899689447E+02  0.55969912472E+02  0.17397903040E+03  0.22617609005E+03  0.12509000000E+03 0.  0.
         25    1    4    4    0    0  0.17449811194E+02  0.27766299044E+02  0.66949041359E+02  0.14561986648E+03  0.12509000000E+03 0.  0.
         25    1    3    3    0    0 -0.63349500641E+02 -0.83736211516E+02  0.50092351269E+02  0.17082641513E+03  0.12509000000E+03 0.  0.
<mgrwt>
<rscale>  2 0.45798051E+03</rscale>
<asrwt>0</asrwt>
<pdfrwt beam="1">  1       21 0.61297264E-01 0.45798051E+03</pdfrwt>
<pdfrwt beam="2">  1       21 0.18500143E-01 0.45798051E+03</pdfrwt>
<totfact> 0.60907347E+04</totfact>
</mgrwt>
</event>
<event>
 7    0  0.4793433E-002  0.4581020E+03  0.7546771E-02  0.1025333E+00
         21   -1    0    0  502  501  0.00000000000E+00  0.00000000000E+00  0.31541528635E+03  0.31541528635E+03  0.00000000000E+00 0.  1.
         21   -1    0    0  501  502 -0.00000000000E+00 -0.00000000000E+00 -0.16633424348E+03  0.16633424348E+03  0.00000000000E+00 0.  1.
      99926    2    1    2    0    0  0.00000000000E+00  0.00000000000E+00  0.14908104287E+03  0.48174952983E+03  0.45810201063E+03 0.  0.
      99925    2    3    3    0    0  0.67267448023E+02 -0.19894814767E+02  0.19104020830E+03  0.33232131000E+03  0.26271729800E+03 0.  0.
         25    1    3    3    0    0 -0.67267448023E+02  0.19894814767E+02 -0.41959165435E+02  0.14942821983E+03  0.12509000000E+03 0.  0.
         25    1    4    4    0    0  0.51141446847E+02  0.25085289689E+02  0.10747941547E+03  0.17448224034E+03  0.12509000000E+03 0.  0.
         25    1    4    4    0    0  0.16126001176E+02 -0.44980104456E+02  0.83560792832E+02  0.15783906965E+03  0.12509000000E+03 0.  0.
<mgrwt>
<rscale>  2 0.45810201E+03</rscale>
<asrwt>0</asrwt>
<pdfrwt beam="1">  1       21 0.46384601E-01 0.45810201E+03</pdfrwt>
<pdfrwt beam="2">  1       21 0.24460918E-01 0.45810201E+03</pdfrwt>
<totfact> 0.64958757E+04</totfact>
</mgrwt>
</event>
<event>
 7    0  0.4793433E-002  0.4544446E+03  0.7546771E-02  0.1026405E+00
         21   -1    0    0  502  501  0.00000000000E+00  0.00000000000E+00  0.94009715118E+02  0.94009715118E+02  0.00000000000E+00 0.  1.
         21   -1    0    0  501  502 -0.00000000000E+00 -0.00000000000E+00 -0.54919827406E+03  0.54919827406E+03  0.00000000000E+00 0.  1.
      99926    2    1    2    0    0 -0.17763568394E-14  0.00000000000E+00 -0.45518855894E+03  0.64320798918E+03  0.45444459855E+03 0.  0.
      99925    2    3    3    0    0 -0.10743708638E+02  0.48460329167E+02 -0.14236346587E+03  0.30266301750E+03  0.26243802120E+03 0.  0.
         25    1    4    4    0    0 -0.27426385775E+02  0.36356752923E+02 -0.10769914006E+03  0.17123268669E+03  0.12509000000E+03 0.  0.
         25    1    4    4    0    0  0.16682677137E+02  0.12103576245E+02 -0.34664325806E+02  0.13143033081E+03  0.12509000000E+03 0.  0.
         25    1    3    3    0    0  0.10743708638E+02 -0.48460329167E+02 -0.31282509307E+03  0.34054497168E+03  0.12509000000E+03 0.  0.
<mgrwt>
<rscale>  2 0.45444460E+03</rscale>
<asrwt>0</asrwt>
<pdfrwt beam="1">  1       21 0.13824958E-01 0.45444460E+03</pdfrwt>
<pdfrwt beam="2">  1       21 0.80764450E-01 0.45444460E+03</pdfrwt>
<totfact> 0.56340989E+04</totfact>
</mgrwt>
</event>
<event>
 7    0  0.4793433E-002  0.4859602E+03  0.7546771E-02  0.1017510E+00
         21   -1    0    0  502  501  0.00000000000E+00  0.00000000000E+00  0.91817290080E+03  0.91817290080E+03  0.00000000000E+00 0.  1.
         21   -1    0    0  501  502 -0.00000000000E+00 -0.00000000000E+00 -0.64300884957E+02  0.64300884957E+02  0.00000000000E+00 0.  1.
      99926    2    1    2    0    0  0.00000000000E+00  0.00000000000E+00  0.85387201585E+03  0.98247378576E+03  0.48596020440E+03 0.  0.
      99925    2    3    3    0    0  0.13760352409E+03 -0.20178701314E+02  0.48623715602E+03  0.56998765497E+03  0.26290196862E+03 0.  0.
         25    1    4    4    0    0  0.80866644590E+02 -0.39559518775E+02  0.20571222284E+03  0.25703967876E+03  0.12509000000E+03 0.  0.
         25    1    4    4    0    0  0.56736879500E+02  0.19380817461E+02  0.28052493318E+03  0.31294797621E+03  0.12509000000E+03 0.  0.
         25    1    3    3    0    0 -0.13760352409E+03  0.20178701314E+02  0.36763485983E+03  0.41248613079E+03  0.12509000000E+03 0.  0.
<mgrwt>
<rscale>  2 0.48596020E+03</rscale>
<asrwt>0</asrwt>
<pdfrwt beam="1">  1       21 0.13502542E+00 0.48596020E+03</pdfrwt>
<pdfrwt beam="2">  1       21 0.94560131E-02 0.48596020E+03</pdfrwt>
<totfact> 0.31505117E+04</totfact>
</mgrwt>
</event>
<event>
 7    0  0.4793433E-002  0.4540531E+03  0.7546771E-02  0.1026520E+00
         21   -1    0    0  502  501  0.00000000000E+00  0.00000000000E+00  0.78851341643E+02  0.78851341643E+02  0.00000000000E+00 0. -1.
         21   -1    0    0  501  502 -0.00000000000E+00 -0.00000000000E+00 -0.65364854314E+03  0.65364854314E+03  0.00000000000E+00 0. -1.
      99926    2    1    2    0    0  0.14210854715E-13  0.17763568394E-14 -0.57479720150E+03  0.73249988479E+03  0.45405314486E+03 0.  0.
      99925    2    3    3    0    0 -0.83873078975E+02 -0.16153130294E+01 -0.24311872487E+03  0.36822605567E+03  0.26352686976E+03 0.  0.
         25    1    4    4    0    0 -0.69065470956E+02  0.22563240726E+02 -0.15836656841E+03  0.21449153177E+03  0.12509000000E+03 0.  0.
         25    1    4    4    0    0 -0.14807608019E+02 -0.24178553755E+02 -0.84752156456E+02  0.15373452391E+03  0.12509000000E+03 0.  0.
         25    1    3    3    0    0  0.83873078975E+02  0.16153130294E+01 -0.33167847664E+03  0.36427382911E+03  0.12509000000E+03 0.  0.
<mgrwt>
<rscale>  2 0.45405314E+03</rscale>
<asrwt>0</asrwt>
<pdfrwt beam="1">  1       21 0.11595785E-01 0.45405314E+03</pdfrwt>
<pdfrwt beam="2">  1       21 0.96124788E-01 0.45405314E+03</pdfrwt>
<totfact> 0.51556493E+04</totfact>
</mgrwt>
</event>
<event>
 7    0  0.4793433E-002  0.4551288E+03  0.7546771E-02  0.1026204E+00
         21   -1    0    0  502  501  0.00000000000E+00  0.00000000000E+00  0.12142920627E+04  0.12142920627E+04  0.00000000000E+00 0. -1.
         21   -1    0    0  501  502 -0.00000000000E+00 -0.00000000000E+00 -0.42646705821E+02  0.42646705821E+02  0.00000000000E+00 0. -1.
      99926    2    1    2    0    0 -0.14210854715E-13  0.00000000000E+00  0.11716453568E+04  0.12569387685E+04  0.45512880101E+03 0.  0.
      99925    2    3    3    0    0 -0.69631892275E+02 -0.48509645968E+02  0.94445131832E+03  0.98405339802E+03  0.26300382374E+03 0.  0.
         25    1    3    3    0    0  0.69631892275E+02  0.48509645968E+02  0.22719403852E+03  0.27288537046E+03  0.12509000000E+03 0.  0.
         25    1    4    4    0    0  0.53345588208E+01 -0.33487739520E+02  0.42722147564E+03  0.44644773889E+03  0.12509000000E+03 0.  0.
         25    1    4    4    0    0 -0.74966451095E+02 -0.15021906449E+02  0.51722984268E+03  0.53760565913E+03  0.12509000000E+03 0.  0.
<mgrwt>
<rscale>  2 0.45512880E+03</rscale>
<asrwt>0</asrwt>
<pdfrwt beam="1">  1       21 0.17857234E+00 0.45512880E+03</pdfrwt>
<pdfrwt beam="2">  1       21 0.62715751E-02 0.45512880E+03</pdfrwt>
<totfact> 0.30360912E+04</totfact>
</mgrwt>
</event>
<event>
 7    0  0.4793433E-002  0.4709667E+03  0.7546771E-02  0.1021648E+00
         21   -1    0    0  502  501  0.00000000000E+00  0.00000000000E+00  0.64176842708E+03  0.64176842708E+03  0.00000000000E+00 0. -1.
         21   -1    0    0  501  502 -0.00000000000E+00 -0.00000000000E+00 -0.86405621427E+02  0.86405621427E+02  0.00000000000E+00 0. -1.
      99926    2    1    2    0    0  0.00000000000E+00  0.00000000000E+00  0.55536280565E+03  0.72817404850E+03  0.47096666444E+03 0.  0.
      99925    2    3    3    0    0 -0.74383644229E+02  0.79552931412E+02  0.24235280328E+03  0.37393632450E+03  0.26311955096E+03 0.  0.
         25    1    4    4    0    0 -0.70962395040E+02  0.67060646636E+02  0.14407319332E+03  0.21433008415E+03  0.12509000000E+03 0.  0.
         25    1    3    3    0    0  0.74383644229E+02 -0.79552931412E+02  0.31301000237E+03  0.35423772401E+03  0.12509000000E+03 0.  0.
         25    1    4    4    0    0 -0.34212491892E+01  0.12492284775E+02  0.98279609956E+02  0.15960624035E+03  0.12509000000E+03 0.  0.
<mgrwt>
<rscale>  2 0.47096666E+03</rscale>
<asrwt>0</asrwt>
<pdfrwt beam="1">  1       21 0.94377707E-01 0.47096666E+03</pdfrwt>
<pdfrwt beam="2">  1       21 0.12706709E-01 0.47096666E+03</pdfrwt>
<totfact> 0.45422003E+04</totfact>
</mgrwt>
</event>
<event>
 7    0  0.4793433E-002  0.4590158E+03  0.7546771E-02  0.1025067E+00
         21   -1    0    0  502  501  0.00000000000E+00  0.00000000000E+00  0.71477971807E+02  0.71477971807E+02  0.00000000000E+00 0. -1.
         21   -1    0    0  501  502 -0.00000000000E+00 -0.00000000000E+00 -0.73692458552E+03  0.73692458552E+03  0.00000000000E+00 0. -1.
      99926    2    1    2    0    0  0.00000000000E+00  0.00000000000E+00 -0.66544661372E+03  0.80840255733E+03  0.45901579384E+03 0.  0.
      99925    2    3    3    0    0 -0.10048421816E+03 -0.18830469832E+02 -0.31741884209E+03  0.42470671084E+03  0.26300076848E+03 0.  0.
         25    1    4    4    0    0 -0.44397882441E+02  0.16949207258E+02 -0.10847993732E+03  0.17226100108E+03  0.12509000000E+03 0.  0.
         25    1    3    3    0    0  0.10048421816E+03  0.18830469832E+02 -0.34802777163E+03  0.38369584650E+03  0.12509000000E+03 0.  0.
         25    1    4    4    0    0 -0.56086335723E+02 -0.35779677090E+02 -0.20893890477E+03  0.25244570976E+03  0.12509000000E+03 0.  0.
<mgrwt>
<rscale>  2 0.45901579E+03</rscale>
<asrwt>0</asrwt>
<pdfrwt beam="1">  1       21 0.10511467E-01 0.45901579E+03</pdfrwt>
<pdfrwt beam="2">  1       21 0.10837126E+00 0.45901579E+03</pdfrwt>
<totfact> 0.45897511E+04</totfact>
</mgrwt>
</event>
<event>
 7    0  0.4793433E-002  0.4566155E+03  0.7546771E-02  0.1025767E+00
         21   -1    0    0  502  501  0.00000000000E+00  0.00000000000E+00  0.53950299132E+03  0.53950299132E+03  0.00000000000E+00 0. -1.
         21   -1    0    0  501  502 -0.00000000000E+00 -0.00000000000E+00 -0.96615662302E+02  0.96615662302E+02  0.00000000000E+00 0. -1.
      99926    2    1    2    0    0  0.00000000000E+00 -0.18873791419E-14  0.44288732901E+03  0.63611865362E+03  0.45661554428E+03 0.  0.
      99925    2    3    3    0    0  0.34529069148E+02 -0.98641162352E+00  0.12594602460E+03  0.29363868607E+03  0.26299818863E+03 0.  0.
         25    1    4    4    0    0  0.36947724822E+02  0.15993682980E+02  0.99017900481E+02  0.16453870359E+03  0.12509000000E+03 0.  0.
         25    1    4    4    0    0 -0.24186556733E+01 -0.16980094603E+02  0.26928124118E+02  0.12909998248E+03  0.12509000000E+03 0.  0.
         25    1    3    3    0    0 -0.34529069148E+02  0.98641162352E+00  0.31694130442E+03  0.34247996754E+03  0.12509000000E+03 0.  0.
<mgrwt>
<rscale>  2 0.45661554E+03</rscale>
<asrwt>0</asrwt>
<pdfrwt beam="1">  1       21 0.79338674E-01 0.45661554E+03</pdfrwt>
<pdfrwt beam="2">  1       21 0.14208186E-01 0.45661554E+03</pdfrwt>
<totfact> 0.55793536E+04</totfact>
</mgrwt>
</event>
<event>
 7    0  0.4793433E-002  0.4587621E+03  0.7546771E-02  0.1025141E+00
         21   -1    0    0  502  501  0.00000000000E+00  0.00000000000E+00  0.35700248314E+03  0.35700248314E+03  0.00000000000E+00 0. -1.
         21   -1    0    0  501  502 -0.00000000000E+00 -0.00000000000E+00 -0.14738179610E+03  0.14738179610E+03  0.00000000000E+00 0. -1.
      99926    2    1    2    0    0  0.00000000000E+00  0.00000000000E+00  0.20962068704E+03  0.50438427924E+03  0.45876210470E+03 0.  0.
      99925    2    3    3    0    0 -0.84985686612E+02  0.78433518228E+02  0.14699051105E+03  0.32287827175E+03  0.26319153543E+03 0.  0.
         25    1    3    3    0    0  0.84985686612E+02 -0.78433518228E+02  0.62630175994E+02  0.18150600749E+03  0.12509000000E+03 0.  0.
         25    1    4    4    0    0 -0.61668952261E+02  0.33800659864E+02  0.11598448585E+03  0.18451410065E+03  0.12509000000E+03 0.  0.
         25    1    4    4    0    0 -0.23316734351E+02  0.44632858364E+02  0.31006025201E+02  0.13836417110E+03  0.12509000000E+03 0.  0.
<mgrwt>
<rscale>  2 0.45876210E+03</rscale>
<asrwt>0</asrwt>
<pdfrwt beam="1">  1       21 0.52500365E-01 0.45876210E+03</pdfrwt>
<pdfrwt beam="2">  1       21 0.21673794E-01 0.45876210E+03</pdfrwt>
<totfact> 0.63059474E+04</totfact>
</mgrwt>
</event>
<event>
 7    0  0.4793433E-002  0.4705179E+03  0.7546771E-02  0.1021774E+00
         21   -1    0    0  502  501  0.00000000000E+00  0.00000000000E+00  0.31815085433E+03  0.31815085433E+03  0.00000000000E+00 0. -1.
         21   -1    0    0  501  502 -0.00000000000E+00 -0.00000000000E+00 -0.17396390589E+03  0.17396390589E+03  0.00000000000E+00 0. -1.
      99926    2    1    2    0    0  0.00000000000E+00 -0.14210854715E-13  0.14418694843E+03  0.49211476022E+03  0.47051786483E+03 0.  0.
      99925    2    3    3    0    0  0.14809273945E+02 -0.12546415319E+03  0.73843239476E+02  0.30091770527E+03  0.26294119685E+03 0.  0.
         25    1    4    4    0    0  0.14744004636E+02 -0.29094546828E+02  0.59659457890E+02  0.14237498848E+03  0.12509000000E+03 0.  0.
         25    1    3    3    0    0 -0.14809273945E+02  0.12546415319E+03  0.70343708958E+02  0.19119705494E+03  0.12509000000E+03 0.  0.
         25    1    4    4    0    0  0.65269308643E-01 -0.96369606358E+02  0.14183781585E+02  0.15854271680E+03  0.12509000000E+03 0.  0.
<mgrwt>
<rscale>  2 0.47051786E+03</rscale>
<asrwt>0</asrwt>
<pdfrwt beam="1">  1       21 0.46786891E-01 0.47051786E+03</pdfrwt>
<pdfrwt beam="2">  1       21 0.25582927E-01 0.47051786E+03</pdfrwt>
<totfact> 0.58308051E+04</totfact>
</mgrwt>
</event>
<event>
 7    0  0.4793433E-002  0.4559208E+03  0.7546771E-02  0.1025971E+00
         21   -1    0    0  502  501  0.00000000000E+00  0.00000000000E+00  0.88296308402E+02  0.88296308402E+02  0.00000000000E+00 0.  1.
         21   -1    0    0  501  502 -0.00000000000E+00 -0.00000000000E+00 -0.58854044829E+03  0.58854044829E+03  0.00000000000E+00 0.  1.
      99926    2    1    2    0    0  0.00000000000E+00  0.00000000000E+00 -0.50024413989E+03  0.67683675670E+03  0.45592082177E+03 0.  0.
      99925    2    3    3    0    0 -0.55624956640E+02  0.11078337669E+02 -0.16772163400E+03  0.31706517584E+03  0.26302645086E+03 0.  0.
         25    1    4    4    0    0 -0.62898078034E+02 -0.10357154046E+02 -0.10497154412E+03  0.17529966353E+03  0.12509000000E+03 0.  0.
         25    1    4    4    0    0  0.72731213937E+01  0.21435491715E+02 -0.62750089882E+02  0.14176551231E+03  0.12509000000E+03 0.  0.
         25    1    3    3    0    0  0.55624956640E+02 -0.11078337669E+02 -0.33252250589E+03  0.35977158085E+03  0.12509000000E+03 0.  0.
<mgrwt>
<rscale>  2 0.45592082E+03</rscale>
<asrwt>0</asrwt>
<pdfrwt beam="1">  1       21 0.12984751E-01 0.45592082E+03</pdfrwt>
<pdfrwt beam="2">  1       21 0.86550071E-01 0.45592082E+03</pdfrwt>
<totfact> 0.53787828E+04</totfact>
</mgrwt>
</event>
<event>
 7    0  0.4793433E-002  0.4555589E+03  0.7546771E-02  0.1026077E+00
         21   -1    0    0  502  501  0.00000000000E+00  0.00000000000E+00  0.60079761112E+03  0.60079761112E+03  0.00000000000E+00 0.  1.
         21   -1    0    0  501  502 -0.00000000000E+00 -0.00000000000E+00 -0.86357644407E+02  0.86357644407E+02  0.00000000000E+00 0.  1.
      99926    2    1    2    0    0 -0.71054273576E-14 -0.88817841970E-15  0.51443996671E+03  0.68715525552E+03  0.45555885003E+03 0.  0.
      99925    2    3    3    0    0  0.61525095448E+02  0.62521728100E+01  0.17961037615E+03  0.32441183401E+03  0.26298046276E+03 0.  0.
         25    1    3    3    0    0 -0.61525095448E+02 -0.62521728100E+01  0.33482959056E+03  0.36274342151E+03  0.12509000000E+03 0.  0.
         25    1    4    4    0    0  0.47047132680E+02 -0.89570406696E+01  0.49752276950E+02  0.14288617299E+03  0.12509000000E+03 0.  0.
         25    1    4    4    0    0  0.14477962768E+02  0.15209213480E+02  0.12985809920E+03  0.18152566102E+03  0.12509000000E+03 0.  0.
<mgrwt>
<rscale>  2 0.45555885E+03</rscale>
<asrwt>0</asrwt>
<pdfrwt beam="1">  1       21 0.88352587E-01 0.45555885E+03</pdfrwt>
<pdfrwt beam="2">  1       21 0.12699654E-01 0.45555885E+03</pdfrwt>
<totfact> 0.53370878E+04</totfact>
</mgrwt>
</event>
<event>
 7    0  0.4793433E-002  0.4364212E+03  0.7546771E-02  0.1031851E+00
         21   -1    0    0  502  501  0.00000000000E+00  0.00000000000E+00  0.50014703893E+02  0.50014703893E+02  0.00000000000E+00 0. -1.
         21   -1    0    0  501  502 -0.00000000000E+00 -0.00000000000E+00 -0.95203715587E+03  0.95203715587E+03  0.00000000000E+00 0. -1.
      99926    2    1    2    0    0  0.00000000000E+00  0.00000000000E+00 -0.90202245198E+03  0.10020518598E+04  0.43642115644E+03 0.  0.
      99925    2    3    3    0    0 -0.48102618595E+02  0.52317516161E+02 -0.72149401816E+03  0.77120773935E+03  0.26297675673E+03 0.  0.
         25    1    3    3    0    0  0.48102618595E+02 -0.52317516161E+02 -0.18052843382E+03  0.23084412041E+03  0.12509000000E+03 0.  0.
         25    1    4    4    0    0 -0.11404897090E+02 -0.10668945287E+02 -0.37732759197E+03  0.39782850305E+03  0.12509000000E+03 0.  0.
         25    1    4    4    0    0 -0.36697721505E+02  0.62986461448E+02 -0.34416642619E+03  0.37337923631E+03  0.12509000000E+03 0.  0.
<mgrwt>
<rscale>  2 0.43642116E+03</rscale>
<asrwt>0</asrwt>
<pdfrwt beam="1">  1       21 0.73551042E-02 0.43642116E+03</pdfrwt>
<pdfrwt beam="2">  1       21 0.14000545E+00 0.43642116E+03</pdfrwt>
<totfact> 0.45313180E+04</totfact>
</mgrwt>
</event>
<event>
 7    0  0.4793433E-002  0.4510813E+03  0.7546771E-02  0.1027400E+00
         21   -1    0    0  502  501  0.00000000000E+00  0.00000000000E+00  0.13094280760E+03  0.13094280760E+03  0.00000000000E+00 0.  1.
         21   -1    0    0  501  502 -0.00000000000E+00 -0.00000000000E+00 -0.38847941855E+03  0.38847941855E+03  0.00000000000E+00 0.  1.
      99926    2    1    2    0    0  0.00000000000E+00  0.00000000000E+00 -0.25753661094E+03  0.51942222615E+03  0.45108130425E+03 0.  0.
      99925    2    3    3    0    0 -0.49423818939E+02  0.78037300707E+02 -0.95032837667E+02  0.29450553356E+03  0.26300139711E+03 0.  0.
         25    1    3    3    0    0  0.49423818939E+02 -0.78037300707E+02 -0.16250377328E+03  0.22491669260E+03  0.12509000000E+03 0.  0.
         25    1    4    4    0    0 -0.52884155629E+02  0.64025767588E+02 -0.71922995463E+02  0.16648260632E+03  0.12509000000E+03 0.  0.
         25    1    4    4    0    0  0.34603366904E+01  0.14011533119E+02 -0.23109842204E+02  0.12802292723E+03  0.12509000000E+03 0.  0.
<mgrwt>
<rscale>  2 0.45108130E+03</rscale>
<asrwt>0</asrwt>
<pdfrwt beam="1">  1       21 0.19256295E-01 0.45108130E+03</pdfrwt>
<pdfrwt beam="2">  1       21 0.57129328E-01 0.45108130E+03</pdfrwt>
<totfact> 0.65953273E+04</totfact>
</mgrwt>
</event>
<event>
 7    0  0.4793433E-002  0.4555604E+03  0.7546771E-02  0.1026077E+00
         21   -1    0    0  502  501  0.00000000000E+00  0.00000000000E+00  0.96391633699E+03  0.96391633699E+03  0.00000000000E+00 0.  1.
         21   -1    0    0  501  502 -0.00000000000E+00 -0.00000000000E+00 -0.53826060130E+02  0.53826060130E+02  0.00000000000E+00 0.  1.
      99926    2    1    2    0    0  0.71054273576E-14 -0.14210854715E-13  0.91009027686E+03  0.10177423971E+04  0.45556039650E+03 0.  0.
      99925    2    3    3    0    0 -0.63510611332E+02  0.82971108189E+02  0.67190391494E+03  0.72912837519E+03  0.26316442400E+03 0.  0.
         25    1    4    4    0    0 -0.61328370310E+02  0.41329922799E+02  0.42600236656E+03  0.45010538315E+03  0.12509000000E+03 0.  0.
         25    1    4    4    0    0 -0.21822410217E+01  0.41641185390E+02  0.24590154837E+03  0.27902299204E+03  0.12509000000E+03 0.  0.
         25    1    3    3    0    0  0.63510611332E+02 -0.82971108189E+02  0.23818636193E+03  0.28861402193E+03  0.12509000000E+03 0.  0.
<mgrwt>
<rscale>  2 0.45556040E+03</rscale>
<asrwt>0</asrwt>
<pdfrwt beam="1">  1       21 0.14175239E+00 0.45556040E+03</pdfrwt>
<pdfrwt beam="2">  1       21 0.79155977E-02 0.45556040E+03</pdfrwt>
<totfact> 0.38315768E+04</totfact>
</mgrwt>
</event>
<event>
 7    0  0.4793433E-002  0.4577803E+03  0.7546771E-02  0.1025427E+00
         21   -1    0    0  502  501  0.00000000000E+00  0.00000000000E+00  0.35929573426E+03  0.35929573426E+03  0.00000000000E+00 0.  1.
         21   -1    0    0  501  502 -0.00000000000E+00 -0.00000000000E+00 -0.14581495290E+03  0.14581495290E+03  0.00000000000E+00 0.  1.
      99926    2    1    2    0    0 -0.35527136788E-14  0.00000000000E+00  0.21348078135E+03  0.50511068716E+03  0.45778025545E+03 0.  0.
      99925    2    3    3    0    0  0.14936886102E+02  0.83262826089E+02  0.22126457879E+03  0.35390253799E+03  0.26293189953E+03 0.  0.
         25    1    3    3    0    0 -0.14936886102E+02 -0.83262826089E+02 -0.77837974369E+01  0.15120814918E+03  0.12509000000E+03 0.  0.
         25    1    4    4    0    0 -0.23874335222E+02  0.19800947445E+02  0.12407205142E+03  0.17889506267E+03  0.12509000000E+03 0.  0.
         25    1    4    4    0    0  0.38811221325E+02  0.63461878644E+02  0.97192527367E+02  0.17500747532E+03  0.12509000000E+03 0.  0.
<mgrwt>
<rscale>  2 0.45778026E+03</rscale>
<asrwt>0</asrwt>
<pdfrwt beam="1">  1       21 0.52837608E-01 0.45778026E+03</pdfrwt>
<pdfrwt beam="2">  1       21 0.21443375E-01 0.45778026E+03</pdfrwt>
<totfact> 0.63500134E+04</totfact>
</mgrwt>
</event>
<event>
 7    0  0.4793433E-002  0.4567940E+03  0.7546771E-02  0.1025715E+00
         21   -1    0    0  502  501  0.00000000000E+00  0.00000000000E+00  0.49387144916E+03  0.49387144916E+03  0.00000000000E+00 0. -1.
         21   -1    0    0  501  502 -0.00000000000E+00 -0.00000000000E+00 -0.10562501773E+03  0.10562501773E+03  0.00000000000E+00 0. -1.
      99926    2    1    2    0    0  0.00000000000E+00  0.00000000000E+00  0.38824643143E+03  0.59949646689E+03  0.45679396044E+03 0.  0.
      99925    2    3    3    0    0  0.44772425388E+02 -0.56263598697E+02  0.12613776962E+03  0.30029984039E+03  0.26286706641E+03 0.  0.
         25    1    3    3    0    0 -0.44772425388E+02  0.56263598697E+02  0.26210866181E+03  0.29919662650E+03  0.12509000000E+03 0.  0.
         25    1    4    4    0    0 -0.82910716642E+01 -0.52968827674E+02  0.72282606689E+02  0.15409971416E+03  0.12509000000E+03 0.  0.
         25    1    4    4    0    0  0.53063497052E+02 -0.32947710230E+01  0.53855162934E+02  0.14620012623E+03  0.12509000000E+03 0.  0.
<mgrwt>
<rscale>  2 0.45679396E+03</rscale>
<asrwt>0</asrwt>
<pdfrwt beam="1">  1       21 0.72628153E-01 0.45679396E+03</pdfrwt>
<pdfrwt beam="2">  1       21 0.15533091E-01 0.45679396E+03</pdfrwt>
<totfact> 0.57884394E+04</totfact>
</mgrwt>
</event>
<event>
 7    0  0.4793433E-002  0.4405994E+03  0.7546771E-02  0.1030563E+00
         21   -1    0    0  502  501  0.00000000000E+00  0.00000000000E+00  0.13297493779E+04  0.13297493779E+04  0.00000000000E+00 0.  1.
         21   -1    0    0  501  502 -0.00000000000E+00 -0.00000000000E+00 -0.36497073613E+02  0.36497073613E+02  0.00000000000E+00 0.  1.
      99926    2    1    2    0    0  0.00000000000E+00 -0.71054273576E-14  0.12932523043E+04  0.13662464515E+04  0.44059941413E+03 0.  0.
      99925    2    3    3    0    0  0.47258555741E+02  0.62199266100E+02  0.10141130116E+04  0.10505434698E+04  0.26289591479E+03 0.  0.
         25    1    3    3    0    0 -0.47258555741E+02 -0.62199266100E+02  0.27913929272E+03  0.31570298166E+03  0.12509000000E+03 0.  0.
         25    1    4    4    0    0  0.53298207200E+01  0.59951062228E+02  0.43608333439E+03  0.45764475249E+03  0.12509000000E+03 0.  0.
         25    1    4    4    0    0  0.41928735020E+02  0.22482038721E+01  0.57802967718E+03  0.59289871736E+03  0.12509000000E+03 0.  0.
<mgrwt>
<rscale>  2 0.44059941E+03</rscale>
<asrwt>0</asrwt>
<pdfrwt beam="1">  1       21 0.19555135E+00 0.44059941E+03</pdfrwt>
<pdfrwt beam="2">  1       21 0.53672176E-02 0.44059941E+03</pdfrwt>
<totfact> 0.30521567E+04</totfact>
</mgrwt>
</event>
<event>
 7    0  0.4793433E-002  0.4489273E+03  0.7546771E-02  0.1028042E+00
         21   -1    0    0  502  501  0.00000000000E+00  0.00000000000E+00  0.28798622093E+02  0.28798622093E+02  0.00000000000E+00 0.  1.
         21   -1    0    0  501  502 -0.00000000000E+00 -0.00000000000E+00 -0.17495260051E+04  0.17495260051E+04  0.00000000000E+00 0.  1.
      99926    2    1    2    0    0  0.17763568394E-14  0.00000000000E+00 -0.17207273830E+04  0.17783246272E+04  0.44892733605E+03 0.  0.
      99925    2    3    3    0    0 -0.15374334070E+02 -0.10111210067E+03 -0.95856784080E+03  0.99922597944E+03  0.26294528999E+03 0.  0.
         25    1    4    4    0    0  0.97993957399E+01 -0.80755665030E+02 -0.59336024099E+03  0.61183444597E+03  0.12509000000E+03 0.  0.
         25    1    4    4    0    0 -0.25173729810E+02 -0.20356435642E+02 -0.36520759981E+03  0.38739153347E+03  0.12509000000E+03 0.  0.
         25    1    3    3    0    0  0.15374334070E+02  0.10111210067E+03 -0.76215954221E+03  0.77909864776E+03  0.12509000000E+03 0.  0.
<mgrwt>
<rscale>  2 0.44892734E+03</rscale>
<asrwt>0</asrwt>
<pdfrwt beam="1">  1       21 0.42350907E-02 0.44892734E+03</pdfrwt>
<pdfrwt beam="2">  1       21 0.25728328E+00 0.44892734E+03</pdfrwt>
<totfact> 0.18538384E+04</totfact>
</mgrwt>
</event>
<event>
 7    0  0.4793433E-002  0.4566261E+03  0.7546771E-02  0.1025764E+00
         21   -1    0    0  502  501  0.00000000000E+00  0.00000000000E+00  0.51642746077E+03  0.51642746077E+03  0.00000000000E+00 0.  1.
         21   -1    0    0  501  502 -0.00000000000E+00 -0.00000000000E+00 -0.10093738791E+03  0.10093738791E+03  0.00000000000E+00 0.  1.
      99926    2    1    2    0    0  0.88817841970E-15  0.00000000000E+00  0.41549007286E+03  0.61736484869E+03  0.45662605679E+03 0.  0.
      99925    2    3    3    0    0 -0.62487612350E+01  0.60224136750E+02  0.39264862375E+03  0.47652723453E+03  0.26313355896E+03 0.  0.
         25    1    4    4    0    0  0.31821755930E+02  0.84357502907E+01  0.19120650261E+03  0.23084891330E+03  0.12509000000E+03 0.  0.
         25    1    3    3    0    0  0.62487612350E+01 -0.60224136750E+02  0.22841449114E+02  0.14083761416E+03  0.12509000000E+03 0.  0.
         25    1    4    4    0    0 -0.38070517165E+02  0.51788386459E+02  0.20144212114E+03  0.24567832122E+03  0.12509000000E+03 0.  0.
<mgrwt>
<rscale>  2 0.45662606E+03</rscale>
<asrwt>0</asrwt>
<pdfrwt beam="1">  1       21 0.75945214E-01 0.45662606E+03</pdfrwt>
<pdfrwt beam="2">  1       21 0.14843734E-01 0.45662606E+03</pdfrwt>
<totfact> 0.56887904E+04</totfact>
</mgrwt>
</event>
<event>
 7    0  0.4793433E-002  0.4593704E+03  0.7546771E-02  0.1024964E+00
         21   -1    0    0  502  501  0.00000000000E+00  0.00000000000E+00  0.86640125861E+02  0.86640125861E+02  0.00000000000E+00 0.  1.
         21   -1    0    0  501  502 -0.00000000000E+00 -0.00000000000E+00 -0.60890141379E+03  0.60890141379E+03  0.00000000000E+00 0.  1.
      99926    2    1    2    0    0  0.00000000000E+00  0.00000000000E+00 -0.52226128792E+03  0.69554153965E+03  0.45937041754E+03 0.  0.
      99925    2    3    3    0    0 -0.38455255313E+02 -0.11477809288E+02 -0.16056201384E+03  0.31072415472E+03  0.26298059486E+03 0.  0.
         25    1    3    3    0    0  0.38455255313E+02  0.11477809288E+02 -0.36169927408E+03  0.38481738492E+03  0.12509000000E+03 0.  0.
         25    1    4    4    0    0  0.69104197358E+01 -0.14966897783E+02 -0.43488130447E+02  0.13345593850E+03  0.12509000000E+03 0.  0.
         25    1    4    4    0    0 -0.45365675048E+02  0.34890884947E+01 -0.11707388339E+03  0.17726821623E+03  0.12509000000E+03 0.  0.
<mgrwt>
<rscale>  2 0.45937042E+03</rscale>
<asrwt>0</asrwt>
<pdfrwt beam="1">  1       21 0.12741195E-01 0.45937042E+03</pdfrwt>
<pdfrwt beam="2">  1       21 0.89544327E-01 0.45937042E+03</pdfrwt>
<totfact> 0.51356182E+04</totfact>
</mgrwt>
</event>
<event>
 7    0  0.4793433E-002  0.4752357E+03  0.7546771E-02  0.1020453E+00
         21   -1    0    0  502  501  0.00000000000E+00  0.00000000000E+00  0.19441075290E+03  0.19441075290E+03  0.00000000000E+00 0.  1.
         21   -1    0    0  501  502 -0.00000000000E+00 -0.00000000000E+00 -0.29042751064E+03  0.29042751064E+03  0.00000000000E+00 0.  1.
      99926    2    1    2    0    0  0.00000000000E+00  0.00000000000E+00 -0.96016757747E+02  0.48483826354E+03  0.47523565104E+03 0.  0.
      99925    2    3    3    0    0 -0.57172985598E+02  0.63459900767E+02 -0.16011234597E+03  0.32036436951E+03  0.26401033433E+03 0.  0.
         25    1    3    3    0    0  0.57172985598E+02 -0.63459900767E+02  0.64095588224E+02  0.16447389403E+03  0.12509000000E+03 0.  0.
         25    1    4    4    0    0 -0.14017587927E+02 -0.90367964457E+01 -0.64337012106E+02  0.14165068192E+03  0.12509000000E+03 0.  0.
         25    1    4    4    0    0 -0.43155397671E+02  0.72496697213E+02 -0.95775333866E+02  0.17871368759E+03  0.12509000000E+03 0.  0.
<mgrwt>
<rscale>  2 0.47523565E+03</rscale>
<asrwt>0</asrwt>
<pdfrwt beam="1">  1       21 0.28589817E-01 0.47523565E+03</pdfrwt>
<pdfrwt beam="2">  1       21 0.42709927E-01 0.47523565E+03</pdfrwt>
<totfact> 0.56681357E+04</totfact>
</mgrwt>
</event>
<event>
 7    0  0.4793433E-002  0.4547254E+03  0.7546771E-02  0.1026322E+00
         21   -1    0    0  502  501  0.00000000000E+00  0.00000000000E+00  0.72817946056E+02  0.72817946056E+02  0.00000000000E+00 0. -1.
         21   -1    0    0  501  502 -0.00000000000E+00 -0.00000000000E+00 -0.70990472285E+03  0.70990472285E+03  0.00000000000E+00 0. -1.
      99926    2    1    2    0    0  0.00000000000E+00  0.00000000000E+00 -0.63708677680E+03  0.78272266891E+03  0.45472542842E+03 0.  0.
      99925    2    3    3    0    0  0.47584998461E+02  0.39925837959E+02 -0.56331851207E+03  0.62477435586E+03  0.26297689077E+03 0.  0.
         25    1    3    3    0    0 -0.47584998461E+02 -0.39925837959E+02 -0.73768264728E+02  0.15794831305E+03  0.12509000000E+03 0.  0.
         25    1    4    4    0    0  0.14272134858E+02 -0.12359180493E+02 -0.32233304847E+03  0.34626946936E+03  0.12509000000E+03 0.  0.
         25    1    4    4    0    0  0.33312863603E+02  0.52285018452E+02 -0.24098546360E+03  0.27850488650E+03  0.12509000000E+03 0.  0.
<mgrwt>
<rscale>  2 0.45472543E+03</rscale>
<asrwt>0</asrwt>
<pdfrwt beam="1">  1       21 0.10708521E-01 0.45472543E+03</pdfrwt>
<pdfrwt beam="2">  1       21 0.10439775E+00 0.45472543E+03</pdfrwt>
<totfact> 0.48716790E+04</totfact>
</mgrwt>
</event>
<event>
 7    0  0.4793433E-002  0.4577596E+03  0.7546771E-02  0.1025433E+00
         21   -1    0    0  502  501  0.00000000000E+00  0.00000000000E+00  0.82562240459E+02  0.82562240459E+02  0.00000000000E+00 0.  1.
         21   -1    0    0  501  502 -0.00000000000E+00 -0.00000000000E+00 -0.63450272089E+03  0.63450272089E+03  0.00000000000E+00 0.  1.
      99926    2    1    2    0    0  0.14210854715E-13  0.71054273576E-14 -0.55194048043E+03  0.71706496135E+03  0.45775961471E+03 0.  0.
      99925    2    3    3    0    0  0.10080721036E+03  0.35234536647E+02 -0.27633287704E+03  0.39611227733E+03  0.26294773451E+03 0.  0.
         25    1    4    4    0    0  0.85205956814E+02 -0.21853691117E+01 -0.16388076143E+03  0.22309021265E+03  0.12509000000E+03 0.  0.
         25    1    3    3    0    0 -0.10080721036E+03 -0.35234536647E+02 -0.27560760339E+03  0.32095268402E+03  0.12509000000E+03 0.  0.
         25    1    4    4    0    0  0.15601253549E+02  0.37419905759E+02 -0.11245211561E+03  0.17302206468E+03  0.12509000000E+03 0.  0.
<mgrwt>
<rscale>  2 0.45775961E+03</rscale>
<asrwt>0</asrwt>
<pdfrwt beam="1">  1       21 0.12141505E-01 0.45775961E+03</pdfrwt>
<pdfrwt beam="2">  1       21 0.93309228E-01 0.45775961E+03</pdfrwt>
<totfact> 0.50872882E+04</totfact>
</mgrwt>
</event>
<event>
 7    0  0.4793433E-002  0.4573420E+03  0.7546771E-02  0.1025555E+00
         21   -1    0    0  502  501  0.00000000000E+00  0.00000000000E+00  0.99070668286E+02  0.99070668286E+02  0.00000000000E+00 0. -1.
         21   -1    0    0  501  502 -0.00000000000E+00 -0.00000000000E+00 -0.52780926456E+03  0.52780926456E+03  0.00000000000E+00 0. -1.
      99926    2    1    2    0    0  0.00000000000E+00  0.14210854715E-13 -0.42873859627E+03  0.62687993285E+03  0.45734195770E+03 0.  0.
      99925    2    3    3    0    0 -0.82446767282E+02  0.62549995458E+02 -0.33929610680E+03  0.44152233686E+03  0.26288810260E+03 0.  0.
         25    1    3    3    0    0  0.82446767282E+02 -0.62549995458E+02 -0.89442489470E+02  0.18535759599E+03  0.12509000000E+03 0.  0.
         25    1    4    4    0    0 -0.35846043914E+01  0.41945936862E+02 -0.13869115891E+03  0.19145510353E+03  0.12509000000E+03 0.  0.
         25    1    4    4    0    0 -0.78862162891E+02  0.20604058596E+02 -0.20060494789E+03  0.25006723333E+03  0.12509000000E+03 0.  0.
<mgrwt>
<rscale>  2 0.45734196E+03</rscale>
<asrwt>0</asrwt>
<pdfrwt beam="1">  1       21 0.14569216E-01 0.45734196E+03</pdfrwt>
<pdfrwt beam="2">  1       21 0.77619008E-01 0.45734196E+03</pdfrwt>
<totfact> 0.56010680E+04</totfact>
</mgrwt>
</event>
<event>
 7    0  0.4793433E-002  0.4525081E+03  0.7546771E-02  0.1026977E+00
         21   -1    0    0  502  501  0.00000000000E+00  0.00000000000E+00  0.88851267178E+03  0.88851267178E+03  0.00000000000E+00 0. -1.
         21   -1    0    0  501  502 -0.00000000000E+00 -0.00000000000E+00 -0.57614148661E+02  0.57614148661E+02  0.00000000000E+00 0. -1.
      99926    2    1    2    0    0 -0.14210854715E-13  0.00000000000E+00  0.83089852312E+03  0.94612682044E+03  0.45250812660E+03 0.  0.
      99925    2    3    3    0    0  0.99511417627E+02  0.24319984716E+02  0.61229927604E+03  0.67423139418E+03  0.26302772777E+03 0.  0.
         25    1    4    4    0    0  0.25113228345E+02  0.42827561710E+02  0.26506057166E+03  0.29727006077E+03  0.12509000000E+03 0.  0.
         25    1    3    3    0    0 -0.99511417627E+02 -0.24319984716E+02  0.21859924708E+03  0.27189542626E+03  0.12509000000E+03 0.  0.
         25    1    4    4    0    0  0.74398189282E+02 -0.18507576994E+02  0.34723870438E+03  0.37696133342E+03  0.12509000000E+03 0.  0.
<mgrwt>
<rscale>  2 0.45250813E+03</rscale>
<asrwt>0</asrwt>
<pdfrwt beam="1">  1       21 0.13066362E+00 0.45250813E+03</pdfrwt>
<pdfrwt beam="2">  1       21 0.84726695E-02 0.45250813E+03</pdfrwt>
<totfact> 0.42112703E+04</totfact>
</mgrwt>
</event>
<event>
 7    0  0.4793433E-002  0.4560455E+03  0.7546771E-02  0.1025934E+00
         21   -1    0    0  502  501  0.00000000000E+00  0.00000000000E+00  0.22297934299E+03  0.22297934299E+03  0.00000000000E+00 0.  1.
         21   -1    0    0  501  502 -0.00000000000E+00 -0.00000000000E+00 -0.23318025835E+03  0.23318025835E+03  0.00000000000E+00 0.  1.
      99926    2    1    2    0    0  0.00000000000E+00  0.00000000000E+00 -0.10200915361E+02  0.45615960135E+03  0.45604552758E+03 0.  0.
      99925    2    3    3    0    0 -0.67547892258E+02  0.62215466290E+02  0.61357414359E+02  0.28527488978E+03  0.26302765720E+03 0.  0.
         25    1    4    4    0    0 -0.19249645367E+02  0.69310877919E+02  0.29996072522E+02  0.14738323891E+03  0.12509000000E+03 0.  0.
         25    1    3    3    0    0  0.67547892258E+02 -0.62215466290E+02 -0.71558329719E+02  0.17088471156E+03  0.12509000000E+03 0.  0.
         25    1    4    4    0    0 -0.48298246891E+02 -0.70954116291E+01  0.31361341836E+02  0.13789165087E+03  0.12509000000E+03 0.  0.
<mgrwt>
<rscale>  2 0.45604553E+03</rscale>
<asrwt>0</asrwt>
<pdfrwt beam="1">  1       21 0.32791080E-01 0.45604553E+03</pdfrwt>
<pdfrwt beam="2">  1       21 0.34291214E-01 0.45604553E+03</pdfrwt>
<totfact> 0.67892784E+04</totfact>
</mgrwt>
</event>
<event>
 7    0  0.4793433E-002  0.4554550E+03  0.7546771E-02  0.1026108E+00
         21   -1    0    0  502  501  0.00000000000E+00  0.00000000000E+00  0.63067965120E+03  0.63067965120E+03  0.00000000000E+00 0.  1.
         21   -1    0    0  501  502 -0.00000000000E+00 -0.00000000000E+00 -0.82228455160E+02  0.82228455160E+02  0.00000000000E+00 0.  1.
      99926    2    1    2    0    0  0.14210854715E-13  0.00000000000E+00  0.54845119604E+03  0.71290810636E+03  0.45545499632E+03 0.  0.
      99925    2    3    3    0    0  0.99749663614E+02 -0.22287835257E+02  0.26733861930E+03  0.38868822434E+03  0.26298641673E+03 0.  0.
         25    1    4    4    0    0  0.34570462395E+02  0.13642392396E+02  0.86555639359E+02  0.15659060810E+03  0.12509000000E+03 0.  0.
         25    1    4    4    0    0  0.65179201219E+02 -0.35930227653E+02  0.18078297994E+03  0.23209761624E+03  0.12509000000E+03 0.  0.
         25    1    3    3    0    0 -0.99749663614E+02  0.22287835257E+02  0.28111257674E+03  0.32421988202E+03  0.12509000000E+03 0.  0.
<mgrwt>
<rscale>  2 0.45545500E+03</rscale>
<asrwt>0</asrwt>
<pdfrwt beam="1">  1       21 0.92747005E-01 0.45545500E+03</pdfrwt>
<pdfrwt beam="2">  1       21 0.12092420E-01 0.45545500E+03</pdfrwt>
<totfact> 0.52021290E+04</totfact>
</mgrwt>
</event>
<event>
 7    0  0.4793433E-002  0.4543614E+03  0.7546771E-02  0.1026429E+00
         21   -1    0    0  502  501  0.00000000000E+00  0.00000000000E+00  0.35967672824E+03  0.35967672824E+03  0.00000000000E+00 0. -1.
         21   -1    0    0  501  502 -0.00000000000E+00 -0.00000000000E+00 -0.14349295858E+03  0.14349295858E+03  0.00000000000E+00 0. -1.
      99926    2    1    2    0    0  0.00000000000E+00 -0.88817841970E-15  0.21618376966E+03  0.50316968682E+03  0.45436143264E+03 0.  0.
      99925    2    3    3    0    0  0.92141789942E+02  0.36842691813E+01  0.20780538937E+03  0.34753746442E+03  0.26286027854E+03 0.  0.
         25    1    4    4    0    0  0.74229235482E+02  0.30694181224E+02  0.12329830326E+03  0.19313749467E+03  0.12509000000E+03 0.  0.
         25    1    3    3    0    0 -0.92141789942E+02 -0.36842691813E+01  0.83783802906E+01  0.15563222240E+03  0.12509000000E+03 0.  0.
         25    1    4    4    0    0  0.17912554459E+02 -0.27009912043E+02  0.84507086104E+02  0.15439996975E+03  0.12509000000E+03 0.  0.
<mgrwt>
<rscale>  2 0.45436143E+03</rscale>
<asrwt>0</asrwt>
<pdfrwt beam="1">  1       21 0.52893636E-01 0.45436143E+03</pdfrwt>
<pdfrwt beam="2">  1       21 0.21101906E-01 0.45436143E+03</pdfrwt>
<totfact> 0.65379309E+04</totfact>
</mgrwt>
</event>
<event>
 7    0  0.4793433E-002  0.4547455E+03  0.7546771E-02  0.1026316E+00
         21   -1    0    0  502  501  0.00000000000E+00  0.00000000000E+00  0.40781778227E+03  0.40781778227E+03  0.00000000000E+00 0. -1.
         21   -1    0    0  501  502 -0.00000000000E+00 -0.00000000000E+00 -0.12676832179E+03  0.12676832179E+03  0.00000000000E+00 0. -1.
      99926    2    1    2    0    0  0.00000000000E+00 -0.71054273576E-14  0.28104946047E+03  0.53458610406E+03  0.45474553700E+03 0.  0.
      99925    2    3    3    0    0 -0.27076800026E+02  0.50840923507E+02  0.29096335021E+03  0.39651457943E+03  0.26314670420E+03 0.  0.
         25    1    4    4    0    0 -0.30648307501E+02  0.58531471217E+02  0.12700923388E+03  0.19011603159E+03  0.12509000000E+03 0.  0.
         25    1    4    4    0    0  0.35715074757E+01 -0.76905477100E+01  0.16395411633E+03  0.20639854784E+03  0.12509000000E+03 0.  0.
         25    1    3    3    0    0  0.27076800026E+02 -0.50840923507E+02 -0.99138897414E+01  0.13807152463E+03  0.12509000000E+03 0.  0.
<mgrwt>
<rscale>  2 0.45474554E+03</rscale>
<asrwt>0</asrwt>
<pdfrwt beam="1">  1       21 0.59973203E-01 0.45474554E+03</pdfrwt>
<pdfrwt beam="2">  1       21 0.18642400E-01 0.45474554E+03</pdfrwt>
<totfact> 0.63023547E+04</totfact>
</mgrwt>
</event>
<event>
 7    0  0.4885069E-002  0.4169138E+03  0.7546771E-02  0.1038075E+00
         21   -1    0    0  502  501  0.00000000000E+00  0.00000000000E+00  0.19216862939E+03  0.19216862939E+03  0.00000000000E+00 0.  1.
         21   -1    0    0  501  502 -0.00000000000E+00 -0.00000000000E+00 -0.22612580756E+03  0.22612580756E+03  0.00000000000E+00 0.  1.
      99926    2    1    2    0    0  0.35527136788E-14 -0.71054273576E-14 -0.33957178165E+02  0.41829443695E+03  0.41691383527E+03 0.  0.
      99925    2    3    3    0    0  0.25703227511E+02 -0.47623424378E+02  0.25237448855E+02  0.26970049892E+03  0.26300719351E+03 0.  0.
         25    1    3    3    0    0 -0.25703227511E+02  0.47623424378E+02 -0.59194627020E+02  0.14859393804E+03  0.12509000000E+03 0.  0.
         25    1    4    4    0    0  0.31052486105E+02 -0.22885531689E+02  0.49204296574E+02  0.13984482599E+03  0.12509000000E+03 0.  0.
         25    1    4    4    0    0 -0.53492585940E+01 -0.24737892689E+02 -0.23966847719E+02  0.12985567293E+03  0.12509000000E+03 0.  0.
<mgrwt>
<rscale>  2 0.41691384E+03</rscale>
<asrwt>0</asrwt>
<pdfrwt beam="1">  1       21 0.28260093E-01 0.41691384E+03</pdfrwt>
<pdfrwt beam="2">  1       21 0.33253795E-01 0.41691384E+03</pdfrwt>
<totfact> 0.97843106E+04</totfact>
</mgrwt>
</event>
<event>
 6    0  0.4793433E-002  0.4576264E+03  0.7546771E-02  0.1025472E+00
         21   -1    0    0  502  501  0.00000000000E+00  0.00000000000E+00  0.59794463114E+02  0.59794463114E+02  0.00000000000E+00 0.  1.
         21   -1    0    0  501  502 -0.00000000000E+00 -0.00000000000E+00 -0.87559073911E+03  0.87559073911E+03  0.00000000000E+00 0.  1.
      99926    2    1    2    0    0  0.14210854715E-13  0.00000000000E+00 -0.81579627600E+03  0.93538520223E+03  0.45762638977E+03 0.  0.
         25    1    3    3    0    0 -0.90203239559E+02  0.88840171992E+01 -0.25612865228E+03  0.29910691201E+03  0.12509000000E+03 0.  0.
         25    1    3    3    0    0 -0.10135612020E+02  0.45153349337E+02 -0.25465808694E+03  0.28747139846E+03  0.12509000000E+03 0.  0.
         25    1    3    3    0    0  0.10033885158E+03 -0.54037366536E+02 -0.30500953677E+03  0.34880689176E+03  0.12509000000E+03 0.  0.
<mgrwt>
<rscale>  2 0.45762639E+03</rscale>
<asrwt>0</asrwt>
<pdfrwt beam="1">  1       21 0.87933033E-02 0.45762639E+03</pdfrwt>
<pdfrwt beam="2">  1       21 0.12876335E+00 0.45762639E+03</pdfrwt>
<totfact> 0.40891887E+04</totfact>
</mgrwt>
</event>
<event>
 7    0  0.4793433E-002  0.4641696E+03  0.7546771E-02  0.1023579E+00
         21   -1    0    0  502  501  0.00000000000E+00  0.00000000000E+00  0.47535987857E+03  0.47535987857E+03  0.00000000000E+00 0. -1.
         21   -1    0    0  501  502 -0.00000000000E+00 -0.00000000000E+00 -0.11331068889E+03  0.11331068889E+03  0.00000000000E+00 0. -1.
      99926    2    1    2    0    0  0.00000000000E+00  0.00000000000E+00  0.36204918968E+03  0.58867056745E+03  0.46416960395E+03 0.  0.
      99925    2    3    3    0    0 -0.82636718761E+02  0.42255109972E+02  0.12609143576E+03  0.30593766993E+03  0.26283927808E+03 0.  0.
         25    1    4    4    0    0 -0.38288914758E+01  0.38165808134E+02  0.60060450240E+02  0.14396546497E+03  0.12509000000E+03 0.  0.
         25    1    3    3    0    0  0.82636718761E+02 -0.42255109972E+02  0.23595775392E+03  0.28273289752E+03  0.12509000000E+03 0.  0.
         25    1    4    4    0    0 -0.78807827285E+02  0.40893018385E+01  0.66030985519E+02  0.16197220496E+03  0.12509000000E+03 0.  0.
<mgrwt>
<rscale>  2 0.46416960E+03</rscale>
<asrwt>0</asrwt>
<pdfrwt beam="1">  1       21 0.69905864E-01 0.46416960E+03</pdfrwt>
<pdfrwt beam="2">  1       21 0.16663337E-01 0.46416960E+03</pdfrwt>
<totfact> 0.55265352E+04</totfact>
</mgrwt>
</event>
<event>
 7    0  0.4793433E-002  0.4578098E+03  0.7546771E-02  0.1025418E+00
         21   -1    0    0  502  501  0.00000000000E+00  0.00000000000E+00  0.73097677481E+02  0.73097677481E+02  0.00000000000E+00 0.  1.
         21   -1    0    0  501  502 -0.00000000000E+00 -0.00000000000E+00 -0.71681419832E+03  0.71681419832E+03  0.00000000000E+00 0.  1.
      99926    2    1    2    0    0  0.00000000000E+00  0.00000000000E+00 -0.64371652084E+03  0.78991187580E+03  0.45780979930E+03 0.  0.
      99925    2    3    3    0    0 -0.95904122371E+02 -0.40952086831E+02 -0.31719345962E+03  0.42502902925E+03  0.26298918375E+03 0.  0.
         25    1    3    3    0    0  0.95904122371E+02  0.40952086831E+02 -0.32652306122E+03  0.36488284655E+03  0.12509000000E+03 0.  0.
         25    1    4    4    0    0 -0.29217373478E+02 -0.49223778641E+02 -0.12354767922E+03  0.18490043926E+03  0.12509000000E+03 0.  0.
         25    1    4    4    0    0 -0.66686748893E+02  0.82716918104E+01 -0.19364578040E+03  0.24012858999E+03  0.12509000000E+03 0.  0.
<mgrwt>
<rscale>  2 0.45780980E+03</rscale>
<asrwt>0</asrwt>
<pdfrwt beam="1">  1       21 0.10749659E-01 0.45780980E+03</pdfrwt>
<pdfrwt beam="2">  1       21 0.10541385E+00 0.45780980E+03</pdfrwt>
<totfact> 0.47206980E+04</totfact>
</mgrwt>
</event>
<event>
 7    0  0.4793433E-002  0.4410642E+03  0.7546771E-02  0.1030421E+00
         21   -1    0    0  502  501  0.00000000000E+00  0.00000000000E+00  0.22083940074E+03  0.22083940074E+03  0.00000000000E+00 0. -1.
         21   -1    0    0  501  502 -0.00000000000E+00 -0.00000000000E+00 -0.22022525335E+03  0.22022525335E+03  0.00000000000E+00 0. -1.
      99926    2    1    2    0    0  0.00000000000E+00  0.00000000000E+00  0.61414739093E+00  0.44106465409E+03  0.44106422652E+03 0.  0.
      99925    2    3    3    0    0 -0.59460571238E+02  0.73285844157E+02  0.32144595886E+02  0.28122707476E+03  0.26296200875E+03 0.  0.
         25    1    4    4    0    0 -0.17678809628E+02  0.56251246721E+02  0.50006065403E+02  0.14705392801E+03  0.12509000000E+03 0.  0.
         25    1    3    3    0    0  0.59460571238E+02 -0.73285844157E+02 -0.31530448495E+02  0.15983757934E+03  0.12509000000E+03 0.  0.
         25    1    4    4    0    0 -0.41781761610E+02  0.17034597436E+02 -0.17861469517E+02  0.13417314674E+03  0.12509000000E+03 0.  0.
<mgrwt>
<rscale>  2 0.44106423E+03</rscale>
<asrwt>0</asrwt>
<pdfrwt beam="1">  1       21 0.32476383E-01 0.44106423E+03</pdfrwt>
<pdfrwt beam="2">  1       21 0.32386067E-01 0.44106423E+03</pdfrwt>
<totfact> 0.77885685E+04</totfact>
</mgrwt>
</event>
<event>
 7    0  0.4793433E-002  0.4439343E+03  0.7546771E-02  0.1029546E+00
         21   -1    0    0  502  501  0.00000000000E+00  0.00000000000E+00  0.77363143945E+03  0.77363143945E+03  0.00000000000E+00 0. -1.
         21   -1    0    0  501  502 -0.00000000000E+00 -0.00000000000E+00 -0.63685892926E+02  0.63685892926E+02  0.00000000000E+00 0. -1.
      99926    2    1    2    0    0  0.00000000000E+00  0.88817841970E-15  0.70994554653E+03  0.83731733238E+03  0.44393426999E+03 0.  0.
      99925    2    3    3    0    0  0.17104678995E+02  0.77852367178E+01  0.26108254538E+03  0.37097123573E+03  0.26287331985E+03 0.  0.
         25    1    4    4    0    0 -0.17290420494E+02 -0.23142672858E+02  0.10648881707E+03  0.16679903540E+03  0.12509000000E+03 0.  0.
         25    1    4    4    0    0  0.34395099489E+02  0.30927909576E+02  0.15459372830E+03  0.20417220034E+03  0.12509000000E+03 0.  0.
         25    1    3    3    0    0 -0.17104678995E+02 -0.77852367178E+01  0.44886300115E+03  0.46634609664E+03  0.12509000000E+03 0.  0.
<mgrwt>
<rscale>  2 0.44393427E+03</rscale>
<asrwt>0</asrwt>
<pdfrwt beam="1">  1       21 0.11376932E+00 0.44393427E+03</pdfrwt>
<pdfrwt beam="2">  1       21 0.93655729E-02 0.44393427E+03</pdfrwt>
<totfact> 0.50233242E+04</totfact>
</mgrwt>
</event>
<event>
 7    0  0.4793433E-002  0.4565220E+03  0.7546771E-02  0.1025795E+00
         21   -1    0    0  502  501  0.00000000000E+00  0.00000000000E+00  0.12699263515E+03  0.12699263515E+03  0.00000000000E+00 0.  1.
         21   -1    0    0  501  502 -0.00000000000E+00 -0.00000000000E+00 -0.41028430379E+03  0.41028430379E+03  0.00000000000E+00 0.  1.
      99926    2    1    2    0    0  0.00000000000E+00  0.00000000000E+00 -0.28329166864E+03  0.53727693894E+03  0.45652200341E+03 0.  0.
      99925    2    3    3    0    0 -0.38349820515E+02  0.87567520220E+02 -0.25237121439E+03  0.37683267472E+03  0.26300732984E+03 0.  0.
         25    1    3    3    0    0  0.38349820515E+02 -0.87567520220E+02 -0.30920454257E+02  0.16044426422E+03  0.12509000000E+03 0.  0.
         25    1    4    4    0    0  0.38256244475E+00  0.80249222902E+02 -0.12986452821E+03  0.19736359319E+03  0.12509000000E+03 0.  0.
         25    1    4    4    0    0 -0.38732382960E+02  0.73182973176E+01 -0.12250668617E+03  0.17946908152E+03  0.12509000000E+03 0.  0.
<mgrwt>
<rscale>  2 0.45652200E+03</rscale>
<asrwt>0</asrwt>
<pdfrwt beam="1">  1       21 0.18675387E-01 0.45652200E+03</pdfrwt>
<pdfrwt beam="2">  1       21 0.60335927E-01 0.45652200E+03</pdfrwt>
<totfact> 0.61965362E+04</totfact>
</mgrwt>
</event>
<event>
 7    0  0.4793433E-002  0.4572481E+03  0.7546771E-02  0.1025582E+00
         21   -1    0    0  502  501  0.00000000000E+00  0.00000000000E+00  0.31207603112E+03  0.31207603112E+03  0.00000000000E+00 0. -1.
         21   -1    0    0  501  502 -0.00000000000E+00 -0.00000000000E+00 -0.16748788651E+03  0.16748788651E+03  0.00000000000E+00 0. -1.
      99926    2    1    2    0    0 -0.71054273576E-14  0.00000000000E+00  0.14458814461E+03  0.47956391763E+03  0.45724809407E+03 0.  0.
      99925    2    3    3    0    0 -0.63869137926E+02 -0.95904011776E+02  0.89128512193E+02  0.30067812953E+03  0.26303345726E+03 0.  0.
         25    1    3    3    0    0  0.63869137926E+02  0.95904011776E+02  0.55459632414E+02  0.17888578809E+03  0.12509000000E+03 0.  0.
         25    1    4    4    0    0 -0.54507342737E+02 -0.15797095010E+02  0.55106174010E+02  0.14800269301E+03  0.12509000000E+03 0.  0.
         25    1    4    4    0    0 -0.93617951891E+01 -0.80106916767E+02  0.34022338183E+02  0.15267543653E+03  0.12509000000E+03 0.  0.
<mgrwt>
<rscale>  2 0.45724809E+03</rscale>
<asrwt>0</asrwt>
<pdfrwt beam="1">  1       21 0.45893534E-01 0.45724809E+03</pdfrwt>
<pdfrwt beam="2">  1       21 0.24630571E-01 0.45724809E+03</pdfrwt>
<totfact> 0.65554332E+04</totfact>
</mgrwt>
</event>
<event>
 7    0  0.4793433E-002  0.4835120E+03  0.7546771E-02  0.1018174E+00
         21   -1    0    0  502  501  0.00000000000E+00  0.00000000000E+00  0.10509001067E+03  0.10509001067E+03  0.00000000000E+00 0. -1.
         21   -1    0    0  501  502 -0.00000000000E+00 -0.00000000000E+00 -0.55615148930E+03  0.55615148930E+03  0.00000000000E+00 0. -1.
      99926    2    1    2    0    0  0.00000000000E+00  0.71054273576E-14 -0.45106147863E+03  0.66124149997E+03  0.48351200996E+03 0.  0.
      99925    2    3    3    0    0  0.66966014576E+02 -0.60290852155E+02 -0.42047768330E+03  0.50407181270E+03  0.26299710310E+03 0.  0.
         25    1    4    4    0    0  0.47790817499E+02 -0.33711240242E+02 -0.28553942688E+03  0.31717610622E+03  0.12509000000E+03 0.  0.
         25    1    4    4    0    0  0.19175197077E+02 -0.26579611912E+02 -0.13493825642E+03  0.18689570647E+03  0.12509000000E+03 0.  0.
         25    1    3    3    0    0 -0.66966014576E+02  0.60290852155E+02 -0.30583795333E+02  0.15716968728E+03  0.12509000000E+03 0.  0.
<mgrwt>
<rscale>  2 0.48351201E+03</rscale>
<asrwt>0</asrwt>
<pdfrwt beam="1">  1       21 0.15454413E-01 0.48351201E+03</pdfrwt>
<pdfrwt beam="2">  1       21 0.81786983E-01 0.48351201E+03</pdfrwt>
<totfact> 0.44237585E+04</totfact>
</mgrwt>
</event>
<event>
 7    0  0.4793433E-002  0.4312894E+03  0.7546771E-02  0.1033453E+00
         21   -1    0    0  502  501  0.00000000000E+00  0.00000000000E+00  0.12057552734E+04  0.12057552734E+04  0.00000000000E+00 0. -1.
         21   -1    0    0  501  502 -0.00000000000E+00 -0.00000000000E+00 -0.38567226678E+02  0.38567226678E+02  0.00000000000E+00 0. -1.
      99926    2    1    2    0    0  0.00000000000E+00  0.00000000000E+00  0.11671880467E+04  0.12443225001E+04  0.43128940143E+03 0.  0.
      99925    2    3    3    0    0 -0.45281193714E+02 -0.41282873031E+02  0.93851575734E+03  0.97656666701E+03  0.26289915601E+03 0.  0.
         25    1    3    3    0    0  0.45281193714E+02  0.41282873031E+02  0.22867228939E+03  0.26775583307E+03  0.12509000000E+03 0.  0.
         25    1    4    4    0    0 -0.31716864763E+02 -0.59682345222E+02  0.46273838301E+03  0.48408910445E+03  0.12509000000E+03 0.  0.
         25    1    4    4    0    0 -0.13564328952E+02  0.18399472191E+02  0.47577737433E+03  0.49247756255E+03  0.12509000000E+03 0.  0.
<mgrwt>
<rscale>  2 0.43128940E+03</rscale>
<asrwt>0</asrwt>
<pdfrwt beam="1">  1       21 0.17731693E+00 0.43128940E+03</pdfrwt>
<pdfrwt beam="2">  1       21 0.56716518E-02 0.43128940E+03</pdfrwt>
<totfact> 0.37175938E+04</totfact>
</mgrwt>
</event>
<event>
 7    0  0.4793433E-002  0.4529110E+03  0.7546771E-02  0.1026857E+00
         21   -1    0    0  502  501  0.00000000000E+00  0.00000000000E+00  0.95537516799E+03  0.95537516799E+03  0.00000000000E+00 0.  1.
         21   -1    0    0  501  502 -0.00000000000E+00 -0.00000000000E+00 -0.53677440267E+02  0.53677440267E+02  0.00000000000E+00 0.  1.
      99926    2    1    2    0    0 -0.14210854715E-13  0.00000000000E+00  0.90169772772E+03  0.10090526083E+04  0.45291100014E+03 0.  0.
      99925    2    3    3    0    0  0.10534708489E+03  0.31954974114E+02  0.60039416251E+03  0.66474101220E+03  0.26322677347E+03 0.  0.
         25    1    4    4    0    0  0.16566835390E+02 -0.17815019554E+01  0.22826861049E+03  0.26082887191E+03  0.12509000000E+03 0.  0.
         25    1    4    4    0    0  0.88780249495E+02  0.33736476069E+02  0.37212555201E+03  0.40391214029E+03  0.12509000000E+03 0.  0.
         25    1    3    3    0    0 -0.10534708489E+03 -0.31954974114E+02  0.30130356522E+03  0.34431159605E+03  0.12509000000E+03 0.  0.
<mgrwt>
<rscale>  2 0.45291100E+03</rscale>
<asrwt>0</asrwt>
<pdfrwt beam="1">  1       21 0.14049634E+00 0.45291100E+03</pdfrwt>
<pdfrwt beam="2">  1       21 0.78937418E-02 0.45291100E+03</pdfrwt>
<totfact> 0.39456234E+04</totfact>
</mgrwt>
</event>
<event>
 7    0  0.4793433E-002  0.4571703E+03  0.7546771E-02  0.1025605E+00
         21   -1    0    0  502  501  0.00000000000E+00  0.00000000000E+00  0.48608284869E+03  0.48608284869E+03  0.00000000000E+00 0.  1.
         21   -1    0    0  501  502 -0.00000000000E+00 -0.00000000000E+00 -0.10749436349E+03  0.10749436349E+03  0.00000000000E+00 0.  1.
      99926    2    1    2    0    0  0.00000000000E+00  0.00000000000E+00  0.37858848520E+03  0.59357721219E+03  0.45717028086E+03 0.  0.
      99925    2    3    3    0    0  0.11456419279E+03 -0.11334582514E+02  0.23327122897E+03  0.36993007921E+03  0.26301971449E+03 0.  0.
         25    1    3    3    0    0 -0.11456419279E+03  0.11334582514E+02  0.14531725623E+03  0.22364713298E+03  0.12509000000E+03 0.  0.
         25    1    4    4    0    0  0.52421021799E+02  0.24107363774E+02  0.14931695665E+03  0.20315558117E+03  0.12509000000E+03 0.  0.
         25    1    4    4    0    0  0.62143170993E+02 -0.35441946287E+02  0.83954272315E+02  0.16677449804E+03  0.12509000000E+03 0.  0.
<mgrwt>
<rscale>  2 0.45717028E+03</rscale>
<asrwt>0</asrwt>
<pdfrwt beam="1">  1       21 0.71482771E-01 0.45717028E+03</pdfrwt>
<pdfrwt beam="2">  1       21 0.15807995E-01 0.45717028E+03</pdfrwt>
<totfact> 0.58072905E+04</totfact>
</mgrwt>
</event>
<event>
 7    0  0.4793433E-002  0.4542615E+03  0.7546771E-02  0.1026459E+00
         21   -1    0    0  502  501  0.00000000000E+00  0.00000000000E+00  0.86679730088E+03  0.86679730088E+03  0.00000000000E+00 0. -1.
         21   -1    0    0  501  502 -0.00000000000E+00 -0.00000000000E+00 -0.59516080653E+02  0.59516080653E+02  0.00000000000E+00 0. -1.
      99926    2    1    2    0    0 -0.71054273576E-14  0.00000000000E+00  0.80728122023E+03  0.92631338154E+03  0.45426150209E+03 0.  0.
      99925    2    3    3    0    0  0.16195654307E+02  0.41231312491E+02  0.29827830179E+03  0.40029646219E+03  0.26325841294E+03 0.  0.
         25    1    3    3    0    0 -0.16195654307E+02 -0.41231312491E+02  0.50900291845E+03  0.52601691934E+03  0.12509000000E+03 0.  0.
         25    1    4    4    0    0 -0.32445170188E+02  0.23143241875E+02  0.13822664779E+03  0.19063686153E+03  0.12509000000E+03 0.  0.
         25    1    4    4    0    0  0.48640824495E+02  0.18088070616E+02  0.16005165399E+03  0.20965960067E+03  0.12509000000E+03 0.  0.
<mgrwt>
<rscale>  2 0.45426150E+03</rscale>
<asrwt>0</asrwt>
<pdfrwt beam="1">  1       21 0.12747018E+00 0.45426150E+03</pdfrwt>
<pdfrwt beam="2">  1       21 0.87523653E-02 0.45426150E+03</pdfrwt>
<totfact> 0.42359331E+04</totfact>
</mgrwt>
</event>
<event>
 7    0  0.4793433E-002  0.4458308E+03  0.7546771E-02  0.1028973E+00
         21   -1    0    0  502  501  0.00000000000E+00  0.00000000000E+00  0.31757327976E+03  0.31757327976E+03  0.00000000000E+00 0. -1.
         21   -1    0    0  501  502 -0.00000000000E+00 -0.00000000000E+00 -0.15647181005E+03  0.15647181005E+03  0.00000000000E+00 0. -1.
      99926    2    1    2    0    0  0.35527136788E-14  0.00000000000E+00  0.16110146972E+03  0.47404508981E+03  0.44583075671E+03 0.  0.
      99925    2    3    3    0    0 -0.96787358093E+01 -0.95721804746E+02  0.59179145068E+02  0.28618341146E+03  0.26294948555E+03 0.  0.
         25    1    3    3    0    0  0.96787358093E+01  0.95721804746E+02  0.10192232465E+03  0.18786167835E+03  0.12509000000E+03 0.  0.
         25    1    4    4    0    0 -0.32047588932E+02 -0.16951347534E+02  0.33608657119E+02  0.13450444629E+03  0.12509000000E+03 0.  0.
         25    1    4    4    0    0  0.22368853123E+02 -0.78770457212E+02  0.25570487949E+02  0.15167896516E+03  0.12509000000E+03 0.  0.
<mgrwt>
<rscale>  2 0.44583076E+03</rscale>
<asrwt>0</asrwt>
<pdfrwt beam="1">  1       21 0.46701953E-01 0.44583076E+03</pdfrwt>
<pdfrwt beam="2">  1       21 0.23010560E-01 0.44583076E+03</pdfrwt>
<totfact> 0.72253194E+04</totfact>
</mgrwt>
</event>
<event>
 7    0  0.4793433E-002  0.4562141E+03  0.7546771E-02  0.1025885E+00
         21   -1    0    0  502  501  0.00000000000E+00  0.00000000000E+00  0.57346506963E+02  0.57346506963E+02  0.00000000000E+00 0. -1.
         21   -1    0    0  501  502 -0.00000000000E+00 -0.00000000000E+00 -0.90734064335E+03  0.90734064335E+03  0.00000000000E+00 0. -1.
      99926    2    1    2    0    0  0.35527136788E-14 -0.71054273576E-14 -0.84999413638E+03  0.96468715031E+03  0.45621405731E+03 0.  0.
      99925    2    3    3    0    0  0.19417168027E+02 -0.37526289004E+02 -0.75878839104E+03  0.80421520614E+03  0.26309128956E+03 0.  0.
         25    1    4    4    0    0  0.16241007068E+01  0.93309456172E+01 -0.45302167656E+03  0.47007004987E+03  0.12509000000E+03 0.  0.
         25    1    4    4    0    0  0.17793067320E+02 -0.46857234621E+02 -0.30576671447E+03  0.33414515627E+03  0.12509000000E+03 0.  0.
         25    1    3    3    0    0 -0.19417168027E+02  0.37526289004E+02 -0.91205745349E+02  0.16047194417E+03  0.12509000000E+03 0.  0.
<mgrwt>
<rscale>  2 0.45621406E+03</rscale>
<asrwt>0</asrwt>
<pdfrwt beam="1">  1       21 0.84333099E-02 0.45621406E+03</pdfrwt>
<pdfrwt beam="2">  1       21 0.13343245E+00 0.45621406E+03</pdfrwt>
<totfact> 0.40169119E+04</totfact>
</mgrwt>
</event>
<event>
 7    0  0.4793433E-002  0.4497288E+03  0.7546771E-02  0.1027803E+00
         21   -1    0    0  502  501  0.00000000000E+00  0.00000000000E+00  0.54042797218E+03  0.54042797218E+03  0.00000000000E+00 0. -1.
         21   -1    0    0  501  502 -0.00000000000E+00 -0.00000000000E+00 -0.93562899545E+02  0.93562899545E+02  0.00000000000E+00 0. -1.
      99926    2    1    2    0    0  0.00000000000E+00  0.00000000000E+00  0.44686507264E+03  0.63399087173E+03  0.44972884307E+03 0.  0.
      99925    2    3    3    0    0  0.35966039398E+02 -0.10037533503E+03  0.25589420885E+03  0.38202630520E+03  0.26285640161E+03 0.  0.
         25    1    4    4    0    0  0.38079888368E+02 -0.24268536365E+02  0.89146533425E+02  0.16010512883E+03  0.12509000000E+03 0.  0.
         25    1    4    4    0    0 -0.21138489697E+01 -0.76106798664E+02  0.16674767543E+03  0.22192117637E+03  0.12509000000E+03 0.  0.
         25    1    3    3    0    0 -0.35966039398E+02  0.10037533503E+03  0.19097086379E+03  0.25196456653E+03  0.12509000000E+03 0.  0.
<mgrwt>
<rscale>  2 0.44972884E+03</rscale>
<asrwt>0</asrwt>
<pdfrwt beam="1">  1       21 0.79474700E-01 0.44972884E+03</pdfrwt>
<pdfrwt beam="2">  1       21 0.13759250E-01 0.44972884E+03</pdfrwt>
<totfact> 0.59052046E+04</totfact>
</mgrwt>
</event>
<event>
 7    0  0.4793433E-002  0.4473387E+03  0.7546771E-02  0.1028519E+00
         21   -1    0    0  502  501  0.00000000000E+00  0.00000000000E+00  0.71796502637E+02  0.71796502637E+02  0.00000000000E+00 0. -1.
         21   -1    0    0  501  502 -0.00000000000E+00 -0.00000000000E+00 -0.69680231975E+03  0.69680231975E+03  0.00000000000E+00 0. -1.
      99926    2    1    2    0    0  0.71054273576E-14  0.00000000000E+00 -0.62500581712E+03  0.76859882239E+03  0.44733866181E+03 0.  0.
      99925    2    3    3    0    0 -0.47063727834E+02  0.87563410046E+02 -0.33387875518E+03  0.43650723931E+03  0.26302319586E+03 0.  0.
         25    1    3    3    0    0  0.47063727834E+02 -0.87563410046E+02 -0.29112706194E+03  0.33209158308E+03  0.12509000000E+03 0.  0.
         25    1    4    4    0    0 -0.11979820190E+02  0.67981066042E+02 -0.22169405649E+03  0.26374363350E+03  0.12509000000E+03 0.  0.
         25    1    4    4    0    0 -0.35083907645E+02  0.19582344004E+02 -0.11218469869E+03  0.17276360581E+03  0.12509000000E+03 0.  0.
<mgrwt>
<rscale>  2 0.44733866E+03</rscale>
<asrwt>0</asrwt>
<pdfrwt beam="1">  1       21 0.10558308E-01 0.44733866E+03</pdfrwt>
<pdfrwt beam="2">  1       21 0.10247094E+00 0.44733866E+03</pdfrwt>
<totfact> 0.52402409E+04</totfact>
</mgrwt>
</event>
<event>
 7    0  0.4793433E-002  0.4599761E+03  0.7546771E-02  0.1024788E+00
         21   -1    0    0  502  501  0.00000000000E+00  0.00000000000E+00  0.10332394683E+04  0.10332394683E+04  0.00000000000E+00 0. -1.
         21   -1    0    0  501  502 -0.00000000000E+00 -0.00000000000E+00 -0.51192879906E+02  0.51192879906E+02  0.00000000000E+00 0. -1.
      99926    2    1    2    0    0  0.00000000000E+00  0.00000000000E+00  0.98204658836E+03  0.10844323482E+04  0.45997610379E+03 0.  0.
      99925    2    3    3    0    0  0.91167677412E+02 -0.55869070605E+02  0.73158866470E+03  0.78474988609E+03  0.26301618001E+03 0.  0.
         25    1    3    3    0    0 -0.91167677412E+02  0.55869070605E+02  0.25045792366E+03  0.29968246208E+03  0.12509000000E+03 0.  0.
         25    1    4    4    0    0  0.72258941188E+02  0.24430137025E+01  0.38457690053E+03  0.41082140087E+03  0.12509000000E+03 0.  0.
         25    1    4    4    0    0  0.18908736224E+02 -0.58312084307E+02  0.34701176417E+03  0.37392848522E+03  0.12509000000E+03 0.  0.
<mgrwt>
<rscale>  2 0.45997610E+03</rscale>
<asrwt>0</asrwt>
<pdfrwt beam="1">  1       21 0.15194697E+00 0.45997610E+03</pdfrwt>
<pdfrwt beam="2">  1       21 0.75283654E-02 0.45997610E+03</pdfrwt>
<totfact> 0.34672858E+04</totfact>
</mgrwt>
</event>
<event>
 7    0  0.4793433E-002  0.4568421E+03  0.7546771E-02  0.1025701E+00
         21   -1    0    0  502  501  0.00000000000E+00  0.00000000000E+00  0.67321794932E+03  0.67321794932E+03  0.00000000000E+00 0. -1.
         21   -1    0    0  501  502 -0.00000000000E+00 -0.00000000000E+00 -0.77502658546E+02  0.77502658546E+02  0.00000000000E+00 0. -1.
      99926    2    1    2    0    0  0.00000000000E+00  0.35527136788E-14  0.59571529078E+03  0.75072060787E+03  0.45684212088E+03 0.  0.
      99925    2    3    3    0    0 -0.67568665569E+02 -0.18487424380E+02  0.52390731637E+03  0.59037347595E+03  0.26297272773E+03 0.  0.
         25    1    4    4    0    0 -0.40819729298E+02  0.25014698122E+02  0.21646476617E+03  0.25455154393E+03  0.12509000000E+03 0.  0.
         25    1    3    3    0    0  0.67568665569E+02  0.18487424380E+02  0.71807974407E+02  0.16034713192E+03  0.12509000000E+03 0.  0.
         25    1    4    4    0    0 -0.26748936270E+02 -0.43502122502E+02  0.30744255020E+03  0.33582193202E+03  0.12509000000E+03 0.  0.
<mgrwt>
<rscale>  2 0.45684212E+03</rscale>
<asrwt>0</asrwt>
<pdfrwt beam="1">  1       21 0.99002636E-01 0.45684212E+03</pdfrwt>
<pdfrwt beam="2">  1       21 0.11397450E-01 0.45684212E+03</pdfrwt>
<totfact> 0.49513413E+04</totfact>
</mgrwt>
</event>
<event>
 7    0  0.4793433E-002  0.4457748E+03  0.7546771E-02  0.1028990E+00
         21   -1    0    0  502  501  0.00000000000E+00  0.00000000000E+00  0.26965988902E+03  0.26965988902E+03  0.00000000000E+00 0. -1.
         21   -1    0    0  501  502 -0.00000000000E+00 -0.00000000000E+00 -0.18422758674E+03  0.18422758674E+03  0.00000000000E+00 0. -1.
      99926    2    1    2    0    0  0.00000000000E+00 -0.71054273576E-14  0.85432302280E+02  0.45388747576E+03  0.44577478886E+03 0.  0.
      99925    2    3    3    0    0  0.90919929399E+02 -0.49141545631E+02  0.53136533747E+02  0.28844307473E+03  0.26399733156E+03 0.  0.
         25    1    4    4    0    0  0.86770564606E+02 -0.23567029297E+02  0.13273385694E+02  0.15462285284E+03  0.12509000000E+03 0.  0.
         25    1    3    3    0    0 -0.90919929399E+02  0.49141545631E+02  0.32295768533E+02  0.16544440104E+03  0.12509000000E+03 0.  0.
         25    1    4    4    0    0  0.41493647937E+01 -0.25574516334E+02  0.39863148053E+02  0.13382022189E+03  0.12509000000E+03 0.  0.
<mgrwt>
<rscale>  2 0.44577479E+03</rscale>
<asrwt>0</asrwt>
<pdfrwt beam="1">  1       21 0.39655866E-01 0.44577479E+03</pdfrwt>
<pdfrwt beam="2">  1       21 0.27092292E-01 0.44577479E+03</pdfrwt>
<totfact> 0.73916424E+04</totfact>
</mgrwt>
</event>
<event>
 6    0  0.4793433E-002  0.4529830E+03  0.7546771E-02  0.1026836E+00
         21   -1    0    0  502  501  0.00000000000E+00  0.00000000000E+00  0.58108711824E+03  0.58108711824E+03  0.00000000000E+00 0.  1.
         21   -1    0    0  501  502 -0.00000000000E+00 -0.00000000000E+00 -0.88280040226E+02  0.88280040226E+02  0.00000000000E+00 0.  1.
      99926    2    1    2    0    0  0.14210854715E-13  0.00000000000E+00  0.49280707802E+03  0.66936715847E+03  0.45298297616E+03 0.  0.
         25    1    3    3    0    0  0.72042140578E+02  0.21062476288E+02  0.29814838051E+03  0.33192418235E+03  0.12509000000E+03 0.  0.
         25    1    3    3    0    0 -0.75662424089E+02 -0.32495351724E+02  0.11243460102E+03  0.18726931919E+03  0.12509000000E+03 0.  0.
         25    1    3    3    0    0  0.36202835116E+01  0.11432875437E+02  0.82224096486E+02  0.15017365693E+03  0.12509000000E+03 0.  0.
<mgrwt>
<rscale>  2 0.45298298E+03</rscale>
<asrwt>0</asrwt>
<pdfrwt beam="1">  1       21 0.85453986E-01 0.45298298E+03</pdfrwt>
<pdfrwt beam="2">  1       21 0.12982359E-01 0.45298298E+03</pdfrwt>
<totfact> 0.55474738E+04</totfact>
</mgrwt>
</event>
<event>
 7    0  0.4793433E-002  0.4468818E+03  0.7546771E-02  0.1028656E+00
         21   -1    0    0  502  501  0.00000000000E+00  0.00000000000E+00  0.63107463642E+02  0.63107463642E+02  0.00000000000E+00 0. -1.
         21   -1    0    0  501  502 -0.00000000000E+00 -0.00000000000E+00 -0.79112405612E+03  0.79112405612E+03  0.00000000000E+00 0. -1.
      99926    2    1    2    0    0  0.00000000000E+00  0.00000000000E+00 -0.72801659248E+03  0.85423151976E+03  0.44688178575E+03 0.  0.
      99925    2    3    3    0    0  0.59133675967E+02 -0.45872364688E+02 -0.60325736008E+03  0.66236323254E+03  0.26306756517E+03 0.  0.
         25    1    4    4    0    0  0.41734316127E+02 -0.61115210393E+02 -0.34911962875E+03  0.37816510331E+03  0.12509000000E+03 0.  0.
         25    1    4    4    0    0  0.17399359840E+02  0.15242845705E+02 -0.25413773134E+03  0.28419812923E+03  0.12509000000E+03 0.  0.
         25    1    3    3    0    0 -0.59133675967E+02  0.45872364688E+02 -0.12475923239E+03  0.19186828723E+03  0.12509000000E+03 0.  0.
<mgrwt>
<rscale>  2 0.44688179E+03</rscale>
<asrwt>0</asrwt>
<pdfrwt beam="1">  1       21 0.92805089E-02 0.44688179E+03</pdfrwt>
<pdfrwt beam="2">  1       21 0.11634178E+00 0.44688179E+03</pdfrwt>
<totfact> 0.48250612E+04</totfact>
</mgrwt>
</event>
<event>
 7    0  0.4793433E-002  0.4550553E+03  0.7546771E-02  0.1026225E+00
         21   -1    0    0  502  501  0.00000000000E+00  0.00000000000E+00  0.13838855183E+04  0.13838855183E+04  0.00000000000E+00 0.  1.
         21   -1    0    0  501  502 -0.00000000000E+00 -0.00000000000E+00 -0.37408316086E+02  0.37408316086E+02  0.00000000000E+00 0.  1.
      99926    2    1    2    0    0  0.00000000000E+00  0.26645352591E-14  0.13464772023E+04  0.14212938344E+04  0.45505527970E+03 0.  0.
      99925    2    3    3    0    0  0.11315917108E+03  0.66276976124E+01  0.84679733321E+03  0.89386952326E+03  0.26284610843E+03 0.  0.
         25    1    4    4    0    0  0.87858950209E+02 -0.23628779196E+02  0.43433687255E+03  0.46105698270E+03  0.12509000000E+03 0.  0.
         25    1    3    3    0    0 -0.11315917108E+03 -0.66276976124E+01  0.49967986906E+03  0.52742431117E+03  0.12509000000E+03 0.  0.
         25    1    4    4    0    0  0.25300220870E+02  0.30256476808E+02  0.41246046066E+03  0.43281254056E+03  0.12509000000E+03 0.  0.
<mgrwt>
<rscale>  2 0.45505528E+03</rscale>
<asrwt>0</asrwt>
<pdfrwt beam="1">  1       21 0.20351254E+00 0.45505528E+03</pdfrwt>
<pdfrwt beam="2">  1       21 0.55012239E-02 0.45505528E+03</pdfrwt>
<totfact> 0.25758998E+04</totfact>
</mgrwt>
</event>
<event>
 7    0  0.4793433E-002  0.4502982E+03  0.7546771E-02  0.1027633E+00
         21   -1    0    0  502  501  0.00000000000E+00  0.00000000000E+00  0.46065808574E+02  0.46065808574E+02  0.00000000000E+00 0.  1.
         21   -1    0    0  501  502 -0.00000000000E+00 -0.00000000000E+00 -0.11004284860E+04  0.11004284860E+04  0.00000000000E+00 0.  1.
      99926    2    1    2    0    0 -0.71054273576E-14  0.00000000000E+00 -0.10543626774E+04  0.11464942946E+04  0.45029824777E+03 0.  0.
      99925    2    3    3    0    0  0.52082305028E+02  0.92441119977E+02 -0.60096514622E+03  0.66433793346E+03  0.26254115049E+03 0.  0.
         25    1    4    4    0    0 -0.14156499305E+02  0.49263982980E+02 -0.28561506564E+03  0.31599180418E+03  0.12509000000E+03 0.  0.
         25    1    4    4    0    0  0.66238804333E+02  0.43177136997E+02 -0.31535008058E+03  0.34834612927E+03  0.12509000000E+03 0.  0.
         25    1    3    3    0    0 -0.52082305028E+02 -0.92441119977E+02 -0.45339753123E+03  0.48215636113E+03  0.12509000000E+03 0.  0.
<mgrwt>
<rscale>  2 0.45029825E+03</rscale>
<asrwt>0</asrwt>
<pdfrwt beam="1">  1       21 0.67743843E-02 0.45029825E+03</pdfrwt>
<pdfrwt beam="2">  1       21 0.16182770E+00 0.45029825E+03</pdfrwt>
<totfact> 0.35170908E+04</totfact>
</mgrwt>
</event>
<event>
 7    0  0.4793433E-002  0.4406086E+03  0.7546771E-02  0.1030560E+00
         21   -1    0    0  502  501  0.00000000000E+00  0.00000000000E+00  0.10020107774E+03  0.10020107774E+03  0.00000000000E+00 0. -1.
         21   -1    0    0  501  502 -0.00000000000E+00 -0.00000000000E+00 -0.48436590918E+03  0.48436590918E+03  0.00000000000E+00 0. -1.
      99926    2    1    2    0    0  0.00000000000E+00  0.00000000000E+00 -0.38416483144E+03  0.58456698692E+03  0.44060860691E+03 0.  0.
      99925    2    3    3    0    0 -0.35570267107E+02  0.44841835978E+02 -0.13791280568E+03  0.30249677855E+03  0.26307475156E+03 0.  0.
         25    1    4    4    0    0 -0.33725106251E+02  0.60754275693E+02 -0.71316359970E+02  0.15988119372E+03  0.12509000000E+03 0.  0.
         25    1    4    4    0    0 -0.18451608556E+01 -0.15912439715E+02 -0.66596445707E+02  0.14261558483E+03  0.12509000000E+03 0.  0.
         25    1    3    3    0    0  0.35570267107E+02 -0.44841835978E+02 -0.24625202576E+03  0.28207020836E+03  0.12509000000E+03 0.  0.
<mgrwt>
<rscale>  2 0.44060861E+03</rscale>
<asrwt>0</asrwt>
<pdfrwt beam="1">  1       21 0.14735452E-01 0.44060861E+03</pdfrwt>
<pdfrwt beam="2">  1       21 0.71230281E-01 0.44060861E+03</pdfrwt>
<totfact> 0.66933578E+04</totfact>
</mgrwt>
</event>
<event>
 7    0  0.4793433E-002  0.4521073E+03  0.7546771E-02  0.1027095E+00
         21   -1    0    0  502  501  0.00000000000E+00  0.00000000000E+00  0.97966164310E+02  0.97966164310E+02  0.00000000000E+00 0.  1.
         21   -1    0    0  501  502 -0.00000000000E+00 -0.00000000000E+00 -0.52161132746E+03  0.52161132746E+03  0.00000000000E+00 0.  1.
      99926    2    1    2    0    0  0.00000000000E+00  0.14210854715E-13 -0.42364516315E+03  0.61957749177E+03  0.45210733686E+03 0.  0.
      99925    2    3    3    0    0  0.29988258261E+02 -0.10595229168E+03 -0.25597579402E+03  0.38317590719E+03  0.26301137805E+03 0.  0.
         25    1    4    4    0    0 -0.98749234716E+01 -0.31026154006E+02 -0.15289398654E+03  0.20021042822E+03  0.12509000000E+03 0.  0.
         25    1    3    3    0    0 -0.29988258261E+02  0.10595229168E+03 -0.16766936913E+03  0.23640158457E+03  0.12509000000E+03 0.  0.
         25    1    4    4    0    0  0.39863181732E+02 -0.74926137673E+02 -0.10308180748E+03  0.18296547898E+03  0.12509000000E+03 0.  0.
<mgrwt>
<rscale>  2 0.45210734E+03</rscale>
<asrwt>0</asrwt>
<pdfrwt beam="1">  1       21 0.14406789E-01 0.45210734E+03</pdfrwt>
<pdfrwt beam="2">  1       21 0.76707547E-01 0.45210734E+03</pdfrwt>
<totfact> 0.58821237E+04</totfact>
</mgrwt>
</event>
<event>
 7    0  0.4793433E-002  0.4497371E+03  0.7546771E-02  0.1027800E+00
         21   -1    0    0  502  501  0.00000000000E+00  0.00000000000E+00  0.40360217878E+02  0.40360217878E+02  0.00000000000E+00 0. -1.
         21   -1    0    0  501  502 -0.00000000000E+00 -0.00000000000E+00 -0.12528640692E+04  0.12528640692E+04  0.00000000000E+00 0. -1.
      99926    2    1    2    0    0  0.00000000000E+00 -0.14210854715E-13 -0.12125038513E+04  0.12932242871E+04  0.44973710900E+03 0.  0.
      99925    2    3    3    0    0 -0.57360301563E+02 -0.73831933798E+02 -0.61038634679E+03  0.67118380929E+03  0.26301113068E+03 0.  0.
         25    1    3    3    0    0  0.57360301563E+02  0.73831933798E+02 -0.60211750451E+03  0.62204047777E+03  0.12509000000E+03 0.  0.
         25    1    4    4    0    0 -0.18632547899E+02 -0.70015693864E+02 -0.37328849460E+03  0.40030135839E+03  0.12509000000E+03 0.  0.
         25    1    4    4    0    0 -0.38727753664E+02 -0.38162399342E+01 -0.23709785218E+03  0.27088245089E+03  0.12509000000E+03 0.  0.
<mgrwt>
<rscale>  2 0.44973711E+03</rscale>
<asrwt>0</asrwt>
<pdfrwt beam="1">  1       21 0.59353266E-02 0.44973711E+03</pdfrwt>
<pdfrwt beam="2">  1       21 0.18424470E+00 0.44973711E+03</pdfrwt>
<totfact> 0.30543322E+04</totfact>
</mgrwt>
</event>
<event>
 7    0  0.4793433E-002  0.4581144E+03  0.7546771E-02  0.1025330E+00
         21   -1    0    0  502  501  0.00000000000E+00  0.00000000000E+00  0.14523404144E+04  0.14523404144E+04  0.00000000000E+00 0.  1.
         21   -1    0    0  501  502 -0.00000000000E+00 -0.00000000000E+00 -0.36125973203E+02  0.36125973203E+02  0.00000000000E+00 0.  1.
      99926    2    1    2    0    0 -0.22204460493E-14  0.17763568394E-14  0.14162144412E+04  0.14884663876E+04  0.45811444374E+03 0.  0.
      99925    2    3    3    0    0  0.30047216257E+01  0.62437367449E+01  0.51324042205E+03  0.57684278109E+03  0.26321825671E+03 0.  0.
         25    1    3    3    0    0 -0.30047216257E+01 -0.62437367449E+01  0.90297401911E+03  0.91162360648E+03  0.12509000000E+03 0.  0.
         25    1    4    4    0    0 -0.26150705868E+02 -0.25649626462E+02  0.23484223554E+03  0.26858917784E+03  0.12509000000E+03 0.  0.
         25    1    4    4    0    0  0.29155427493E+02  0.31893363207E+02  0.27839818651E+03  0.30825360326E+03  0.12509000000E+03 0.  0.
<mgrwt>
<rscale>  2 0.45811444E+03</rscale>
<asrwt>0</asrwt>
<pdfrwt beam="1">  1       21 0.21357943E+00 0.45811444E+03</pdfrwt>
<pdfrwt beam="2">  1       21 0.53126441E-02 0.45811444E+03</pdfrwt>
<totfact> 0.23489806E+04</totfact>
</mgrwt>
</event>
<event>
 7    0  0.4793433E-002  0.4682238E+03  0.7546771E-02  0.1022423E+00
         21   -1    0    0  502  501  0.00000000000E+00  0.00000000000E+00  0.59008592236E+03  0.59008592236E+03  0.00000000000E+00 0. -1.
         21   -1    0    0  501  502 -0.00000000000E+00 -0.00000000000E+00 -0.92882038506E+02  0.92882038506E+02  0.00000000000E+00 0. -1.
      99926    2    1    2    0    0 -0.71054273576E-14  0.00000000000E+00  0.49720388385E+03  0.68296796086E+03  0.46822380701E+03 0.  0.
      99925    2    3    3    0    0 -0.42596535754E+02  0.97368103111E+02  0.40587586022E+03  0.49512939091E+03  0.26291231898E+03 0.  0.
         25    1    3    3    0    0  0.42596535754E+02 -0.97368103111E+02  0.91328023638E+02  0.18783856996E+03  0.12509000000E+03 0.  0.
         25    1    4    4    0    0  0.18775021908E+02  0.44510506412E+02  0.17814476674E+03  0.22297253787E+03  0.12509000000E+03 0.  0.
         25    1    4    4    0    0 -0.61371557661E+02  0.52857596699E+02  0.22773109347E+03  0.27215685303E+03  0.12509000000E+03 0.  0.
<mgrwt>
<rscale>  2 0.46822381E+03</rscale>
<asrwt>0</asrwt>
<pdfrwt beam="1">  1       21 0.86777340E-01 0.46822381E+03</pdfrwt>
<pdfrwt beam="2">  1       21 0.13659124E-01 0.46822381E+03</pdfrwt>
<totfact> 0.48574969E+04</totfact>
</mgrwt>
</event>
<event>
 7    0  0.4793433E-002  0.4466724E+03  0.7546771E-02  0.1028719E+00
         21   -1    0    0  502  501  0.00000000000E+00  0.00000000000E+00  0.46240598066E+03  0.46240598066E+03  0.00000000000E+00 0.  1.
         21   -1    0    0  501  502 -0.00000000000E+00 -0.00000000000E+00 -0.10786853792E+03  0.10786853792E+03  0.00000000000E+00 0.  1.
      99926    2    1    2    0    0  0.00000000000E+00 -0.17763568394E-14  0.35453744274E+03  0.57027451858E+03  0.44667239475E+03 0.  0.
      99925    2    3    3    0    0 -0.90583092060E+02  0.76294650625E+01  0.15746933518E+03  0.31978130026E+03  0.26305889677E+03 0.  0.
         25    1    3    3    0    0  0.90583092060E+02 -0.76294650625E+01  0.19706810756E+03  0.25049321832E+03  0.12509000000E+03 0.  0.
         25    1    4    4    0    0 -0.50090374060E+02  0.44042744871E+02  0.85152723702E+02  0.16537020107E+03  0.12509000000E+03 0.  0.
         25    1    4    4    0    0 -0.40492718000E+02 -0.36413279809E+02  0.72316611480E+02  0.15441109919E+03  0.12509000000E+03 0.  0.
<mgrwt>
<rscale>  2 0.44667239E+03</rscale>
<asrwt>0</asrwt>
<pdfrwt beam="1">  1       21 0.68000879E-01 0.44667239E+03</pdfrwt>
<pdfrwt beam="2">  1       21 0.15863020E-01 0.44667239E+03</pdfrwt>
<totfact> 0.64702974E+04</totfact>
</mgrwt>
</event>
<event>
 7    0  0.4793433E-002  0.4425231E+03  0.7546771E-02  0.1029975E+00
         21   -1    0    0  502  501  0.00000000000E+00  0.00000000000E+00  0.18540168412E+03  0.18540168412E+03  0.00000000000E+00 0.  1.
         21   -1    0    0  501  502 -0.00000000000E+00 -0.00000000000E+00 -0.26405734887E+03  0.26405734887E+03  0.00000000000E+00 0.  1.
      99926    2    1    2    0    0  0.00000000000E+00  0.00000000000E+00 -0.78655664753E+02  0.44945903299E+03  0.44252311662E+03 0.  0.
      99925    2    3    3    0    0  0.47600503327E+02 -0.24778756740E+02 -0.13697307560E+03  0.30137722043E+03  0.26303385876E+03 0.  0.
         25    1    4    4    0    0 -0.16070708469E+02 -0.21080401365E+01 -0.59619636129E+02  0.13951602279E+03  0.12509000000E+03 0.  0.
         25    1    4    4    0    0  0.63671211796E+02 -0.22670716603E+02 -0.77353439473E+02  0.16186119764E+03  0.12509000000E+03 0.  0.
         25    1    3    3    0    0 -0.47600503327E+02  0.24778756740E+02  0.58317410849E+02  0.14808181256E+03  0.12509000000E+03 0.  0.
<mgrwt>
<rscale>  2 0.44252312E+03</rscale>
<asrwt>0</asrwt>
<pdfrwt beam="1">  1       21 0.27264954E-01 0.44252312E+03</pdfrwt>
<pdfrwt beam="2">  1       21 0.38831963E-01 0.44252312E+03</pdfrwt>
<totfact> 0.76265690E+04</totfact>
</mgrwt>
</event>
<event>
 7    0  0.4793433E-002  0.4502335E+03  0.7546771E-02  0.1027652E+00
         21   -1    0    0  502  501  0.00000000000E+00  0.00000000000E+00  0.42275029894E+03  0.42275029894E+03  0.00000000000E+00 0. -1.
         21   -1    0    0  501  502 -0.00000000000E+00 -0.00000000000E+00 -0.11987586065E+03  0.11987586065E+03  0.00000000000E+00 0. -1.
      99926    2    1    2    0    0  0.71054273576E-14 -0.14210854715E-13  0.30287443829E+03  0.54262615959E+03  0.45023352131E+03 0.  0.
      99925    2    3    3    0    0 -0.54570283997E+02  0.89268468267E+02  0.15643812783E+03  0.32345071288E+03  0.26306026021E+03 0.  0.
         25    1    3    3    0    0  0.54570283997E+02 -0.89268468267E+02  0.14643631046E+03  0.21917544672E+03  0.12509000000E+03 0.  0.
         25    1    4    4    0    0 -0.51134037314E+02  0.75508477527E+02  0.10708454404E+03  0.18823078288E+03  0.12509000000E+03 0.  0.
         25    1    4    4    0    0 -0.34362466836E+01  0.13759990741E+02  0.49353583789E+02  0.13521993000E+03  0.12509000000E+03 0.  0.
<mgrwt>
<rscale>  2 0.45023352E+03</rscale>
<asrwt>0</asrwt>
<pdfrwt beam="1">  1       21 0.62169161E-01 0.45023352E+03</pdfrwt>
<pdfrwt beam="2">  1       21 0.17628803E-01 0.45023352E+03</pdfrwt>
<totfact> 0.64764923E+04</totfact>
</mgrwt>
</event>
<event>
 7    0  0.4793433E-002  0.4753224E+03  0.7546771E-02  0.1020429E+00
         21   -1    0    0  502  501  0.00000000000E+00  0.00000000000E+00  0.15519119803E+03  0.15519119803E+03  0.00000000000E+00 0. -1.
         21   -1    0    0  501  502 -0.00000000000E+00 -0.00000000000E+00 -0.36395654283E+03  0.36395654283E+03  0.00000000000E+00 0. -1.
      99926    2    1    2    0    0  0.00000000000E+00  0.14210854715E-13 -0.20876534480E+03  0.51914774086E+03  0.47532242494E+03 0.  0.
      99925    2    3    3    0    0  0.82990857158E+02  0.89401621538E+02 -0.18309338832E+03  0.34255020477E+03  0.26255917739E+03 0.  0.
         25    1    4    4    0    0  0.44948575090E+02  0.48957935063E+02 -0.13976784657E+03  0.19899701717E+03  0.12509000000E+03 0.  0.
         25    1    4    4    0    0  0.38042282068E+02  0.40443686475E+02 -0.43325541751E+02  0.14355318759E+03  0.12509000000E+03 0.  0.
         25    1    3    3    0    0 -0.82990857158E+02 -0.89401621538E+02 -0.25671956480E+02  0.17659753610E+03  0.12509000000E+03 0.  0.
<mgrwt>
<rscale>  2 0.47532242E+03</rscale>
<asrwt>0</asrwt>
<pdfrwt beam="1">  1       21 0.22822235E-01 0.47532242E+03</pdfrwt>
<pdfrwt beam="2">  1       21 0.53523021E-01 0.47532242E+03</pdfrwt>
<totfact> 0.54593933E+04</totfact>
</mgrwt>
</event>
<event>
 7    0  0.4793433E-002  0.4562301E+03  0.7546771E-02  0.1025880E+00
         21   -1    0    0  502  501  0.00000000000E+00  0.00000000000E+00  0.27441329609E+03  0.27441329609E+03  0.00000000000E+00 0. -1.
         21   -1    0    0  501  502 -0.00000000000E+00 -0.00000000000E+00 -0.18962813131E+03  0.18962813131E+03  0.00000000000E+00 0. -1.
      99926    2    1    2    0    0  0.00000000000E+00  0.00000000000E+00  0.84785164773E+02  0.46404142740E+03  0.45623011976E+03 0.  0.
      99925    2    3    3    0    0 -0.38653581457E+02  0.93138308020E+02  0.10806616119E+03  0.30168885836E+03  0.26300005378E+03 0.  0.
         25    1    4    4    0    0 -0.36192886694E+02  0.59145996372E+02  0.18739327407E+02  0.14424577784E+03  0.12509000000E+03 0.  0.
         25    1    3    3    0    0  0.38653581457E+02 -0.93138308020E+02 -0.23280996413E+02  0.16235256904E+03  0.12509000000E+03 0.  0.
         25    1    4    4    0    0 -0.24606947632E+01  0.33992311647E+02  0.89326833780E+02  0.15744308052E+03  0.12509000000E+03 0.  0.
<mgrwt>
<rscale>  2 0.45623012E+03</rscale>
<asrwt>0</asrwt>
<pdfrwt beam="1">  1       21 0.40354897E-01 0.45623012E+03</pdfrwt>
<pdfrwt beam="2">  1       21 0.27886490E-01 0.45623012E+03</pdfrwt>
<totfact> 0.67221626E+04</totfact>
</mgrwt>
</event>
<event>
 7    0  0.4793433E-002  0.4543214E+03  0.7546771E-02  0.1026441E+00
         21   -1    0    0  502  501  0.00000000000E+00  0.00000000000E+00  0.75141171081E+02  0.75141171081E+02  0.00000000000E+00 0. -1.
         21   -1    0    0  501  502 -0.00000000000E+00 -0.00000000000E+00 -0.68673390181E+03  0.68673390181E+03  0.00000000000E+00 0. -1.
      99926    2    1    2    0    0 -0.71054273576E-14 -0.14210854715E-13 -0.61159273073E+03  0.76187507289E+03  0.45432142632E+03 0.  0.
      99925    2    3    3    0    0  0.52060273459E+02  0.93560125261E+02 -0.44305915174E+03  0.52625918960E+03  0.26302766696E+03 0.  0.
         25    1    4    4    0    0  0.42084341640E+01  0.16385151053E+02 -0.16058520458E+03  0.20425792549E+03  0.12509000000E+03 0.  0.
         25    1    4    4    0    0  0.47851839295E+02  0.77174974208E+02 -0.28247394716E+03  0.32200126411E+03  0.12509000000E+03 0.  0.
         25    1    3    3    0    0 -0.52060273459E+02 -0.93560125261E+02 -0.16853357898E+03  0.23561588329E+03  0.12509000000E+03 0.  0.
<mgrwt>
<rscale>  2 0.45432143E+03</rscale>
<asrwt>0</asrwt>
<pdfrwt beam="1">  1       21 0.11050173E-01 0.45432143E+03</pdfrwt>
<pdfrwt beam="2">  1       21 0.10099027E+00 0.45432143E+03</pdfrwt>
<totfact> 0.49929276E+04</totfact>
</mgrwt>
</event>
<event>
 7    0  0.4793433E-002  0.3952966E+03  0.7546771E-02  0.1045421E+00
         21   -1    0    0  502  501  0.00000000000E+00  0.00000000000E+00  0.12705424691E+03  0.12705424691E+03  0.00000000000E+00 0.  1.
         21   -1    0    0  501  502 -0.00000000000E+00 -0.00000000000E+00 -0.30746585125E+03  0.30746585125E+03  0.00000000000E+00 0.  1.
      99926    2    1    2    0    0  0.00000000000E+00 -0.35527136788E-14 -0.18041160434E+03  0.43452009816E+03  0.39529655795E+03 0.  0.
      99925    2    3    3    0    0  0.22929673163E+02 -0.21878527182E+02 -0.10575729877E+03  0.28543886761E+03  0.26322291130E+03 0.  0.
         25    1    3    3    0    0 -0.22929673163E+02  0.21878527182E+02 -0.74654305578E+02  0.14908123056E+03  0.12509000000E+03 0.  0.
         25    1    4    4    0    0  0.37100815136E+02 -0.56588328220E+01 -0.87501271614E+02  0.15720201496E+03  0.12509000000E+03 0.  0.
         25    1    4    4    0    0 -0.14171141973E+02 -0.16219694360E+02 -0.18256027152E+02  0.12823685265E+03  0.12509000000E+03 0.  0.
<mgrwt>
<rscale>  2 0.39529656E+03</rscale>
<asrwt>0</asrwt>
<pdfrwt beam="1">  1       21 0.18684448E-01 0.39529656E+03</pdfrwt>
<pdfrwt beam="2">  1       21 0.45215567E-01 0.39529656E+03</pdfrwt>
<totfact> 0.11621941E+05</totfact>
</mgrwt>
</event>
<event>
 7    0  0.4793433E-002  0.4564597E+03  0.7546771E-02  0.1025813E+00
         21   -1    0    0  502  501  0.00000000000E+00  0.00000000000E+00  0.71476962587E+03  0.71476962587E+03  0.00000000000E+00 0. -1.
         21   -1    0    0  501  502 -0.00000000000E+00 -0.00000000000E+00 -0.72875053212E+02  0.72875053212E+02  0.00000000000E+00 0. -1.
      99926    2    1    2    0    0  0.00000000000E+00  0.00000000000E+00  0.64189457266E+03  0.78764467909E+03  0.45645974421E+03 0.  0.
      99925    2    3    3    0    0 -0.79180218420E+02  0.46074209367E+01  0.54598624447E+03  0.61118887489E+03  0.26298312936E+03 0.  0.
         25    1    3    3    0    0  0.79180218420E+02 -0.46074209367E+01  0.95908328197E+02  0.17645580420E+03  0.12509000000E+03 0.  0.
         25    1    4    4    0    0 -0.21286723925E+02 -0.21293087594E+02  0.19946198142E+03  0.23735861123E+03  0.12509000000E+03 0.  0.
         25    1    4    4    0    0 -0.57893494495E+02  0.25900508530E+02  0.34652426305E+03  0.37383026366E+03  0.12509000000E+03 0.  0.
<mgrwt>
<rscale>  2 0.45645974E+03</rscale>
<asrwt>0</asrwt>
<pdfrwt beam="1">  1       21 0.10511318E+00 0.45645974E+03</pdfrwt>
<pdfrwt beam="2">  1       21 0.10716920E-01 0.45645974E+03</pdfrwt>
<totfact> 0.47818050E+04</totfact>
</mgrwt>
</event>
<event>
 7    0  0.4793433E-002  0.4547204E+03  0.7546771E-02  0.1026324E+00
         21   -1    0    0  502  501  0.00000000000E+00  0.00000000000E+00  0.29968095908E+03  0.29968095908E+03  0.00000000000E+00 0. -1.
         21   -1    0    0  501  502 -0.00000000000E+00 -0.00000000000E+00 -0.17249233527E+03  0.17249233527E+03  0.00000000000E+00 0. -1.
      99926    2    1    2    0    0  0.00000000000E+00  0.00000000000E+00  0.12718862381E+03  0.47217329435E+03  0.45472043485E+03 0.  0.
      99925    2    3    3    0    0  0.65859696390E+02  0.41069750294E+02 -0.48745347401E+01  0.27440471762E+03  0.26315387887E+03 0.  0.
         25    1    4    4    0    0  0.63261291625E+02  0.49623318372E+02 -0.84954584285E+01  0.14894343107E+03  0.12509000000E+03 0.  0.
         25    1    4    4    0    0  0.25984047649E+01 -0.85535680786E+01  0.36209236884E+01  0.12546128655E+03  0.12509000000E+03 0.  0.
         25    1    3    3    0    0 -0.65859696390E+02 -0.41069750294E+02  0.13206315855E+03  0.19776857673E+03  0.12509000000E+03 0.  0.
<mgrwt>
<rscale>  2 0.45472043E+03</rscale>
<asrwt>0</asrwt>
<pdfrwt beam="1">  1       21 0.44070729E-01 0.45472043E+03</pdfrwt>
<pdfrwt beam="2">  1       21 0.25366520E-01 0.45472043E+03</pdfrwt>
<totfact> 0.67423888E+04</totfact>
</mgrwt>
</event>
<event>
 7    0  0.4793433E-002  0.4536764E+03  0.7546771E-02  0.1026631E+00
         21   -1    0    0  502  501  0.00000000000E+00  0.00000000000E+00  0.90845364033E+02  0.90845364033E+02  0.00000000000E+00 0.  1.
         21   -1    0    0  501  502 -0.00000000000E+00 -0.00000000000E+00 -0.56640828239E+03  0.56640828239E+03  0.00000000000E+00 0.  1.
      99926    2    1    2    0    0  0.00000000000E+00 -0.14210854715E-13 -0.47556291835E+03  0.65725364642E+03  0.45367638953E+03 0.  0.
      99925    2    3    3    0    0  0.42175862655E+02  0.99098667949E+02 -0.25043274205E+03  0.37809338105E+03  0.26198987981E+03 0.  0.
         25    1    3    3    0    0 -0.42175862655E+02 -0.99098667949E+02 -0.22513017631E+03  0.27916026537E+03  0.12509000000E+03 0.  0.
         25    1    4    4    0    0  0.59201566267E+02  0.61201371697E+02 -0.13963020485E+03  0.20589933354E+03  0.12509000000E+03 0.  0.
         25    1    4    4    0    0 -0.17025703612E+02  0.37897296252E+02 -0.11080253720E+03  0.17219404751E+03  0.12509000000E+03 0.  0.
<mgrwt>
<rscale>  2 0.45367639E+03</rscale>
<asrwt>0</asrwt>
<pdfrwt beam="1">  1       21 0.13359613E-01 0.45367639E+03</pdfrwt>
<pdfrwt beam="2">  1       21 0.83295333E-01 0.45367639E+03</pdfrwt>
<totfact> 0.55866282E+04</totfact>
</mgrwt>
</event>
<event>
 7    0  0.4793433E-002  0.4551065E+03  0.7546771E-02  0.1026210E+00
         21   -1    0    0  502  501  0.00000000000E+00  0.00000000000E+00  0.41764953321E+03  0.41764953321E+03  0.00000000000E+00 0.  1.
         21   -1    0    0  501  502 -0.00000000000E+00 -0.00000000000E+00 -0.12398070185E+03  0.12398070185E+03  0.00000000000E+00 0.  1.
      99926    2    1    2    0    0  0.00000000000E+00  0.71054273576E-14  0.29366883136E+03  0.54163023506E+03  0.45510650293E+03 0.  0.
      99925    2    3    3    0    0  0.63893910357E+02 -0.40631421089E+02  0.84545763193E+02  0.28645713714E+03  0.26301399427E+03 0.  0.
         25    1    4    4    0    0  0.47586062926E+02  0.16622982578E+02  0.35013849946E+02  0.13933497308E+03  0.12509000000E+03 0.  0.
         25    1    4    4    0    0  0.16307847431E+02 -0.57254403667E+02  0.49531913247E+02  0.14712216406E+03  0.12509000000E+03 0.  0.
         25    1    3    3    0    0 -0.63893910357E+02  0.40631421089E+02  0.20912306817E+03  0.25517309792E+03  0.12509000000E+03 0.  0.
<mgrwt>
<rscale>  2 0.45510650E+03</rscale>
<asrwt>0</asrwt>
<pdfrwt beam="1">  1       21 0.61419049E-01 0.45510650E+03</pdfrwt>
<pdfrwt beam="2">  1       21 0.18232456E-01 0.45510650E+03</pdfrwt>
<totfact> 0.62370421E+04</totfact>
</mgrwt>
</event>
<event>
 7    0  0.4793433E-002  0.4728557E+03  0.7546771E-02  0.1021117E+00
         21   -1    0    0  502  501  0.00000000000E+00  0.00000000000E+00  0.87055551513E+03  0.87055551513E+03  0.00000000000E+00 0.  1.
         21   -1    0    0  501  502 -0.00000000000E+00 -0.00000000000E+00 -0.64209728648E+02  0.64209728648E+02  0.00000000000E+00 0.  1.
      99926    2    1    2    0    0  0.00000000000E+00  0.71054273576E-14  0.80634578648E+03  0.93476524377E+03  0.47285572175E+03 0.  0.
      99925    2    3    3    0    0  0.87801388760E+02 -0.36947750105E+02  0.67190272843E+03  0.72789169770E+03  0.26324670370E+03 0.  0.
         25    1    3    3    0    0 -0.87801388760E+02  0.36947750105E+02  0.13444305805E+03  0.20687354607E+03  0.12509000000E+03 0.  0.
         25    1    4    4    0    0  0.28220685796E+02  0.12038443775E+02  0.25184726775E+03  0.28287079313E+03  0.12509000000E+03 0.  0.
         25    1    4    4    0    0  0.59580702965E+02 -0.48986193880E+02  0.42005546068E+03  0.44502090457E+03  0.12509000000E+03 0.  0.
<mgrwt>
<rscale>  2 0.47285572E+03</rscale>
<asrwt>0</asrwt>
<pdfrwt beam="1">  1       21 0.12802286E+00 0.47285572E+03</pdfrwt>
<pdfrwt beam="2">  1       21 0.94426077E-02 0.47285572E+03</pdfrwt>
<totfact> 0.36404734E+04</totfact>
</mgrwt>
</event>
<event>
 7    0  0.4793433E-002  0.4529528E+03  0.7546771E-02  0.1026845E+00
         21   -1    0    0  502  501  0.00000000000E+00  0.00000000000E+00  0.13094989625E+04  0.13094989625E+04  0.00000000000E+00 0.  1.
         21   -1    0    0  501  502 -0.00000000000E+00 -0.00000000000E+00 -0.39168846624E+02  0.39168846624E+02  0.00000000000E+00 0.  1.
      99926    2    1    2    0    0  0.17763568394E-14  0.00000000000E+00  0.12703301158E+04  0.13486678091E+04  0.45295281880E+03 0.  0.
      99925    2    3    3    0    0 -0.15161325207E+02  0.43219243955E+02  0.49877348748E+03  0.56569596560E+03  0.26294327307E+03 0.  0.
         25    1    4    4    0    0  0.15798763186E+02  0.39648536881E+02  0.31109363506E+03  0.33800645744E+03  0.12509000000E+03 0.  0.
         25    1    3    3    0    0  0.15161325207E+02 -0.43219243955E+02  0.77155662835E+03  0.78297184348E+03  0.12509000000E+03 0.  0.
         25    1    4    4    0    0 -0.30960088393E+02  0.35707070738E+01  0.18767985242E+03  0.22768950816E+03  0.12509000000E+03 0.  0.
<mgrwt>
<rscale>  2 0.45295282E+03</rscale>
<asrwt>0</asrwt>
<pdfrwt beam="1">  1       21 0.19257335E+00 0.45295282E+03</pdfrwt>
<pdfrwt beam="2">  1       21 0.57601254E-02 0.45295282E+03</pdfrwt>
<totfact> 0.28178336E+04</totfact>
</mgrwt>
</event>
<event>
 7    0  0.4793433E-002  0.4556857E+03  0.7546771E-02  0.1026040E+00
         21   -1    0    0  502  501  0.00000000000E+00  0.00000000000E+00  0.87611370783E+02  0.87611370783E+02  0.00000000000E+00 0. -1.
         21   -1    0    0  501  502 -0.00000000000E+00 -0.00000000000E+00 -0.59253009350E+03  0.59253009350E+03  0.00000000000E+00 0. -1.
      99926    2    1    2    0    0  0.00000000000E+00 -0.71054273576E-14 -0.50491872272E+03  0.68014146429E+03  0.45568574137E+03 0.  0.
      99925    2    3    3    0    0  0.81012512622E+02 -0.47908971395E+02 -0.41297257070E+03  0.49859284900E+03  0.26304027863E+03 0.  0.
         25    1    3    3    0    0 -0.81012512622E+02  0.47908971395E+02 -0.91946152016E+02  0.18154861529E+03  0.12509000000E+03 0.  0.
         25    1    4    4    0    0  0.37925678095E+02 -0.35695560767E+01 -0.13721902734E+03  0.18954595315E+03  0.12509000000E+03 0.  0.
         25    1    4    4    0    0  0.43086834527E+02 -0.44339415318E+02 -0.27575354336E+03  0.30904689585E+03  0.12509000000E+03 0.  0.
<mgrwt>
<rscale>  2 0.45568574E+03</rscale>
<asrwt>0</asrwt>
<pdfrwt beam="1">  1       21 0.12884025E-01 0.45568574E+03</pdfrwt>
<pdfrwt beam="2">  1       21 0.87136779E-01 0.45568574E+03</pdfrwt>
<totfact> 0.53704310E+04</totfact>
</mgrwt>
</event>
<event>
 7    0  0.4793433E-002  0.4351875E+03  0.7546771E-02  0.1032234E+00
         21   -1    0    0  502  501  0.00000000000E+00  0.00000000000E+00  0.10909479521E+04  0.10909479521E+04  0.00000000000E+00 0. -1.
         21   -1    0    0  501  502 -0.00000000000E+00 -0.00000000000E+00 -0.43399900622E+02  0.43399900622E+02  0.00000000000E+00 0. -1.
      99926    2    1    2    0    0  0.00000000000E+00  0.00000000000E+00  0.10475480515E+04  0.11343478527E+04  0.43518746630E+03 0.  0.
      99925    2    3    3    0    0  0.36012465933E+01 -0.93946915090E+02  0.69017944360E+03  0.74422117864E+03  0.26206584390E+03 0.  0.
         25    1    3    3    0    0 -0.36012465933E+01  0.93946915090E+02  0.35736860789E+03  0.39012667409E+03  0.12509000000E+03 0.  0.
         25    1    4    4    0    0 -0.14193335985E+02 -0.49916048567E+02  0.44185590761E+03  0.46214414838E+03  0.12509000000E+03 0.  0.
         25    1    4    4    0    0  0.17794582579E+02 -0.44030866523E+02  0.24832353599E+03  0.28207703026E+03  0.12509000000E+03 0.  0.
<mgrwt>
<rscale>  2 0.43518747E+03</rscale>
<asrwt>0</asrwt>
<pdfrwt beam="1">  1       21 0.16043350E+00 0.43518747E+03</pdfrwt>
<pdfrwt beam="2">  1       21 0.63823390E-02 0.43518747E+03</pdfrwt>
<totfact> 0.40162553E+04</totfact>
</mgrwt>
</event>
<event>
 7    0  0.4793433E-002  0.4571494E+03  0.7546771E-02  0.1025611E+00
         21   -1    0    0  502  501  0.00000000000E+00  0.00000000000E+00  0.21104502469E+03  0.21104502469E+03  0.00000000000E+00 0.  1.
         21   -1    0    0  501  502 -0.00000000000E+00 -0.00000000000E+00 -0.24756045674E+03  0.24756045674E+03  0.00000000000E+00 0.  1.
      99926    2    1    2    0    0  0.14210854715E-13 -0.14210854715E-13 -0.36515432056E+02  0.45860548143E+03  0.45714944035E+03 0.  0.
      99925    2    3    3    0    0  0.88033494281E+02 -0.72097202750E+02 -0.42723634535E+02  0.28938978287E+03  0.26262755896E+03 0.  0.
         25    1    4    4    0    0  0.76124924251E+02 -0.64226266198E+02 -0.16130265703E+02  0.16071002126E+03  0.12509000000E+03 0.  0.
         25    1    3    3    0    0 -0.88033494281E+02  0.72097202750E+02  0.62082024788E+01  0.16921569856E+03  0.12509000000E+03 0.  0.
         25    1    4    4    0    0  0.11908570031E+02 -0.78709365514E+01 -0.26593368831E+02  0.12867976161E+03  0.12509000000E+03 0.  0.
<mgrwt>
<rscale>  2 0.45714944E+03</rscale>
<asrwt>0</asrwt>
<pdfrwt beam="1">  1       21 0.31036033E-01 0.45714944E+03</pdfrwt>
<pdfrwt beam="2">  1       21 0.36405949E-01 0.45714944E+03</pdfrwt>
<totfact> 0.67123928E+04</totfact>
</mgrwt>
</event>
<event>
 7    0  0.4793433E-002  0.4641986E+03  0.7546771E-02  0.1023571E+00
         21   -1    0    0  502  501  0.00000000000E+00  0.00000000000E+00  0.29323447151E+02  0.29323447151E+02  0.00000000000E+00 0. -1.
         21   -1    0    0  501  502 -0.00000000000E+00 -0.00000000000E+00 -0.18370989607E+04  0.18370989607E+04  0.00000000000E+00 0. -1.
      99926    2    1    2    0    0  0.00000000000E+00  0.00000000000E+00 -0.18077755136E+04  0.18664224079E+04  0.46419855358E+03 0.  0.
      99925    2    3    3    0    0 -0.34742235908E+02  0.11809621443E+02 -0.65668647782E+03  0.70797518575E+03  0.26200237284E+03 0.  0.
         25    1    3    3    0    0  0.34742235908E+02 -0.11809621443E+02 -0.11510890357E+04  0.11584472221E+04  0.12509000000E+03 0.  0.
         25    1    4    4    0    0 -0.54718375434E+02  0.26671604211E+01 -0.37080585861E+03  0.39515276443E+03  0.12509000000E+03 0.  0.
         25    1    4    4    0    0  0.19976139526E+02  0.91424610220E+01 -0.28588061921E+03  0.31282242132E+03  0.12509000000E+03 0.  0.
<mgrwt>
<rscale>  2 0.46419855E+03</rscale>
<asrwt>0</asrwt>
<pdfrwt beam="1">  1       21 0.43122725E-02 0.46419855E+03</pdfrwt>
<pdfrwt beam="2">  1       21 0.27016156E+00 0.46419855E+03</pdfrwt>
<totfact> 0.14921699E+04</totfact>
</mgrwt>
</event>
<event>
 7    0  0.4793433E-002  0.4519499E+03  0.7546771E-02  0.1027142E+00
         21   -1    0    0  502  501  0.00000000000E+00  0.00000000000E+00  0.41220110831E+03  0.41220110831E+03  0.00000000000E+00 0.  1.
         21   -1    0    0  501  502 -0.00000000000E+00 -0.00000000000E+00 -0.12388294807E+03  0.12388294807E+03  0.00000000000E+00 0.  1.
      99926    2    1    2    0    0  0.35527136788E-14 -0.35527136788E-14  0.28831816024E+03  0.53608405638E+03  0.45194994632E+03 0.  0.
      99925    2    3    3    0    0  0.19159470362E+02 -0.28117010261E+02  0.57610694457E+02  0.27145016883E+03  0.26307518027E+03 0.  0.
         25    1    3    3    0    0 -0.19159470362E+02  0.28117010261E+02  0.23070746578E+03  0.26463388755E+03  0.12509000000E+03 0.  0.
         25    1    4    4    0    0 -0.43204403891E+00 -0.49585369866E+02  0.11697804092E+02  0.13506754713E+03  0.12509000000E+03 0.  0.
         25    1    4    4    0    0  0.19591514401E+02  0.21468359605E+02  0.45912890364E+02  0.13638262170E+03  0.12509000000E+03 0.  0.
<mgrwt>
<rscale>  2 0.45194995E+03</rscale>
<asrwt>0</asrwt>
<pdfrwt beam="1">  1       21 0.60617810E-01 0.45194995E+03</pdfrwt>
<pdfrwt beam="2">  1       21 0.18218081E-01 0.45194995E+03</pdfrwt>
<totfact> 0.64334600E+04</totfact>
</mgrwt>
</event>
<event>
 7    0  0.4793433E-002  0.4432698E+03  0.7546771E-02  0.1029748E+00
         21   -1    0    0  502  501  0.00000000000E+00  0.00000000000E+00  0.76002278632E+02  0.76002278632E+02  0.00000000000E+00 0. -1.
         21   -1    0    0  501  502 -0.00000000000E+00 -0.00000000000E+00 -0.64632296273E+03  0.64632296273E+03  0.00000000000E+00 0. -1.
      99926    2    1    2    0    0  0.00000000000E+00  0.00000000000E+00 -0.57032068410E+03  0.72232524136E+03  0.44326975038E+03 0.  0.
      99925    2    3    3    0    0  0.78728789418E+02 -0.35699462554E+02 -0.45098133414E+03  0.52903255537E+03  0.26271392614E+03 0.  0.
         25    1    4    4    0    0  0.78323967460E+02 -0.13371434330E+02 -0.26827732360E+03  0.30648600227E+03  0.12509000000E+03 0.  0.
         25    1    4    4    0    0  0.40482195792E+00 -0.22328028224E+02 -0.18270401055E+03  0.22254655310E+03  0.12509000000E+03 0.  0.
         25    1    3    3    0    0 -0.78728789418E+02  0.35699462554E+02 -0.11933934995E+03  0.19329268599E+03  0.12509000000E+03 0.  0.
<mgrwt>
<rscale>  2 0.44326975E+03</rscale>
<asrwt>0</asrwt>
<pdfrwt beam="1">  1       21 0.11176806E-01 0.44326975E+03</pdfrwt>
<pdfrwt beam="2">  1       21 0.95047492E-01 0.44326975E+03</pdfrwt>
<totfact> 0.56766256E+04</totfact>
</mgrwt>
</event>
<event>
 7    0  0.4793433E-002  0.4606715E+03  0.7546771E-02  0.1024587E+00
         21   -1    0    0  502  501  0.00000000000E+00  0.00000000000E+00  0.22343792624E+04  0.22343792624E+04  0.00000000000E+00 0. -1.
         21   -1    0    0  501  502 -0.00000000000E+00 -0.00000000000E+00 -0.23744648247E+02  0.23744648247E+02  0.00000000000E+00 0. -1.
      99926    2    1    2    0    0  0.00000000000E+00  0.14210854715E-13  0.22106346142E+04  0.22581239107E+04  0.46067146487E+03 0.  0.
      99925    2    3    3    0    0 -0.90782681670E+02  0.75488894646E+02  0.14309349079E+04  0.14596759107E+04  0.26294293160E+03 0.  0.
         25    1    4    4    0    0 -0.61560997706E+02  0.29487226795E+01  0.76367860289E+03  0.77630597577E+03  0.12509000000E+03 0.  0.
         25    1    4    4    0    0 -0.29221683965E+02  0.72540171966E+02  0.66725630499E+03  0.68336993497E+03  0.12509000000E+03 0.  0.
         25    1    3    3    0    0  0.90782681670E+02 -0.75488894646E+02  0.77969970629E+03  0.79844799993E+03  0.12509000000E+03 0.  0.
<mgrwt>
<rscale>  2 0.46067146E+03</rscale>
<asrwt>0</asrwt>
<pdfrwt beam="1">  1       21 0.32858504E+00 0.46067146E+03</pdfrwt>
<pdfrwt beam="2">  1       21 0.34918616E-02 0.46067146E+03</pdfrwt>
<totfact> 0.95087512E+03</totfact>
</mgrwt>
</event>
<event>
 7    0  0.4793433E-002  0.4487188E+03  0.7546771E-02  0.1028105E+00
         21   -1    0    0  502  501  0.00000000000E+00  0.00000000000E+00  0.12503437068E+04  0.12503437068E+04  0.00000000000E+00 0.  1.
         21   -1    0    0  501  502 -0.00000000000E+00 -0.00000000000E+00 -0.40258647889E+02  0.40258647889E+02  0.00000000000E+00 0.  1.
      99926    2    1    2    0    0  0.00000000000E+00  0.00000000000E+00  0.12100850589E+04  0.12906023546E+04  0.44871882970E+03 0.  0.
      99925    2    3    3    0    0 -0.21382286247E+02 -0.99806246837E+02  0.67144818752E+03  0.72828956238E+03  0.26295347321E+03 0.  0.
         25    1    4    4    0    0 -0.30872773910E+02 -0.43484298120E+02  0.42305265480E+03  0.44437041889E+03  0.12509000000E+03 0.  0.
         25    1    3    3    0    0  0.21382286247E+02  0.99806246837E+02  0.53863687134E+03  0.56231279226E+03  0.12509000000E+03 0.  0.
         25    1    4    4    0    0  0.94904876621E+01 -0.56321948717E+02  0.24839553272E+03  0.28391914348E+03  0.12509000000E+03 0.  0.
<mgrwt>
<rscale>  2 0.44871883E+03</rscale>
<asrwt>0</asrwt>
<pdfrwt beam="1">  1       21 0.18387405E+00 0.44871883E+03</pdfrwt>
<pdfrwt beam="2">  1       21 0.59203902E-02 0.44871883E+03</pdfrwt>
<totfact> 0.30869617E+04</totfact>
</mgrwt>
</event>
<event>
 7    0  0.4793433E-002  0.4812279E+03  0.7546771E-02  0.1018798E+00
         21   -1    0    0  502  501  0.00000000000E+00  0.00000000000E+00  0.15211379761E+04  0.15211379761E+04  0.00000000000E+00 0. -1.
         21   -1    0    0  501  502 -0.00000000000E+00 -0.00000000000E+00 -0.38060362169E+02  0.38060362169E+02  0.00000000000E+00 0. -1.
      99926    2    1    2    0    0  0.35527136788E-14  0.00000000000E+00  0.14830776139E+04  0.15591983382E+04  0.48122785571E+03 0.  0.
      99925    2    3    3    0    0  0.30924150020E+02 -0.11129002870E+03  0.67811945122E+03  0.73643049413E+03  0.26294887148E+03 0.  0.
         25    1    3    3    0    0 -0.30924150020E+02  0.11129002870E+03  0.80495816268E+03  0.82276784412E+03  0.12509000000E+03 0.  0.
         25    1    4    4    0    0  0.35273714748E+02 -0.47698131033E+02  0.24862177988E+03  0.28456922565E+03  0.12509000000E+03 0.  0.
         25    1    4    4    0    0 -0.43495647277E+01 -0.63591897664E+02  0.42949767134E+03  0.45186126848E+03  0.12509000000E+03 0.  0.
<mgrwt>
<rscale>  2 0.48122786E+03</rscale>
<asrwt>0</asrwt>
<pdfrwt beam="1">  1       21 0.22369672E+00 0.48122786E+03</pdfrwt>
<pdfrwt beam="2">  1       21 0.55971131E-02 0.48122786E+03</pdfrwt>
<totfact> 0.18335999E+04</totfact>
</mgrwt>
</event>
<event>
 7    0  0.4793433E-002  0.4371024E+03  0.7546771E-02  0.1031640E+00
         21   -1    0    0  502  501  0.00000000000E+00  0.00000000000E+00  0.28463341253E+03  0.28463341253E+03  0.00000000000E+00 0.  1.
         21   -1    0    0  501  502 -0.00000000000E+00 -0.00000000000E+00 -0.16781103624E+03  0.16781103624E+03  0.00000000000E+00 0.  1.
      99926    2    1    2    0    0 -0.17763568394E-14  0.00000000000E+00  0.11682237630E+03  0.45244444877E+03  0.43710240404E+03 0.  0.
      99925    2    3    3    0    0 -0.15050558068E+02 -0.45566607984E+02  0.16026219771E+03  0.31159928114E+03  0.26288268282E+03 0.  0.
         25    1    4    4    0    0 -0.33763080214E+02 -0.12755609209E+02  0.11379511363E+03  0.17291468167E+03  0.12509000000E+03 0.  0.
         25    1    3    3    0    0  0.15050558068E+02  0.45566607984E+02 -0.43439821414E+02  0.14084516763E+03  0.12509000000E+03 0.  0.
         25    1    4    4    0    0  0.18712522146E+02 -0.32810998776E+02  0.46467084079E+02  0.13868459946E+03  0.12509000000E+03 0.  0.
<mgrwt>
<rscale>  2 0.43710240E+03</rscale>
<asrwt>0</asrwt>
<pdfrwt beam="1">  1       21 0.41857855E-01 0.43710240E+03</pdfrwt>
<pdfrwt beam="2">  1       21 0.24678093E-01 0.43710240E+03</pdfrwt>
<totfact> 0.79459590E+04</totfact>
</mgrwt>
</event>
<event>
 7    0  0.4793433E-002  0.4577588E+03  0.7546771E-02  0.1025433E+00
         21   -1    0    0  502  501  0.00000000000E+00  0.00000000000E+00  0.81611942752E+02  0.81611942752E+02  0.00000000000E+00 0.  1.
         21   -1    0    0  501  502 -0.00000000000E+00 -0.00000000000E+00 -0.64188876551E+03  0.64188876551E+03  0.00000000000E+00 0.  1.
      99926    2    1    2    0    0  0.35527136788E-14 -0.71054273576E-14 -0.56027682276E+03  0.72350070826E+03  0.45775884124E+03 0.  0.
      99925    2    3    3    0    0  0.20808703520E+02  0.49918037656E+02 -0.51348581837E+03  0.57941143449E+03  0.26291654974E+03 0.  0.
         25    1    3    3    0    0 -0.20808703520E+02 -0.49918037656E+02 -0.46791004394E+02  0.14408927378E+03  0.12509000000E+03 0.  0.
         25    1    4    4    0    0  0.37138562018E+02  0.34436328312E+02 -0.32678763379E+03  0.35355734923E+03  0.12509000000E+03 0.  0.
         25    1    4    4    0    0 -0.16329858499E+02  0.15481709344E+02 -0.18669818457E+03  0.22585408525E+03  0.12509000000E+03 0.  0.
<mgrwt>
<rscale>  2 0.45775884E+03</rscale>
<asrwt>0</asrwt>
<pdfrwt beam="1">  1       21 0.12001756E-01 0.45775884E+03</pdfrwt>
<pdfrwt beam="2">  1       21 0.94395405E-01 0.45775884E+03</pdfrwt>
<totfact> 0.50539992E+04</totfact>
</mgrwt>
</event>
<event>
 7    0  0.4793433E-002  0.4492926E+03  0.7546771E-02  0.1027933E+00
         21   -1    0    0  502  501  0.00000000000E+00  0.00000000000E+00  0.48394564126E+03  0.48394564126E+03  0.00000000000E+00 0.  1.
         21   -1    0    0  501  502 -0.00000000000E+00 -0.00000000000E+00 -0.10428023899E+03  0.10428023899E+03  0.00000000000E+00 0.  1.
      99926    2    1    2    0    0  0.00000000000E+00  0.00000000000E+00  0.37966540227E+03  0.58822588024E+03  0.44929263126E+03 0.  0.
      99925    2    3    3    0    0  0.99113024724E+02  0.29294846087E+01  0.18473976647E+03  0.33628246369E+03  0.26291660374E+03 0.  0.
         25    1    4    4    0    0  0.32871639275E+02 -0.33570160777E+01  0.44213681620E+02  0.13672663226E+03  0.12509000000E+03 0.  0.
         25    1    3    3    0    0 -0.99113024724E+02 -0.29294846087E+01  0.19492563580E+03  0.25194341655E+03  0.12509000000E+03 0.  0.
         25    1    4    4    0    0  0.66241385448E+02  0.62865006864E+01  0.14052608485E+03  0.19955583143E+03  0.12509000000E+03 0.  0.
<mgrwt>
<rscale>  2 0.44929263E+03</rscale>
<asrwt>0</asrwt>
<pdfrwt beam="1">  1       21 0.71168476E-01 0.44929263E+03</pdfrwt>
<pdfrwt beam="2">  1       21 0.15335329E-01 0.44929263E+03</pdfrwt>
<totfact> 0.62166092E+04</totfact>
</mgrwt>
</event>
<event>
 7    0  0.4793433E-002  0.4702093E+03  0.7546771E-02  0.1021861E+00
         21   -1    0    0  502  501  0.00000000000E+00  0.00000000000E+00  0.11324380798E+03  0.11324380798E+03  0.00000000000E+00 0. -1.
         21   -1    0    0  501  502 -0.00000000000E+00 -0.00000000000E+00 -0.48809902278E+03  0.48809902278E+03  0.00000000000E+00 0. -1.
      99926    2    1    2    0    0  0.00000000000E+00  0.00000000000E+00 -0.37485521480E+03  0.60134283076E+03  0.47020928110E+03 0.  0.
      99925    2    3    3    0    0  0.95082553883E+02  0.81403702170E+02 -0.25960937690E+03  0.39016431378E+03  0.26299031995E+03 0.  0.
         25    1    4    4    0    0  0.36888301422E+02  0.15533040666E+02 -0.16294457432E+03  0.20928560518E+03  0.12509000000E+03 0.  0.
         25    1    3    3    0    0 -0.95082553883E+02 -0.81403702170E+02 -0.11524583790E+03  0.21117851698E+03  0.12509000000E+03 0.  0.
         25    1    4    4    0    0  0.58194252461E+02  0.65870661504E+02 -0.96664802584E+02  0.18087870860E+03  0.12509000000E+03 0.  0.
<mgrwt>
<rscale>  2 0.47020928E+03</rscale>
<asrwt>0</asrwt>
<pdfrwt beam="1">  1       21 0.16653501E-01 0.47020928E+03</pdfrwt>
<pdfrwt beam="2">  1       21 0.71779267E-01 0.47020928E+03</pdfrwt>
<totfact> 0.52052409E+04</totfact>
</mgrwt>
</event>
<event>
 7    0  0.4793433E-002  0.4533358E+03  0.7546771E-02  0.1026732E+00
         21   -1    0    0  502  501  0.00000000000E+00  0.00000000000E+00  0.29065527596E+02  0.29065527596E+02  0.00000000000E+00 0.  1.
         21   -1    0    0  501  502 -0.00000000000E+00 -0.00000000000E+00 -0.17676728131E+04  0.17676728131E+04  0.00000000000E+00 0.  1.
      99926    2    1    2    0    0  0.00000000000E+00  0.00000000000E+00 -0.17386072855E+04  0.17967383407E+04  0.45333582664E+03 0.  0.
      99925    2    3    3    0    0 -0.87480374714E+02 -0.23236621306E+02 -0.83784615103E+03  0.88283961217E+03  0.26310996082E+03 0.  0.
         25    1    4    4    0    0 -0.44124883892E+02 -0.49407966115E+02 -0.37945840757E+03  0.40499918972E+03  0.12509000000E+03 0.  0.
         25    1    3    3    0    0  0.87480374714E+02  0.23236621306E+02 -0.90076113444E+03  0.91389872850E+03  0.12509000000E+03 0.  0.
         25    1    4    4    0    0 -0.43355490822E+02  0.26171344809E+02 -0.45838774346E+03  0.47784042245E+03  0.12509000000E+03 0.  0.
<mgrwt>
<rscale>  2 0.45333583E+03</rscale>
<asrwt>0</asrwt>
<pdfrwt beam="1">  1       21 0.42743407E-02 0.45333583E+03</pdfrwt>
<pdfrwt beam="2">  1       21 0.25995198E+00 0.45333583E+03</pdfrwt>
<totfact> 0.17547812E+04</totfact>
</mgrwt>
</event>
<event>
 7    0  0.4793433E-002  0.4564404E+03  0.7546771E-02  0.1025819E+00
         21   -1    0    0  502  501  0.00000000000E+00  0.00000000000E+00  0.14603205770E+03  0.14603205770E+03  0.00000000000E+00 0. -1.
         21   -1    0    0  501  502 -0.00000000000E+00 -0.00000000000E+00 -0.35666461111E+03  0.35666461111E+03  0.00000000000E+00 0. -1.
      99926    2    1    2    0    0  0.71054273576E-14  0.00000000000E+00 -0.21063255340E+03  0.50269666881E+03  0.45644043235E+03 0.  0.
      99925    2    3    3    0    0  0.52001393235E+02 -0.10171439226E+03 -0.14039931547E+03  0.31931134143E+03  0.26305475188E+03 0.  0.
         25    1    4    4    0    0  0.18815664203E+02 -0.93107756951E+02 -0.78625015987E+02  0.17564875423E+03  0.12509000000E+03 0.  0.
         25    1    3    3    0    0 -0.52001393235E+02  0.10171439226E+03 -0.70233237934E+02  0.18338532739E+03  0.12509000000E+03 0.  0.
         25    1    4    4    0    0  0.33185729032E+02 -0.86066353079E+01 -0.61774299484E+02  0.14366258719E+03  0.12509000000E+03 0.  0.
<mgrwt>
<rscale>  2 0.45644043E+03</rscale>
<asrwt>0</asrwt>
<pdfrwt beam="1">  1       21 0.21475303E-01 0.45644043E+03</pdfrwt>
<pdfrwt beam="2">  1       21 0.52450678E-01 0.45644043E+03</pdfrwt>
<totfact> 0.64342786E+04</totfact>
</mgrwt>
</event>
<event>
 7    0  0.4793433E-002  0.4560659E+03  0.7546771E-02  0.1025928E+00
         21   -1    0    0  502  501  0.00000000000E+00  0.00000000000E+00  0.13844255947E+04  0.13844255947E+04  0.00000000000E+00 0. -1.
         21   -1    0    0  501  502 -0.00000000000E+00 -0.00000000000E+00 -0.37559995738E+02  0.37559995738E+02  0.00000000000E+00 0. -1.
      99926    2    1    2    0    0  0.00000000000E+00  0.00000000000E+00  0.13468655990E+04  0.14219855905E+04  0.45606586997E+03 0.  0.
      99925    2    3    3    0    0  0.93358680300E+02  0.63134909783E+02  0.81365758857E+03  0.86282537148E+03  0.26405887641E+03 0.  0.
         25    1    4    4    0    0  0.91042411871E+02  0.37251805351E+02  0.46760364614E+03  0.49394037671E+03  0.12509000000E+03 0.  0.
         25    1    4    4    0    0  0.23162684295E+01  0.25883104432E+02  0.34605394242E+03  0.36888499476E+03  0.12509000000E+03 0.  0.
         25    1    3    3    0    0 -0.93358680300E+02 -0.63134909783E+02  0.53320801044E+03  0.55916021900E+03  0.12509000000E+03 0.  0.
<mgrwt>
<rscale>  2 0.45606587E+03</rscale>
<asrwt>0</asrwt>
<pdfrwt beam="1">  1       21 0.20359197E+00 0.45606587E+03</pdfrwt>
<pdfrwt beam="2">  1       21 0.55235297E-02 0.45606587E+03</pdfrwt>
<totfact> 0.25539809E+04</totfact>
</mgrwt>
</event>
<event>
 7    0  0.4793433E-002  0.4587752E+03  0.7546771E-02  0.1025137E+00
         21   -1    0    0  502  501  0.00000000000E+00  0.00000000000E+00  0.37396152846E+03  0.37396152846E+03  0.00000000000E+00 0. -1.
         21   -1    0    0  501  502 -0.00000000000E+00 -0.00000000000E+00 -0.14070613153E+03  0.14070613153E+03  0.00000000000E+00 0. -1.
      99926    2    1    2    0    0 -0.17763568394E-14  0.00000000000E+00  0.23325539693E+03  0.51466766000E+03  0.45877523914E+03 0.  0.
      99925    2    3    3    0    0 -0.11833436000E+02  0.66150504959E+02  0.25325960230E+03  0.37126753501E+03  0.26302706492E+03 0.  0.
         25    1    4    4    0    0 -0.30587942885E+02  0.12400913922E+02  0.88664306114E+02  0.15683836328E+03  0.12509000000E+03 0.  0.
         25    1    4    4    0    0  0.18754506885E+02  0.53749591037E+02  0.16459529618E+03  0.21442917174E+03  0.12509000000E+03 0.  0.
         25    1    3    3    0    0  0.11833436000E+02 -0.66150504959E+02 -0.20004205369E+02  0.14340012499E+03  0.12509000000E+03 0.  0.
<mgrwt>
<rscale>  2 0.45877524E+03</rscale>
<asrwt>0</asrwt>
<pdfrwt beam="1">  1       21 0.54994342E-01 0.45877524E+03</pdfrwt>
<pdfrwt beam="2">  1       21 0.20692078E-01 0.45877524E+03</pdfrwt>
<totfact> 0.62362636E+04</totfact>
</mgrwt>
</event>
<event>
 6    0  0.4793433E-002  0.6795196E+03  0.7546771E-02  0.9752912E-01
         21   -1    0    0  502  501  0.00000000000E+00  0.00000000000E+00  0.13065125247E+04  0.13065125247E+04  0.00000000000E+00 0.  1.
         21   -1    0    0  501  502 -0.00000000000E+00 -0.00000000000E+00 -0.88354865169E+02  0.88354865169E+02  0.00000000000E+00 0.  1.
      99925    2    1    2    0    0 -0.56228407410E+02 -0.77986800565E+01  0.12280467193E+04  0.12571439176E+04  0.26284906598E+03 0.  0.
         25    1    1    2    0    0  0.56228407410E+02  0.77986800565E+01 -0.98890597997E+01  0.13772347227E+03  0.12509000000E+03 0.  0.
         25    1    3    3    0    0 -0.54838818357E+02 -0.31331653890E+02  0.57724160677E+03  0.59400702792E+03  0.12509000000E+03 0.  0.
         25    1    3    3    0    0 -0.13895890532E+01  0.23532973833E+02  0.65080511253E+03  0.66313688965E+03  0.12509000000E+03 0.  0.
<mgrwt>
<rscale>  2 0.67951965E+03</rscale>
<asrwt>0</asrwt>
<pdfrwt beam="1">  1       21 0.19213418E+00 0.67951965E+03</pdfrwt>
<pdfrwt beam="2">  1       21 0.12993363E-01 0.67951965E+03</pdfrwt>
<totfact> 0.62246893E+03</totfact>
</mgrwt>
</event>
<event>
 7    0  0.4793433E-002  0.4604995E+03  0.7546771E-02  0.1024636E+00
         21   -1    0    0  502  501  0.00000000000E+00  0.00000000000E+00  0.97786322988E+02  0.97786322988E+02  0.00000000000E+00 0. -1.
         21   -1    0    0  501  502 -0.00000000000E+00 -0.00000000000E+00 -0.54215092426E+03  0.54215092426E+03  0.00000000000E+00 0. -1.
      99926    2    1    2    0    0  0.14210854715E-13 -0.17763568394E-14 -0.44436460127E+03  0.63993724725E+03  0.46049949137E+03 0.  0.
      99925    2    3    3    0    0 -0.67553417212E+02  0.11938276483E+02 -0.14457459675E+03  0.30793191366E+03  0.26308603688E+03 0.  0.
         25    1    4    4    0    0 -0.38888891032E+02  0.11971117231E+02 -0.27852340015E+02  0.13445785376E+03  0.12509000000E+03 0.  0.
         25    1    4    4    0    0 -0.28664526180E+02 -0.32840747962E-01 -0.11672225674E+03  0.17347405990E+03  0.12509000000E+03 0.  0.
         25    1    3    3    0    0  0.67553417212E+02 -0.11938276483E+02 -0.29979000452E+03  0.33200533359E+03  0.12509000000E+03 0.  0.
<mgrwt>
<rscale>  2 0.46049949E+03</rscale>
<asrwt>0</asrwt>
<pdfrwt beam="1">  1       21 0.14380341E-01 0.46049949E+03</pdfrwt>
<pdfrwt beam="2">  1       21 0.79728078E-01 0.46049949E+03</pdfrwt>
<totfact> 0.53906944E+04</totfact>
</mgrwt>
</event>
<event>
 7    0  0.4793433E-002  0.4612740E+03  0.7546771E-02  0.1024412E+00
         21   -1    0    0  502  501  0.00000000000E+00  0.00000000000E+00  0.76711630390E+02  0.76711630390E+02  0.00000000000E+00 0.  1.
         21   -1    0    0  501  502 -0.00000000000E+00 -0.00000000000E+00 -0.69342074573E+03  0.69342074573E+03  0.00000000000E+00 0.  1.
      99926    2    1    2    0    0  0.00000000000E+00  0.00000000000E+00 -0.61670911534E+03  0.77013237612E+03  0.46127404415E+03 0.  0.
      99925    2    3    3    0    0 -0.83070825749E+02  0.56485185126E+02 -0.27965955400E+03  0.39684796294E+03  0.26303517124E+03 0.  0.
         25    1    4    4    0    0 -0.54699179721E+02  0.52584804201E+02 -0.10485861061E+03  0.17999999504E+03  0.12509000000E+03 0.  0.
         25    1    3    3    0    0  0.83070825749E+02 -0.56485185126E+02 -0.33704956133E+03  0.37328441318E+03  0.12509000000E+03 0.  0.
         25    1    4    4    0    0 -0.28371646028E+02  0.39003809256E+01 -0.17480094339E+03  0.21684796789E+03  0.12509000000E+03 0.  0.
<mgrwt>
<rscale>  2 0.46127404E+03</rscale>
<asrwt>0</asrwt>
<pdfrwt beam="1">  1       21 0.11281122E-01 0.46127404E+03</pdfrwt>
<pdfrwt beam="2">  1       21 0.10197364E+00 0.46127404E+03</pdfrwt>
<totfact> 0.46890889E+04</totfact>
</mgrwt>
</event>
<event>
 7    0  0.4793433E-002  0.4668094E+03  0.7546771E-02  0.1022825E+00
         21   -1    0    0  502  501  0.00000000000E+00  0.00000000000E+00  0.59401544996E+03  0.59401544996E+03  0.00000000000E+00 0.  1.
         21   -1    0    0  501  502 -0.00000000000E+00 -0.00000000000E+00 -0.91711017732E+02  0.91711017732E+02  0.00000000000E+00 0.  1.
      99926    2    1    2    0    0  0.00000000000E+00  0.17763568394E-14  0.50230443222E+03  0.68572646769E+03  0.46680943206E+03 0.  0.
      99925    2    3    3    0    0 -0.70275195932E+02  0.14324436855E+02  0.16452985444E+03  0.31846230370E+03  0.26306724087E+03 0.  0.
         25    1    4    4    0    0 -0.73178088569E+02  0.11053947769E+01  0.69163314513E+02  0.16058432899E+03  0.12509000000E+03 0.  0.
         25    1    4    4    0    0  0.29028926369E+01  0.13219042078E+02  0.95366539930E+02  0.15787797471E+03  0.12509000000E+03 0.  0.
         25    1    3    3    0    0  0.70275195932E+02 -0.14324436855E+02  0.33777457778E+03  0.36726416399E+03  0.12509000000E+03 0.  0.
<mgrwt>
<rscale>  2 0.46680943E+03</rscale>
<asrwt>0</asrwt>
<pdfrwt beam="1">  1       21 0.87355211E-01 0.46680943E+03</pdfrwt>
<pdfrwt beam="2">  1       21 0.13486915E-01 0.46680943E+03</pdfrwt>
<totfact> 0.48967693E+04</totfact>
</mgrwt>
</event>
<event>
 7    0  0.4793433E-002  0.4265767E+03  0.7546771E-02  0.1034947E+00
         21   -1    0    0  502  501  0.00000000000E+00  0.00000000000E+00  0.19546055091E+03  0.19546055091E+03  0.00000000000E+00 0. -1.
         21   -1    0    0  501  502 -0.00000000000E+00 -0.00000000000E+00 -0.23274225666E+03  0.23274225666E+03  0.00000000000E+00 0. -1.
      99926    2    1    2    0    0  0.00000000000E+00  0.00000000000E+00 -0.37281705749E+02  0.42820280757E+03  0.42657674436E+03 0.  0.
      99925    2    3    3    0    0  0.51001362812E+02 -0.21223788240E+02 -0.87467902502E+02  0.28253966659E+03  0.26291907696E+03 0.  0.
         25    1    4    4    0    0 -0.75829381261E+01 -0.20235376767E+02 -0.64915944328E+02  0.14257825694E+03  0.12509000000E+03 0.  0.
         25    1    3    3    0    0 -0.51001362812E+02  0.21223788240E+02  0.50186196753E+02  0.14566314098E+03  0.12509000000E+03 0.  0.
         25    1    4    4    0    0  0.58584300938E+02 -0.98841147301E+00 -0.22551958173E+02  0.13996140965E+03  0.12509000000E+03 0.  0.
<mgrwt>
<rscale>  2 0.42657674E+03</rscale>
<asrwt>0</asrwt>
<pdfrwt beam="1">  1       21 0.28744199E-01 0.42657674E+03</pdfrwt>
<pdfrwt beam="2">  1       21 0.34226802E-01 0.42657674E+03</pdfrwt>
<totfact> 0.89113642E+04</totfact>
</mgrwt>
</event>
<event>
 7    0  0.4793433E-002  0.4560179E+03  0.7546771E-02  0.1025943E+00
         21   -1    0    0  502  501  0.00000000000E+00  0.00000000000E+00  0.13747901206E+03  0.13747901206E+03  0.00000000000E+00 0. -1.
         21   -1    0    0  501  502 -0.00000000000E+00 -0.00000000000E+00 -0.37815280970E+03  0.37815280970E+03  0.00000000000E+00 0. -1.
      99926    2    1    2    0    0  0.00000000000E+00  0.00000000000E+00 -0.24067379763E+03  0.51563182176E+03  0.45601787108E+03 0.  0.
      99925    2    3    3    0    0  0.72551505477E+02  0.53857984510E+02 -0.72798818512E+02  0.28761006807E+03  0.26316435897E+03 0.  0.
         25    1    4    4    0    0  0.34130923275E+02  0.63250144315E+02 -0.58358891178E+02  0.15562380589E+03  0.12509000000E+03 0.  0.
         25    1    4    4    0    0  0.38420582202E+02 -0.93921598046E+01 -0.14439927334E+02  0.13198626218E+03  0.12509000000E+03 0.  0.
         25    1    3    3    0    0 -0.72551505477E+02 -0.53857984510E+02 -0.16787497912E+03  0.22802175369E+03  0.12509000000E+03 0.  0.
<mgrwt>
<rscale>  2 0.45601787E+03</rscale>
<asrwt>0</asrwt>
<pdfrwt beam="1">  1       21 0.20217502E-01 0.45601787E+03</pdfrwt>
<pdfrwt beam="2">  1       21 0.55610707E-01 0.45601787E+03</pdfrwt>
<totfact> 0.63670043E+04</totfact>
</mgrwt>
</event>
<event>
 7    0  0.4793433E-002  0.4491271E+03  0.7546771E-02  0.1027983E+00
         21   -1    0    0  502  501  0.00000000000E+00  0.00000000000E+00  0.98931642021E+02  0.98931642021E+02  0.00000000000E+00 0.  1.
         21   -1    0    0  501  502 -0.00000000000E+00 -0.00000000000E+00 -0.50973366637E+03  0.50973366637E+03  0.00000000000E+00 0.  1.
      99926    2    1    2    0    0 -0.13322676296E-14  0.00000000000E+00 -0.41080202435E+03  0.60866530839E+03  0.44912710275E+03 0.  0.
      99925    2    3    3    0    0 -0.24124811824E+01 -0.92251989135E+02 -0.18494049094E+03  0.33448071740E+03  0.26297930633E+03 0.  0.
         25    1    3    3    0    0  0.24124811824E+01  0.92251989135E+02 -0.22586153341E+03  0.27418459099E+03  0.12509000000E+03 0.  0.
         25    1    4    4    0    0 -0.32565426801E+02 -0.22090585326E+02 -0.10156984139E+03  0.16586874860E+03  0.12509000000E+03 0.  0.
         25    1    4    4    0    0  0.30152945619E+02 -0.70161403809E+02 -0.83370649546E+02  0.16861196879E+03  0.12509000000E+03 0.  0.
<mgrwt>
<rscale>  2 0.44912710E+03</rscale>
<asrwt>0</asrwt>
<pdfrwt beam="1">  1       21 0.14548771E-01 0.44912710E+03</pdfrwt>
<pdfrwt beam="2">  1       21 0.74960834E-01 0.44912710E+03</pdfrwt>
<totfact> 0.60925565E+04</totfact>
</mgrwt>
</event>
<event>
 7    0  0.4793433E-002  0.4435383E+03  0.7546771E-02  0.1029667E+00
         21   -1    0    0  502  501  0.00000000000E+00  0.00000000000E+00  0.31781406650E+03  0.31781406650E+03  0.00000000000E+00 0. -1.
         21   -1    0    0  501  502 -0.00000000000E+00 -0.00000000000E+00 -0.15474947409E+03  0.15474947409E+03  0.00000000000E+00 0. -1.
      99926    2    1    2    0    0  0.00000000000E+00  0.00000000000E+00  0.16306459241E+03  0.47256354060E+03  0.44353831695E+03 0.  0.
      99925    2    3    3    0    0  0.12033008389E+02 -0.19015285318E+02  0.20943723839E+03  0.33727013809E+03  0.26340238203E+03 0.  0.
         25    1    4    4    0    0 -0.20656169706E+02 -0.40754300070E+02  0.10131018781E+03  0.16732857669E+03  0.12509000000E+03 0.  0.
         25    1    4    4    0    0  0.32689178095E+02  0.21739014753E+02  0.10812705057E+03  0.16994156140E+03  0.12509000000E+03 0.  0.
         25    1    3    3    0    0 -0.12033008389E+02  0.19015285318E+02 -0.46372645976E+02  0.13529340251E+03  0.12509000000E+03 0.  0.
<mgrwt>
<rscale>  2 0.44353832E+03</rscale>
<asrwt>0</asrwt>
<pdfrwt beam="1">  1       21 0.46737363E-01 0.44353832E+03</pdfrwt>
<pdfrwt beam="2">  1       21 0.22757276E-01 0.44353832E+03</pdfrwt>
<totfact> 0.73727923E+04</totfact>
</mgrwt>
</event>
<event>
 7    0  0.4793433E-002  0.4568666E+03  0.7546771E-02  0.1025694E+00
         21   -1    0    0  502  501  0.00000000000E+00  0.00000000000E+00  0.39533561424E+03  0.39533561424E+03  0.00000000000E+00 0. -1.
         21   -1    0    0  501  502 -0.00000000000E+00 -0.00000000000E+00 -0.13199358088E+03  0.13199358088E+03  0.00000000000E+00 0. -1.
      99926    2    1    2    0    0  0.00000000000E+00  0.00000000000E+00  0.26334203336E+03  0.52732919512E+03  0.45686655984E+03 0.  0.
      99925    2    3    3    0    0 -0.72752309859E+02 -0.85901574541E+02  0.13898728354E+03  0.31808390605E+03  0.26303598081E+03 0.  0.
         25    1    4    4    0    0 -0.50806111648E+02 -0.71828829489E+02  0.10612807011E+03  0.18614864246E+03  0.12509000000E+03 0.  0.
         25    1    4    4    0    0 -0.21946198211E+02 -0.14072745052E+02  0.32859213432E+02  0.13193526358E+03  0.12509000000E+03 0.  0.
         25    1    3    3    0    0  0.72752309859E+02  0.85901574541E+02  0.12435474982E+03  0.20924528908E+03  0.12509000000E+03 0.  0.
<mgrwt>
<rscale>  2 0.45686656E+03</rscale>
<asrwt>0</asrwt>
<pdfrwt beam="1">  1       21 0.58137590E-01 0.45686656E+03</pdfrwt>
<pdfrwt beam="2">  1       21 0.19410821E-01 0.45686656E+03</pdfrwt>
<totfact> 0.62458422E+04</totfact>
</mgrwt>
</event>
<event>
 7    0  0.4793433E-002  0.4656581E+03  0.7546771E-02  0.1023153E+00
         21   -1    0    0  502  501  0.00000000000E+00  0.00000000000E+00  0.49078329064E+02  0.49078329064E+02  0.00000000000E+00 0. -1.
         21   -1    0    0  501  502 -0.00000000000E+00 -0.00000000000E+00 -0.11045480473E+04  0.11045480473E+04  0.00000000000E+00 0. -1.
      99926    2    1    2    0    0  0.00000000000E+00  0.00000000000E+00 -0.10554697182E+04  0.11536263763E+04  0.46565812580E+03 0.  0.
      99925    2    3    3    0    0 -0.97242958279E+02 -0.66172429960E+02 -0.74715830106E+03  0.80072636009E+03  0.26283491678E+03 0.  0.
         25    1    3    3    0    0  0.97242958279E+02  0.66172429960E+02 -0.30831141715E+03  0.35290001625E+03  0.12509000000E+03 0.  0.
         25    1    4    4    0    0 -0.79781965058E+02 -0.54771153152E+02 -0.47095591221E+03  0.49680179198E+03  0.12509000000E+03 0.  0.
         25    1    4    4    0    0 -0.17460993221E+02 -0.11401276808E+02 -0.27620238885E+03  0.30392456812E+03  0.12509000000E+03 0.  0.
<mgrwt>
<rscale>  2 0.46565813E+03</rscale>
<asrwt>0</asrwt>
<pdfrwt beam="1">  1       21 0.72174021E-02 0.46565813E+03</pdfrwt>
<pdfrwt beam="2">  1       21 0.16243352E+00 0.46565813E+03</pdfrwt>
<totfact> 0.31004962E+04</totfact>
</mgrwt>
</event>
<event>
 7    0  0.4793433E-002  0.4557213E+03  0.7546771E-02  0.1026030E+00
         21   -1    0    0  502  501  0.00000000000E+00  0.00000000000E+00  0.14092867523E+03  0.14092867523E+03  0.00000000000E+00 0. -1.
         21   -1    0    0  501  502 -0.00000000000E+00 -0.00000000000E+00 -0.36841663376E+03  0.36841663376E+03  0.00000000000E+00 0. -1.
      99926    2    1    2    0    0  0.00000000000E+00  0.00000000000E+00 -0.22748795853E+03  0.50934530899E+03  0.45572126625E+03 0.  0.
      99925    2    3    3    0    0 -0.83270759102E+02  0.73603394893E+02 -0.11563455287E+03  0.30807392126E+03  0.26303367101E+03 0.  0.
         25    1    4    4    0    0 -0.37812842088E+02  0.71915474436E+02 -0.37777107813E+02  0.15387093444E+03  0.12509000000E+03 0.  0.
         25    1    4    4    0    0 -0.45457917014E+02  0.16879204574E+01 -0.77857445059E+02  0.15420298683E+03  0.12509000000E+03 0.  0.
         25    1    3    3    0    0  0.83270759102E+02 -0.73603394893E+02 -0.11185340566E+03  0.20127138773E+03  0.12509000000E+03 0.  0.
<mgrwt>
<rscale>  2 0.45572127E+03</rscale>
<asrwt>0</asrwt>
<pdfrwt beam="1">  1       21 0.20724806E-01 0.45572127E+03</pdfrwt>
<pdfrwt beam="2">  1       21 0.54178915E-01 0.45572127E+03</pdfrwt>
<totfact> 0.64250406E+04</totfact>
</mgrwt>
</event>
<event>
 7    0  0.4793433E-002  0.4579612E+03  0.7546771E-02  0.1025374E+00
         21   -1    0    0  502  501  0.00000000000E+00  0.00000000000E+00  0.51318161736E+03  0.51318161736E+03  0.00000000000E+00 0.  1.
         21   -1    0    0  501  502 -0.00000000000E+00 -0.00000000000E+00 -0.10217069326E+03  0.10217069326E+03  0.00000000000E+00 0.  1.
      99926    2    1    2    0    0  0.00000000000E+00  0.17763568394E-14  0.41101092410E+03  0.61535231063E+03  0.45796122812E+03 0.  0.
      99925    2    3    3    0    0 -0.61987588309E+02 -0.42280658745E+01  0.38912204458E+03  0.47397703417E+03  0.26339689766E+03 0.  0.
         25    1    4    4    0    0 -0.27669549158E+02 -0.43118306005E+02  0.19813832944E+03  0.23985641112E+03  0.12509000000E+03 0.  0.
         25    1    3    3    0    0  0.61987588309E+02  0.42280658745E+01  0.21888879517E+02  0.14137527645E+03  0.12509000000E+03 0.  0.
         25    1    4    4    0    0 -0.34318039151E+02  0.38890240130E+02  0.19098371514E+03  0.23412062305E+03  0.12509000000E+03 0.  0.
<mgrwt>
<rscale>  2 0.45796123E+03</rscale>
<asrwt>0</asrwt>
<pdfrwt beam="1">  1       21 0.75467884E-01 0.45796123E+03</pdfrwt>
<pdfrwt beam="2">  1       21 0.15025102E-01 0.45796123E+03</pdfrwt>
<totfact> 0.56412166E+04</totfact>
</mgrwt>
</event>
<event>
 7    0  0.4793433E-002  0.4748460E+03  0.7546771E-02  0.1020561E+00
         21   -1    0    0  502  501  0.00000000000E+00  0.00000000000E+00  0.16920049614E+03  0.16920049614E+03  0.00000000000E+00 0. -1.
         21   -1    0    0  501  502 -0.00000000000E+00 -0.00000000000E+00 -0.33315311532E+03  0.33315311532E+03  0.00000000000E+00 0. -1.
      99926    2    1    2    0    0  0.00000000000E+00 -0.35527136788E-14 -0.16395261918E+03  0.50235361146E+03  0.47484596409E+03 0.  0.
      99925    2    3    3    0    0 -0.35087108947E+02  0.26603840007E+02  0.29041229289E+02  0.26818913259E+03  0.26295084773E+03 0.  0.
         25    1    3    3    0    0  0.35087108947E+02 -0.26603840007E+02 -0.19299384847E+03  0.23416447887E+03  0.12509000000E+03 0.  0.
         25    1    4    4    0    0 -0.37561104431E+02  0.48904687691E+02  0.18092302743E+02  0.14063194716E+03  0.12509000000E+03 0.  0.
         25    1    4    4    0    0  0.24739954840E+01 -0.22300847684E+02  0.10948926546E+02  0.12755718543E+03  0.12509000000E+03 0.  0.
<mgrwt>
<rscale>  2 0.47484596E+03</rscale>
<asrwt>0</asrwt>
<pdfrwt beam="1">  1       21 0.24882426E-01 0.47484596E+03</pdfrwt>
<pdfrwt beam="2">  1       21 0.48993105E-01 0.47484596E+03</pdfrwt>
<totfact> 0.55785144E+04</totfact>
</mgrwt>
</event>
<event>
 7    0  0.4793433E-002  0.4535447E+03  0.7546771E-02  0.1026670E+00
         21   -1    0    0  502  501  0.00000000000E+00  0.00000000000E+00  0.78253167451E+02  0.78253167451E+02  0.00000000000E+00 0.  1.
         21   -1    0    0  501  502 -0.00000000000E+00 -0.00000000000E+00 -0.65717093282E+03  0.65717093282E+03  0.00000000000E+00 0.  1.
      99926    2    1    2    0    0  0.00000000000E+00  0.44408920985E-14 -0.57891776537E+03  0.73542410027E+03  0.45354473671E+03 0.  0.
      99925    2    3    3    0    0  0.11042324432E+03 -0.51036179124E+01 -0.33691816894E+03  0.44143319467E+03  0.26292598388E+03 0.  0.
         25    1    4    4    0    0  0.73157313996E+02 -0.38585468975E+02 -0.16427839110E+03  0.22243140266E+03  0.12509000000E+03 0.  0.
         25    1    3    3    0    0 -0.11042324432E+03  0.51036179124E+01 -0.24199959643E+03  0.29399090560E+03  0.12509000000E+03 0.  0.
         25    1    4    4    0    0  0.37265930321E+02  0.33481851063E+02 -0.17263977784E+03  0.21900179201E+03  0.12509000000E+03 0.  0.
<mgrwt>
<rscale>  2 0.45354474E+03</rscale>
<asrwt>0</asrwt>
<pdfrwt beam="1">  1       21 0.11507819E-01 0.45354474E+03</pdfrwt>
<pdfrwt beam="2">  1       21 0.96642785E-01 0.45354474E+03</pdfrwt>
<totfact> 0.51609497E+04</totfact>
</mgrwt>
</event>
<event>
 7    0  0.4793433E-002  0.4597047E+03  0.7546771E-02  0.1024867E+00
         21   -1    0    0  502  501  0.00000000000E+00  0.00000000000E+00  0.22705816034E+03  0.22705816034E+03  0.00000000000E+00 0.  1.
         21   -1    0    0  501  502 -0.00000000000E+00 -0.00000000000E+00 -0.23268092567E+03  0.23268092567E+03  0.00000000000E+00 0.  1.
      99926    2    1    2    0    0  0.00000000000E+00  0.00000000000E+00 -0.56227653249E+01  0.45973908601E+03  0.45970470056E+03 0.  0.
      99925    2    3    3    0    0 -0.35803901455E+02  0.44715975590E+02  0.99075960294E+02  0.28684961531E+03  0.26303083101E+03 0.  0.
         25    1    4    4    0    0 -0.39779309317E+02  0.24366141743E+02  0.14179642995E+02  0.13425599684E+03  0.12509000000E+03 0.  0.
         25    1    3    3    0    0  0.35803901455E+02 -0.44715975590E+02 -0.10469872562E+03  0.17288947070E+03  0.12509000000E+03 0.  0.
         25    1    4    4    0    0  0.39754078617E+01  0.20349833848E+02  0.84896317300E+02  0.15259361847E+03  0.12509000000E+03 0.  0.
<mgrwt>
<rscale>  2 0.45970470E+03</rscale>
<asrwt>0</asrwt>
<pdfrwt beam="1">  1       21 0.33390906E-01 0.45970470E+03</pdfrwt>
<pdfrwt beam="2">  1       21 0.34217783E-01 0.45970470E+03</pdfrwt>
<totfact> 0.65698897E+04</totfact>
</mgrwt>
</event>
<event>
 7    0  0.4793433E-002  0.4235167E+03  0.7546771E-02  0.1035928E+00
         21   -1    0    0  502  501  0.00000000000E+00  0.00000000000E+00  0.17500151364E+03  0.17500151364E+03  0.00000000000E+00 0.  1.
         21   -1    0    0  501  502 -0.00000000000E+00 -0.00000000000E+00 -0.25623551339E+03  0.25623551339E+03  0.00000000000E+00 0.  1.
      99926    2    1    2    0    0  0.35527136788E-14  0.14210854715E-13 -0.81233999757E+02  0.43123702703E+03  0.42351671840E+03 0.  0.
      99925    2    3    3    0    0 -0.23830874193E+02  0.76884241291E+02 -0.53310404086E+02  0.27988864607E+03  0.26271002625E+03 0.  0.
         25    1    3    3    0    0  0.23830874193E+02 -0.76884241291E+02 -0.27923595672E+02  0.15134838096E+03  0.12509000000E+03 0.  0.
         25    1    4    4    0    0  0.27545526475E+02  0.35064284767E+02 -0.33507217155E+02  0.13696168003E+03  0.12509000000E+03 0.  0.
         25    1    4    4    0    0 -0.51376400668E+02  0.41819956524E+02 -0.19803186930E+02  0.14292696604E+03  0.12509000000E+03 0.  0.
<mgrwt>
<rscale>  2 0.42351672E+03</rscale>
<asrwt>0</asrwt>
<pdfrwt beam="1">  1       21 0.25735517E-01 0.42351672E+03</pdfrwt>
<pdfrwt beam="2">  1       21 0.37681693E-01 0.42351672E+03</pdfrwt>
<totfact> 0.91143942E+04</totfact>
</mgrwt>
</event>
<event>
 7    0  0.4793433E-002  0.4570224E+03  0.7546771E-02  0.1025648E+00
         21   -1    0    0  502  501  0.00000000000E+00  0.00000000000E+00  0.12857076996E+03  0.12857076996E+03  0.00000000000E+00 0. -1.
         21   -1    0    0  501  502 -0.00000000000E+00 -0.00000000000E+00 -0.40613714430E+03  0.40613714430E+03  0.00000000000E+00 0. -1.
      99926    2    1    2    0    0  0.00000000000E+00  0.00000000000E+00 -0.27756637434E+03  0.53470791426E+03  0.45702238611E+03 0.  0.
      99925    2    3    3    0    0 -0.11260935689E+03 -0.20733014565E+02 -0.16181209102E+03  0.32938551568E+03  0.26306071540E+03 0.  0.
         25    1    3    3    0    0  0.11260935689E+03  0.20733014565E+02 -0.11575428332E+03  0.20532239858E+03  0.12509000000E+03 0.  0.
         25    1    4    4    0    0 -0.98673657569E+02 -0.59969938007E+01 -0.10185245077E+03  0.18919271778E+03  0.12509000000E+03 0.  0.
         25    1    4    4    0    0 -0.13935699322E+02 -0.14736020764E+02 -0.59959640250E+02  0.14019279790E+03  0.12509000000E+03 0.  0.
<mgrwt>
<rscale>  2 0.45702239E+03</rscale>
<asrwt>0</asrwt>
<pdfrwt beam="1">  1       21 0.18907466E-01 0.45702239E+03</pdfrwt>
<pdfrwt beam="2">  1       21 0.59726051E-01 0.45702239E+03</pdfrwt>
<totfact> 0.61890949E+04</totfact>
</mgrwt>
</event>
<event>
 7    0  0.4793433E-002  0.4588170E+03  0.7546771E-02  0.1025125E+00
         21   -1    0    0  502  501  0.00000000000E+00  0.00000000000E+00  0.65357307976E+02  0.65357307976E+02  0.00000000000E+00 0.  1.
         21   -1    0    0  501  502 -0.00000000000E+00 -0.00000000000E+00 -0.80523916276E+03  0.80523916276E+03  0.00000000000E+00 0.  1.
      99926    2    1    2    0    0 -0.53290705182E-14  0.00000000000E+00 -0.73988185478E+03  0.87059647073E+03  0.45881701779E+03 0.  0.
      99925    2    3    3    0    0  0.13785891155E+02 -0.66233031975E+02 -0.64440459216E+03  0.69930642112E+03  0.26305004637E+03 0.  0.
         25    1    4    4    0    0  0.41418391448E+02 -0.14458238824E+02 -0.28747741873E+03  0.31656799933E+03  0.12509000000E+03 0.  0.
         25    1    4    4    0    0 -0.27632500293E+02 -0.51774793152E+02 -0.35692717343E+03  0.38273842179E+03  0.12509000000E+03 0.  0.
         25    1    3    3    0    0 -0.13785891155E+02  0.66233031975E+02 -0.95477262618E+02  0.17129004961E+03  0.12509000000E+03 0.  0.
<mgrwt>
<rscale>  2 0.45881702E+03</rscale>
<asrwt>0</asrwt>
<pdfrwt beam="1">  1       21 0.96113692E-02 0.45881702E+03</pdfrwt>
<pdfrwt beam="2">  1       21 0.11841752E+00 0.45881702E+03</pdfrwt>
<totfact> 0.43222528E+04</totfact>
</mgrwt>
</event>
<event>
 7    0  0.4793433E-002  0.4555329E+03  0.7546771E-02  0.1026085E+00
         21   -1    0    0  502  501  0.00000000000E+00  0.00000000000E+00  0.56190776820E+03  0.56190776820E+03  0.00000000000E+00 0.  1.
         21   -1    0    0  501  502 -0.00000000000E+00 -0.00000000000E+00 -0.92323983376E+02  0.92323983376E+02  0.00000000000E+00 0.  1.
      99926    2    1    2    0    0  0.00000000000E+00  0.71054273576E-14  0.46958378482E+03  0.65423175157E+03  0.45553293382E+03 0.  0.
      99925    2    3    3    0    0 -0.51185390374E+02 -0.61338998825E+02  0.17921608099E+03  0.32812850337E+03  0.26299713700E+03 0.  0.
         25    1    4    4    0    0  0.92363429031E+01 -0.43683658791E+02  0.67484539711E+02  0.14898068088E+03  0.12509000000E+03 0.  0.
         25    1    3    3    0    0  0.51185390374E+02  0.61338998825E+02  0.29036770383E+03  0.32610324821E+03  0.12509000000E+03 0.  0.
         25    1    4    4    0    0 -0.60421733277E+02 -0.17655340034E+02  0.11173154128E+03  0.17914782249E+03  0.12509000000E+03 0.  0.
<mgrwt>
<rscale>  2 0.45553293E+03</rscale>
<asrwt>0</asrwt>
<pdfrwt beam="1">  1       21 0.82633494E-01 0.45553293E+03</pdfrwt>
<pdfrwt beam="2">  1       21 0.13577057E-01 0.45553293E+03</pdfrwt>
<totfact> 0.55225839E+04</totfact>
</mgrwt>
</event>
<event>
 7    0  0.4793433E-002  0.4547519E+03  0.7546771E-02  0.1026314E+00
         21   -1    0    0  502  501  0.00000000000E+00  0.00000000000E+00  0.62384247526E+03  0.62384247526E+03  0.00000000000E+00 0.  1.
         21   -1    0    0  501  502 -0.00000000000E+00 -0.00000000000E+00 -0.82873198853E+02  0.82873198853E+02  0.00000000000E+00 0.  1.
      99926    2    1    2    0    0  0.00000000000E+00 -0.12212453271E-14  0.54096927640E+03  0.70671567411E+03  0.45475189501E+03 0.  0.
      99925    2    3    3    0    0  0.75659542250E+02 -0.70728896458E+00  0.21025810948E+03  0.34513269522E+03  0.26302706727E+03 0.  0.
         25    1    4    4    0    0  0.54210106894E+02 -0.10321778950E+02  0.63137012318E+02  0.15059570125E+03  0.12509000000E+03 0.  0.
         25    1    4    4    0    0  0.21449435356E+02  0.96144899859E+01  0.14712109716E+03  0.19453699397E+03  0.12509000000E+03 0.  0.
         25    1    3    3    0    0 -0.75659542250E+02  0.70728896458E+00  0.33071116693E+03  0.36158297889E+03  0.12509000000E+03 0.  0.
<mgrwt>
<rscale>  2 0.45475190E+03</rscale>
<asrwt>0</asrwt>
<pdfrwt beam="1">  1       21 0.91741538E-01 0.45475190E+03</pdfrwt>
<pdfrwt beam="2">  1       21 0.12187235E-01 0.45475190E+03</pdfrwt>
<totfact> 0.52642550E+04</totfact>
</mgrwt>
</event>
<event>
 7    0  0.4793433E-002  0.4581297E+03  0.7546771E-02  0.1025325E+00
         21   -1    0    0  502  501  0.00000000000E+00  0.00000000000E+00  0.90051657878E+02  0.90051657878E+02  0.00000000000E+00 0.  1.
         21   -1    0    0  501  502 -0.00000000000E+00 -0.00000000000E+00 -0.58267327392E+03  0.58267327392E+03  0.00000000000E+00 0.  1.
      99926    2    1    2    0    0 -0.71054273576E-14 -0.14210854715E-13 -0.49262161604E+03  0.67272493180E+03  0.45812965116E+03 0.  0.
      99925    2    3    3    0    0 -0.32566184447E+02 -0.10329805246E+03 -0.24774818078E+03  0.37718889100E+03  0.26298527412E+03 0.  0.
         25    1    4    4    0    0 -0.14248165788E+02 -0.92077135198E+02 -0.15581836544E+03  0.22047240227E+03  0.12509000000E+03 0.  0.
         25    1    3    3    0    0  0.32566184447E+02  0.10329805246E+03 -0.24487343527E+03  0.29553604080E+03  0.12509000000E+03 0.  0.
         25    1    4    4    0    0 -0.18318018659E+02 -0.11220917264E+02 -0.91929815332E+02  0.15671648873E+03  0.12509000000E+03 0.  0.
<mgrwt>
<rscale>  2 0.45812965E+03</rscale>
<asrwt>0</asrwt>
<pdfrwt beam="1">  1       21 0.13242891E-01 0.45812965E+03</pdfrwt>
<pdfrwt beam="2">  1       21 0.85687247E-01 0.45812965E+03</pdfrwt>
<totfact> 0.53087409E+04</totfact>
</mgrwt>
</event>
<event>
 7    0  0.4793433E-002  0.4536774E+03  0.7546771E-02  0.1026631E+00
         21   -1    0    0  502  501  0.00000000000E+00  0.00000000000E+00  0.88235703290E+03  0.88235703290E+03  0.00000000000E+00 0.  1.
         21   -1    0    0  501  502 -0.00000000000E+00 -0.00000000000E+00 -0.58316309446E+02  0.58316309446E+02  0.00000000000E+00 0.  1.
      99926    2    1    2    0    0  0.00000000000E+00  0.00000000000E+00  0.82404072345E+03  0.94067334235E+03  0.45367744389E+03 0.  0.
      99925    2    3    3    0    0 -0.34440603324E+02  0.62142306747E+02  0.69838953943E+03  0.74966666814E+03  0.26306718360E+03 0.  0.
         25    1    4    4    0    0 -0.21679310595E+02  0.34835177143E+02  0.46362365158E+03  0.48195215580E+03  0.12509000000E+03 0.  0.
         25    1    4    4    0    0 -0.12761292729E+02  0.27307129604E+02  0.23476588785E+03  0.26771451234E+03  0.12509000000E+03 0.  0.
         25    1    3    3    0    0  0.34440603324E+02 -0.62142306747E+02  0.12565118402E+03  0.19100667421E+03  0.12509000000E+03 0.  0.
<mgrwt>
<rscale>  2 0.45367744E+03</rscale>
<asrwt>0</asrwt>
<pdfrwt beam="1">  1       21 0.12975838E+00 0.45367744E+03</pdfrwt>
<pdfrwt beam="2">  1       21 0.85759284E-02 0.45367744E+03</pdfrwt>
<totfact> 0.41953038E+04</totfact>
</mgrwt>
</event>
<event>
 7    0  0.4793433E-002  0.4521294E+03  0.7546771E-02  0.1027089E+00
         21   -1    0    0  502  501  0.00000000000E+00  0.00000000000E+00  0.46758058187E+03  0.46758058187E+03  0.00000000000E+00 0.  1.
         21   -1    0    0  501  502 -0.00000000000E+00 -0.00000000000E+00 -0.10929719704E+03  0.10929719704E+03  0.00000000000E+00 0.  1.
      99926    2    1    2    0    0  0.00000000000E+00 -0.71054273576E-14  0.35828338483E+03  0.57687777891E+03  0.45212939294E+03 0.  0.
      99925    2    3    3    0    0  0.10287549689E+03 -0.32531691384E+02  0.25609661758E+03  0.38263225823E+03  0.26302146052E+03 0.  0.
         25    1    3    3    0    0 -0.10287549689E+03  0.32531691384E+02  0.10218676725E+03  0.19424552068E+03  0.12509000000E+03 0.  0.
         25    1    4    4    0    0  0.82114016298E+01 -0.16825442251E+02  0.12024299461E+03  0.17451764517E+03  0.12509000000E+03 0.  0.
         25    1    4    4    0    0  0.94664095262E+02 -0.15706249133E+02  0.13585362297E+03  0.20811461306E+03  0.12509000000E+03 0.  0.
<mgrwt>
<rscale>  2 0.45212939E+03</rscale>
<asrwt>0</asrwt>
<pdfrwt beam="1">  1       21 0.68761849E-01 0.45212939E+03</pdfrwt>
<pdfrwt beam="2">  1       21 0.16073117E-01 0.45212939E+03</pdfrwt>
<totfact> 0.61508715E+04</totfact>
</mgrwt>
</event>
<event>
 7    0  0.4793433E-002  0.4392682E+03  0.7546771E-02  0.1030972E+00
         21   -1    0    0  502  501  0.00000000000E+00  0.00000000000E+00  0.32456486508E+03  0.32456486508E+03  0.00000000000E+00 0. -1.
         21   -1    0    0  501  502 -0.00000000000E+00 -0.00000000000E+00 -0.14862711367E+03  0.14862711367E+03  0.00000000000E+00 0. -1.
      99926    2    1    2    0    0  0.71054273576E-14  0.14210854715E-13  0.17593775141E+03  0.47319197875E+03  0.43926820553E+03 0.  0.
      99925    2    3    3    0    0  0.42545900202E+02 -0.64460266634E+02  0.17670823940E+03  0.32617707696E+03  0.26305969676E+03 0.  0.
         25    1    4    4    0    0 -0.17830334187E+02 -0.21248109709E+02  0.72288380618E+02  0.14711397301E+03  0.12509000000E+03 0.  0.
         25    1    4    4    0    0  0.60376234388E+02 -0.43212156925E+02  0.10441985878E+03  0.17906310394E+03  0.12509000000E+03 0.  0.
         25    1    3    3    0    0 -0.42545900202E+02  0.64460266634E+02 -0.77048799527E+00  0.14701490180E+03  0.12509000000E+03 0.  0.
<mgrwt>
<rscale>  2 0.43926821E+03</rscale>
<asrwt>0</asrwt>
<pdfrwt beam="1">  1       21 0.47730127E-01 0.43926821E+03</pdfrwt>
<pdfrwt beam="2">  1       21 0.21856928E-01 0.43926821E+03</pdfrwt>
<totfact> 0.76289909E+04</totfact>
</mgrwt>
</event>
<event>
 7    0  0.4793433E-002  0.4706134E+03  0.7546771E-02  0.1021747E+00
         21   -1    0    0  502  501  0.00000000000E+00  0.00000000000E+00  0.37032500465E+03  0.37032500465E+03  0.00000000000E+00 0.  1.
         21   -1    0    0  501  502 -0.00000000000E+00 -0.00000000000E+00 -0.14951526866E+03  0.14951526866E+03  0.00000000000E+00 0.  1.
      99926    2    1    2    0    0  0.00000000000E+00  0.00000000000E+00  0.22080973599E+03  0.51984027331E+03  0.47061339787E+03 0.  0.
      99925    2    3    3    0    0  0.25665050352E+02 -0.11736553947E+03  0.18345112031E+03  0.34242398621E+03  0.26299526255E+03 0.  0.
         25    1    4    4    0    0  0.90729496964E+01 -0.83010544606E+02  0.57983005394E+02  0.16119120927E+03  0.12509000000E+03 0.  0.
         25    1    3    3    0    0 -0.25665050352E+02  0.11736553947E+03  0.37358615683E+02  0.17741628710E+03  0.12509000000E+03 0.  0.
         25    1    4    4    0    0  0.16592100656E+02 -0.34354994861E+02  0.12546811492E+03  0.18123277694E+03  0.12509000000E+03 0.  0.
<mgrwt>
<rscale>  2 0.47061340E+03</rscale>
<asrwt>0</asrwt>
<pdfrwt beam="1">  1       21 0.54459559E-01 0.47061340E+03</pdfrwt>
<pdfrwt beam="2">  1       21 0.21987540E-01 0.47061340E+03</pdfrwt>
<totfact> 0.56558421E+04</totfact>
</mgrwt>
</event>
<event>
 7    0  0.4793433E-002  0.4528543E+03  0.7546771E-02  0.1026874E+00
         21   -1    0    0  502  501  0.00000000000E+00  0.00000000000E+00  0.95894913514E+03  0.95894913514E+03  0.00000000000E+00 0.  1.
         21   -1    0    0  501  502 -0.00000000000E+00 -0.00000000000E+00 -0.53463994233E+02  0.53463994233E+02  0.00000000000E+00 0.  1.
      99926    2    1    2    0    0 -0.71054273576E-14  0.00000000000E+00  0.90548514091E+03  0.10124131294E+04  0.45285428575E+03 0.  0.
      99925    2    3    3    0    0 -0.42928063519E+02  0.96990994736E+02  0.64472574938E+03  0.70436599001E+03  0.26307809540E+03 0.  0.
         25    1    3    3    0    0  0.42928063519E+02 -0.96990994736E+02  0.26075939153E+03  0.30804713936E+03  0.12509000000E+03 0.  0.
         25    1    4    4    0    0 -0.41653374479E+02  0.40750381020E+02  0.23771463574E+03  0.27486606430E+03  0.12509000000E+03 0.  0.
         25    1    4    4    0    0 -0.12746890398E+01  0.56240613716E+02  0.40701111363E+03  0.42949992571E+03  0.12509000000E+03 0.  0.
<mgrwt>
<rscale>  2 0.45285429E+03</rscale>
<asrwt>0</asrwt>
<pdfrwt beam="1">  1       21 0.14102192E+00 0.45285429E+03</pdfrwt>
<pdfrwt beam="2">  1       21 0.78623527E-02 0.45285429E+03</pdfrwt>
<totfact> 0.39342465E+04</totfact>
</mgrwt>
</event>
<event>
 7    0  0.4793433E-002  0.4558945E+03  0.7546771E-02  0.1025979E+00
         21   -1    0    0  502  501  0.00000000000E+00  0.00000000000E+00  0.88299998905E+02  0.88299998905E+02  0.00000000000E+00 0. -1.
         21   -1    0    0  501  502 -0.00000000000E+00 -0.00000000000E+00 -0.58844785389E+03  0.58844785389E+03  0.00000000000E+00 0. -1.
      99926    2    1    2    0    0 -0.71054273576E-14  0.00000000000E+00 -0.50014785499E+03  0.67674785280E+03  0.45589448277E+03 0.  0.
      99925    2    3    3    0    0  0.42267972751E+02 -0.64849895563E+02 -0.19028544862E+03  0.33374011316E+03  0.26302437282E+03 0.  0.
         25    1    3    3    0    0 -0.42267972751E+02  0.64849895563E+02 -0.30986240637E+03  0.34300773964E+03  0.12509000000E+03 0.  0.
         25    1    4    4    0    0 -0.87309826892E+01 -0.57403191087E+02 -0.11012863297E+03  0.17648563768E+03  0.12509000000E+03 0.  0.
         25    1    4    4    0    0  0.50998955440E+02 -0.74467044756E+01 -0.80156815652E+02  0.15725447548E+03  0.12509000000E+03 0.  0.
<mgrwt>
<rscale>  2 0.45589448E+03</rscale>
<asrwt>0</asrwt>
<pdfrwt beam="1">  1       21 0.12985294E-01 0.45589448E+03</pdfrwt>
<pdfrwt beam="2">  1       21 0.86536449E-01 0.45589448E+03</pdfrwt>
<totfact> 0.53803900E+04</totfact>
</mgrwt>
</event>
<event>
 7    0  0.4793433E-002  0.4491489E+03  0.7546771E-02  0.1027976E+00
         21   -1    0    0  502  501  0.00000000000E+00  0.00000000000E+00  0.81801991472E+03  0.81801991472E+03  0.00000000000E+00 0. -1.
         21   -1    0    0  501  502 -0.00000000000E+00 -0.00000000000E+00 -0.61653380251E+02  0.61653380251E+02  0.00000000000E+00 0. -1.
      99926    2    1    2    0    0  0.00000000000E+00  0.00000000000E+00  0.75636653447E+03  0.87967329497E+03  0.44914894124E+03 0.  0.
      99925    2    3    3    0    0 -0.98681582047E+02  0.42455659536E+02  0.46663496293E+03  0.54630798588E+03  0.26298990311E+03 0.  0.
         25    1    3    3    0    0  0.98681582047E+02 -0.42455659536E+02  0.28973157154E+03  0.33336530909E+03  0.12509000000E+03 0.  0.
         25    1    4    4    0    0 -0.77405887223E+02  0.50796704968E+02  0.28254517679E+03  0.32256977794E+03  0.12509000000E+03 0.  0.
         25    1    4    4    0    0 -0.21275694825E+02 -0.83410454321E+01  0.18408978614E+03  0.22373820794E+03  0.12509000000E+03 0.  0.
<mgrwt>
<rscale>  2 0.44914894E+03</rscale>
<asrwt>0</asrwt>
<pdfrwt beam="1">  1       21 0.12029704E+00 0.44914894E+03</pdfrwt>
<pdfrwt beam="2">  1       21 0.90666741E-02 0.44914894E+03</pdfrwt>
<totfact> 0.46205498E+04</totfact>
</mgrwt>
</event>
<event>
 7    0  0.4793433E-002  0.4458126E+03  0.7546771E-02  0.1028978E+00
         21   -1    0    0  502  501  0.00000000000E+00  0.00000000000E+00  0.47806508528E+03  0.47806508528E+03  0.00000000000E+00 0.  1.
         21   -1    0    0  501  502 -0.00000000000E+00 -0.00000000000E+00 -0.10393400262E+03  0.10393400262E+03  0.00000000000E+00 0.  1.
      99926    2    1    2    0    0  0.00000000000E+00  0.35527136788E-14  0.37413108266E+03  0.58199908789E+03  0.44581259661E+03 0.  0.
      99925    2    3    3    0    0  0.92051810958E+02 -0.15713807887E+02  0.17690328134E+03  0.33047021604E+03  0.26305005813E+03 0.  0.
         25    1    4    4    0    0  0.47195188428E+02  0.31802012977E+02  0.76656207232E+02  0.15736084662E+03  0.12509000000E+03 0.  0.
         25    1    4    4    0    0  0.44856622529E+02 -0.47515820864E+02  0.10024707410E+03  0.17310936943E+03  0.12509000000E+03 0.  0.
         25    1    3    3    0    0 -0.92051810958E+02  0.15713807887E+02  0.19722780133E+03  0.25152887185E+03  0.12509000000E+03 0.  0.
<mgrwt>
<rscale>  2 0.44581260E+03</rscale>
<asrwt>0</asrwt>
<pdfrwt beam="1">  1       21 0.70303688E-01 0.44581260E+03</pdfrwt>
<pdfrwt beam="2">  1       21 0.15284412E-01 0.44581260E+03</pdfrwt>
<totfact> 0.64347748E+04</totfact>
</mgrwt>
</event>
<event>
 7    0  0.4793433E-002  0.4524469E+03  0.7546771E-02  0.1026995E+00
         21   -1    0    0  502  501  0.00000000000E+00  0.00000000000E+00  0.11024067479E+03  0.11024067479E+03  0.00000000000E+00 0.  1.
         21   -1    0    0  501  502 -0.00000000000E+00 -0.00000000000E+00 -0.46423028003E+03  0.46423028003E+03  0.00000000000E+00 0.  1.
      99926    2    1    2    0    0  0.00000000000E+00  0.00000000000E+00 -0.35398960524E+03  0.57447095482E+03  0.45244694420E+03 0.  0.
      99925    2    3    3    0    0  0.23930431604E+02 -0.54396878292E+02 -0.34195782254E+03  0.43546031559E+03  0.26298069917E+03 0.  0.
         25    1    4    4    0    0  0.34044875916E+02 -0.78479846433E+01 -0.12328796501E+03  0.17907561212E+03  0.12509000000E+03 0.  0.
         25    1    3    3    0    0 -0.23930431604E+02  0.54396878292E+02 -0.12031782702E+02  0.13901063923E+03  0.12509000000E+03 0.  0.
         25    1    4    4    0    0 -0.10114444312E+02 -0.46548893649E+02 -0.21866985752E+03  0.25638470347E+03  0.12509000000E+03 0.  0.
<mgrwt>
<rscale>  2 0.45244694E+03</rscale>
<asrwt>0</asrwt>
<pdfrwt beam="1">  1       21 0.16211864E-01 0.45244694E+03</pdfrwt>
<pdfrwt beam="2">  1       21 0.68269158E-01 0.45244694E+03</pdfrwt>
<totfact> 0.61510129E+04</totfact>
</mgrwt>
</event>
<event>
 7    0  0.4793433E-002  0.4736083E+03  0.7546771E-02  0.1020907E+00
         21   -1    0    0  502  501  0.00000000000E+00  0.00000000000E+00  0.18195902996E+03  0.18195902996E+03  0.00000000000E+00 0. -1.
         21   -1    0    0  501  502 -0.00000000000E+00 -0.00000000000E+00 -0.30818036157E+03  0.30818036157E+03  0.00000000000E+00 0. -1.
      99926    2    1    2    0    0  0.14210854715E-13 -0.71054273576E-14 -0.12622133161E+03  0.49013939153E+03  0.47360827545E+03 0.  0.
      99925    2    3    3    0    0  0.57570593794E+02 -0.36333772769E+02  0.36329429703E+02  0.27402651728E+03  0.26293761313E+03 0.  0.
         25    1    4    4    0    0  0.41448044404E+02 -0.32320607359E+02  0.55109055558E+02  0.14644820979E+03  0.12509000000E+03 0.  0.
         25    1    4    4    0    0  0.16122549390E+02 -0.40131654094E+01 -0.18779625855E+02  0.12757830749E+03  0.12509000000E+03 0.  0.
         25    1    3    3    0    0 -0.57570593794E+02  0.36333772769E+02 -0.16255076132E+03  0.21611287425E+03  0.12509000000E+03 0.  0.
<mgrwt>
<rscale>  2 0.47360828E+03</rscale>
<asrwt>0</asrwt>
<pdfrwt beam="1">  1       21 0.26758681E-01 0.47360828E+03</pdfrwt>
<pdfrwt beam="2">  1       21 0.45320641E-01 0.47360828E+03</pdfrwt>
<totfact> 0.57063853E+04</totfact>
</mgrwt>
</event>
<event>
 7    0  0.4793433E-002  0.4567949E+03  0.7546771E-02  0.1025715E+00
         21   -1    0    0  502  501  0.00000000000E+00  0.00000000000E+00  0.68745984037E+03  0.68745984037E+03  0.00000000000E+00 0. -1.
         21   -1    0    0  501  502 -0.00000000000E+00 -0.00000000000E+00 -0.75881377473E+02  0.75881377473E+02  0.00000000000E+00 0. -1.
      99926    2    1    2    0    0 -0.35527136788E-14  0.14210854715E-13  0.61157846290E+03  0.76334121784E+03  0.45679491961E+03 0.  0.
      99925    2    3    3    0    0  0.86905083794E+01 -0.11379531669E+03  0.39393284976E+03  0.48758404195E+03  0.26368581458E+03 0.  0.
         25    1    4    4    0    0 -0.23159909708E+02 -0.88868679270E+02  0.19653162030E+03  0.25041207928E+03  0.12509000000E+03 0.  0.
         25    1    3    3    0    0 -0.86905083794E+01  0.11379531669E+03  0.21764561314E+03  0.27575717589E+03  0.12509000000E+03 0.  0.
         25    1    4    4    0    0  0.31850418087E+02 -0.24926637418E+02  0.19740122946E+03  0.23717196267E+03  0.12509000000E+03 0.  0.
<mgrwt>
<rscale>  2 0.45679492E+03</rscale>
<asrwt>0</asrwt>
<pdfrwt beam="1">  1       21 0.10109703E+00 0.45679492E+03</pdfrwt>
<pdfrwt beam="2">  1       21 0.11159026E-01 0.45679492E+03</pdfrwt>
<totfact> 0.48896114E+04</totfact>
</mgrwt>
</event>
<event>
 7    0  0.4793433E-002  0.4547162E+03  0.7546771E-02  0.1026325E+00
         21   -1    0    0  502  501  0.00000000000E+00  0.00000000000E+00  0.70943095331E+03  0.70943095331E+03  0.00000000000E+00 0.  1.
         21   -1    0    0  501  502 -0.00000000000E+00 -0.00000000000E+00 -0.72863609634E+02  0.72863609634E+02  0.00000000000E+00 0.  1.
      99926    2    1    2    0    0  0.00000000000E+00  0.00000000000E+00  0.63656734368E+03  0.78229456295E+03  0.45471617541E+03 0.  0.
      99925    2    3    3    0    0  0.65696509155E+02 -0.28824056042E+02  0.25069365110E+03  0.37035661587E+03  0.26300163249E+03 0.  0.
         25    1    4    4    0    0  0.73396431058E+02 -0.59652879764E+01  0.12960139565E+03  0.19459355233E+03  0.12509000000E+03 0.  0.
         25    1    3    3    0    0 -0.65696509155E+02  0.28824056042E+02  0.38587369258E+03  0.41193794708E+03  0.12509000000E+03 0.  0.
         25    1    4    4    0    0 -0.76999219024E+01 -0.22858768066E+02  0.12109225545E+03  0.17576306354E+03  0.12509000000E+03 0.  0.
<mgrwt>
<rscale>  2 0.45471618E+03</rscale>
<asrwt>0</asrwt>
<pdfrwt beam="1">  1       21 0.10432808E+00 0.45471618E+03</pdfrwt>
<pdfrwt beam="2">  1       21 0.10715237E-01 0.45471618E+03</pdfrwt>
<totfact> 0.48741657E+04</totfact>
</mgrwt>
</event>
<event>
 7    0  0.4793433E-002  0.4536763E+03  0.7546771E-02  0.1026631E+00
         21   -1    0    0  502  501  0.00000000000E+00  0.00000000000E+00  0.76848891674E+03  0.76848891674E+03  0.00000000000E+00 0. -1.
         21   -1    0    0  501  502 -0.00000000000E+00 -0.00000000000E+00 -0.66956769425E+02  0.66956769425E+02  0.00000000000E+00 0. -1.
      99926    2    1    2    0    0 -0.17763568394E-14  0.14210854715E-13  0.70153214731E+03  0.83544568617E+03  0.45367625110E+03 0.  0.
      99925    2    3    3    0    0 -0.12471233658E+02  0.10256078469E+03  0.36166718584E+03  0.45884251788E+03  0.26279089915E+03 0.  0.
         25    1    4    4    0    0 -0.41352074094E+02  0.48125520566E+02  0.14991444460E+03  0.20529955811E+03  0.12509000000E+03 0.  0.
         25    1    3    3    0    0  0.12471233658E+02 -0.10256078469E+03  0.33986496148E+03  0.37660316829E+03  0.12509000000E+03 0.  0.
         25    1    4    4    0    0  0.28880840436E+02  0.54435264122E+02  0.21175274124E+03  0.25354295977E+03  0.12509000000E+03 0.  0.
<mgrwt>
<rscale>  2 0.45367625E+03</rscale>
<asrwt>0</asrwt>
<pdfrwt beam="1">  1       21 0.11301307E+00 0.45367625E+03</pdfrwt>
<pdfrwt beam="2">  1       21 0.98465842E-02 0.45367625E+03</pdfrwt>
<totfact> 0.46579509E+04</totfact>
</mgrwt>
</event>
<event>
 7    0  0.4793433E-002  0.4599825E+03  0.7546771E-02  0.1024786E+00
         21   -1    0    0  502  501  0.00000000000E+00  0.00000000000E+00  0.51487420622E+03  0.51487420622E+03  0.00000000000E+00 0.  1.
         21   -1    0    0  501  502 -0.00000000000E+00 -0.00000000000E+00 -0.10273572959E+03  0.10273572959E+03  0.00000000000E+00 0.  1.
      99926    2    1    2    0    0  0.00000000000E+00 -0.71054273576E-14  0.41213847663E+03  0.61760993580E+03  0.45998250932E+03 0.  0.
      99925    2    3    3    0    0 -0.42789905875E+02 -0.37372667337E+02  0.39669709932E+03  0.47935785972E+03  0.26303550474E+03 0.  0.
         25    1    3    3    0    0  0.42789905875E+02  0.37372667337E+02  0.15441377310E+02  0.13825207609E+03  0.12509000000E+03 0.  0.
         25    1    4    4    0    0  0.12794856718E+02 -0.37345765547E+02  0.21526058764E+03  0.25207745487E+03  0.12509000000E+03 0.  0.
         25    1    4    4    0    0 -0.55584762593E+02 -0.26901789787E-01  0.18143651168E+03  0.22728040485E+03  0.12509000000E+03 0.  0.
<mgrwt>
<rscale>  2 0.45998251E+03</rscale>
<asrwt>0</asrwt>
<pdfrwt beam="1">  1       21 0.75716794E-01 0.45998251E+03</pdfrwt>
<pdfrwt beam="2">  1       21 0.15108196E-01 0.45998251E+03</pdfrwt>
<totfact> 0.55395104E+04</totfact>
</mgrwt>
</event>
<event>
 7    0  0.4793433E-002  0.4522955E+03  0.7546771E-02  0.1027040E+00
         21   -1    0    0  502  501  0.00000000000E+00  0.00000000000E+00  0.11141858001E+03  0.11141858001E+03  0.00000000000E+00 0.  1.
         21   -1    0    0  501  502 -0.00000000000E+00 -0.00000000000E+00 -0.45901507068E+03  0.45901507068E+03  0.00000000000E+00 0.  1.
      99926    2    1    2    0    0  0.53290705182E-14  0.14210854715E-13 -0.34759649067E+03  0.57043365069E+03  0.45229551128E+03 0.  0.
      99925    2    3    3    0    0  0.15903385257E+02  0.10521995936E+03 -0.25726341112E+03  0.38299904644E+03  0.26302024517E+03 0.  0.
         25    1    4    4    0    0  0.35022675779E+02  0.69442850201E+02 -0.10017272789E+03  0.17813191959E+03  0.12509000000E+03 0.  0.
         25    1    4    4    0    0 -0.19119290522E+02  0.35777109155E+02 -0.15709068323E+03  0.20486712686E+03  0.12509000000E+03 0.  0.
         25    1    3    3    0    0 -0.15903385257E+02 -0.10521995936E+03 -0.90333079549E+02  0.18743460425E+03  0.12509000000E+03 0.  0.
<mgrwt>
<rscale>  2 0.45229551E+03</rscale>
<asrwt>0</asrwt>
<pdfrwt beam="1">  1       21 0.16385085E-01 0.45229551E+03</pdfrwt>
<pdfrwt beam="2">  1       21 0.67502216E-01 0.45229551E+03</pdfrwt>
<totfact> 0.61848217E+04</totfact>
</mgrwt>
</event>
<event>
 7    0  0.4793433E-002  0.4637996E+03  0.7546771E-02  0.1023685E+00
         21   -1    0    0  502  501  0.00000000000E+00  0.00000000000E+00  0.32665822337E+03  0.32665822337E+03  0.00000000000E+00 0.  1.
         21   -1    0    0  501  502 -0.00000000000E+00 -0.00000000000E+00 -0.16462934041E+03  0.16462934041E+03  0.00000000000E+00 0.  1.
      99926    2    1    2    0    0  0.35527136788E-14 -0.71054273576E-14  0.16202888295E+03  0.49128756378E+03  0.46379964577E+03 0.  0.
      99925    2    3    3    0    0 -0.29033795935E+02 -0.36424311220E+02  0.21959827102E+03  0.34592101227E+03  0.26318862883E+03 0.  0.
         25    1    3    3    0    0  0.29033795935E+02  0.36424311220E+02 -0.57569388067E+02  0.14536655151E+03  0.12509000000E+03 0.  0.
         25    1    4    4    0    0  0.11696710967E+02 -0.43319687339E+02  0.85977005521E+02  0.15828127475E+03  0.12509000000E+03 0.  0.
         25    1    4    4    0    0 -0.40730506902E+02  0.68953761192E+01  0.13362126550E+03  0.18763973752E+03  0.12509000000E+03 0.  0.
<mgrwt>
<rscale>  2 0.46379965E+03</rscale>
<asrwt>0</asrwt>
<pdfrwt beam="1">  1       21 0.48037974E-01 0.46379965E+03</pdfrwt>
<pdfrwt beam="2">  1       21 0.24210197E-01 0.46379965E+03</pdfrwt>
<totfact> 0.61478991E+04</totfact>
</mgrwt>
</event>
<event>
 7    0  0.4793433E-002  0.4537297E+03  0.7546771E-02  0.1026616E+00
         21   -1    0    0  502  501  0.00000000000E+00  0.00000000000E+00  0.27651119444E+02  0.27651119444E+02  0.00000000000E+00 0. -1.
         21   -1    0    0  501  502 -0.00000000000E+00 -0.00000000000E+00 -0.18613224831E+04  0.18613224831E+04  0.00000000000E+00 0. -1.
      99926    2    1    2    0    0  0.00000000000E+00  0.00000000000E+00 -0.18336713637E+04  0.18889736025E+04  0.45372965653E+03 0.  0.
      99925    2    3    3    0    0  0.10219523007E+02  0.34686928540E+02 -0.15963560113E+04  0.16182824386E+04  0.26301694750E+03 0.  0.
         25    1    4    4    0    0 -0.11887908138E+02 -0.33088471689E+01 -0.59086200455E+03  0.60408417241E+03  0.12509000000E+03 0.  0.
         25    1    3    3    0    0 -0.10219523007E+02 -0.34686928540E+02 -0.23731535234E+03  0.27069116391E+03  0.12509000000E+03 0.  0.
         25    1    4    4    0    0  0.22107431145E+02  0.37995775709E+02 -0.10054940068E+04  0.10141982662E+04  0.12509000000E+03 0.  0.
<mgrwt>
<rscale>  2 0.45372966E+03</rscale>
<asrwt>0</asrwt>
<pdfrwt beam="1">  1       21 0.40663401E-02 0.45372966E+03</pdfrwt>
<pdfrwt beam="2">  1       21 0.27372396E+00 0.45372966E+03</pdfrwt>
<totfact> 0.15763146E+04</totfact>
</mgrwt>
</event>
<event>
 7    0  0.4793433E-002  0.4662731E+03  0.7546771E-02  0.1022977E+00
         21   -1    0    0  502  501  0.00000000000E+00  0.00000000000E+00  0.13865267244E+03  0.13865267244E+03  0.00000000000E+00 0. -1.
         21   -1    0    0  501  502 -0.00000000000E+00 -0.00000000000E+00 -0.39200575656E+03  0.39200575656E+03  0.00000000000E+00 0. -1.
      99926    2    1    2    0    0  0.00000000000E+00 -0.14210854715E-13 -0.25335308411E+03  0.53065842900E+03  0.46627307775E+03 0.  0.
      99925    2    3    3    0    0 -0.59941455415E+02 -0.95309097907E+02 -0.10032692432E+03  0.30319125356E+03  0.26302593460E+03 0.  0.
         25    1    3    3    0    0  0.59941455415E+02  0.95309097907E+02 -0.15302615979E+03  0.22746717544E+03  0.12509000000E+03 0.  0.
         25    1    4    4    0    0 -0.55857771515E+02 -0.83300504980E+02 -0.53508020780E+02  0.16902568194E+03  0.12509000000E+03 0.  0.
         25    1    4    4    0    0 -0.40836839000E+01 -0.12008592927E+02 -0.46818903543E+02  0.13416557162E+03  0.12509000000E+03 0.  0.
<mgrwt>
<rscale>  2 0.46627308E+03</rscale>
<asrwt>0</asrwt>
<pdfrwt beam="1">  1       21 0.20390099E-01 0.46627308E+03</pdfrwt>
<pdfrwt beam="2">  1       21 0.57647906E-01 0.46627308E+03</pdfrwt>
<totfact> 0.57819462E+04</totfact>
</mgrwt>
</event>
<event>
 7    0  0.4793433E-002  0.4490097E+03  0.7546771E-02  0.1028018E+00
         21   -1    0    0  502  501  0.00000000000E+00  0.00000000000E+00  0.29466544388E+02  0.29466544388E+02  0.00000000000E+00 0.  1.
         21   -1    0    0  501  502 -0.00000000000E+00 -0.00000000000E+00 -0.17104965188E+04  0.17104965188E+04  0.00000000000E+00 0.  1.
      99926    2    1    2    0    0  0.00000000000E+00 -0.71054273576E-14 -0.16810299744E+04  0.17399630632E+04  0.44900967294E+03 0.  0.
      99925    2    3    3    0    0  0.60226592698E+02 -0.37788882289E+02 -0.75259669269E+03  0.80044664034E+03  0.26316876732E+03 0.  0.
         25    1    3    3    0    0 -0.60226592698E+02  0.37788882289E+02 -0.92843328175E+03  0.93951642287E+03  0.12509000000E+03 0.  0.
         25    1    4    4    0    0  0.64378760593E+02  0.32546375990E+01 -0.40264590244E+03  0.42652836756E+03  0.12509000000E+03 0.  0.
         25    1    4    4    0    0 -0.41521678954E+01 -0.41043519888E+02 -0.34995079025E+03  0.37391827278E+03  0.12509000000E+03 0.  0.
<mgrwt>
<rscale>  2 0.44900967E+03</rscale>
<asrwt>0</asrwt>
<pdfrwt beam="1">  1       21 0.43333147E-02 0.44900967E+03</pdfrwt>
<pdfrwt beam="2">  1       21 0.25154365E+00 0.44900967E+03</pdfrwt>
<totfact> 0.19325353E+04</totfact>
</mgrwt>
</event>
<event>
 7    0  0.4793433E-002  0.4277918E+03  0.7546771E-02  0.1034560E+00
         21   -1    0    0  502  501  0.00000000000E+00  0.00000000000E+00  0.10434369307E+03  0.10434369307E+03  0.00000000000E+00 0.  1.
         21   -1    0    0  501  502 -0.00000000000E+00 -0.00000000000E+00 -0.43846886959E+03  0.43846886959E+03  0.00000000000E+00 0.  1.
      99926    2    1    2    0    0 -0.71054273576E-14  0.00000000000E+00 -0.33412517652E+03  0.54281256266E+03  0.42779182390E+03 0.  0.
      99925    2    3    3    0    0 -0.50491666705E+02  0.65766716343E+01 -0.30281957586E+03  0.40417559159E+03  0.26280325776E+03 0.  0.
         25    1    4    4    0    0 -0.28462410500E+02  0.34611371455E+02 -0.11509063917E+03  0.17578799495E+03  0.12509000000E+03 0.  0.
         25    1    3    3    0    0  0.50491666705E+02 -0.65766716343E+01 -0.31305600658E+02  0.13863697108E+03  0.12509000000E+03 0.  0.
         25    1    4    4    0    0 -0.22029256205E+02 -0.28034699821E+02 -0.18772893669E+03  0.22838759663E+03  0.12509000000E+03 0.  0.
<mgrwt>
<rscale>  2 0.42779182E+03</rscale>
<asrwt>0</asrwt>
<pdfrwt beam="1">  1       21 0.15344661E-01 0.42779182E+03</pdfrwt>
<pdfrwt beam="2">  1       21 0.64480716E-01 0.42779182E+03</pdfrwt>
<totfact> 0.77787235E+04</totfact>
</mgrwt>
</event>
<event>
 7    0  0.4793433E-002  0.4524759E+03  0.7546771E-02  0.1026986E+00
         21   -1    0    0  502  501  0.00000000000E+00  0.00000000000E+00  0.21843424081E+03  0.21843424081E+03  0.00000000000E+00 0.  1.
         21   -1    0    0  501  502 -0.00000000000E+00 -0.00000000000E+00 -0.23432045045E+03  0.23432045045E+03  0.00000000000E+00 0.  1.
      99926    2    1    2    0    0  0.00000000000E+00 -0.14210854715E-13 -0.15886209645E+02  0.45275469126E+03  0.45247589859E+03 0.  0.
      99925    2    3    3    0    0  0.33191284629E+02  0.88381212149E+02 -0.68020435414E+02  0.28759299584E+03  0.26300199921E+03 0.  0.
         25    1    4    4    0    0  0.52459872421E+02  0.63523729474E+02 -0.26630262232E+02  0.15213146087E+03  0.12509000000E+03 0.  0.
         25    1    4    4    0    0 -0.19268587792E+02  0.24857482675E+02 -0.41390173183E+02  0.13546153497E+03  0.12509000000E+03 0.  0.
         25    1    3    3    0    0 -0.33191284629E+02 -0.88381212149E+02  0.52134225769E+02  0.16516169542E+03  0.12509000000E+03 0.  0.
<mgrwt>
<rscale>  2 0.45247590E+03</rscale>
<asrwt>0</asrwt>
<pdfrwt beam="1">  1       21 0.32122683E-01 0.45247590E+03</pdfrwt>
<pdfrwt beam="2">  1       21 0.34458890E-01 0.45247590E+03</pdfrwt>
<totfact> 0.70112033E+04</totfact>
</mgrwt>
</event>
<event>
 7    0  0.4793433E-002  0.4505776E+03  0.7546771E-02  0.1027550E+00
         21   -1    0    0  502  501  0.00000000000E+00  0.00000000000E+00  0.22247339349E+04  0.22247339349E+04  0.00000000000E+00 0.  1.
         21   -1    0    0  501  502 -0.00000000000E+00 -0.00000000000E+00 -0.22813986476E+02  0.22813986476E+02  0.00000000000E+00 0.  1.
      99926    2    1    2    0    0 -0.71054273576E-14  0.00000000000E+00  0.22019199484E+04  0.22475479213E+04  0.45057762884E+03 0.  0.
      99925    2    3    3    0    0 -0.48972074810E+02 -0.75497544916E+02  0.10853482623E+04  0.11203931043E+04  0.26306218693E+03 0.  0.
         25    1    4    4    0    0 -0.42643249748E+02 -0.12850102053E+02  0.42093697507E+03  0.44138307280E+03  0.12509000000E+03 0.  0.
         25    1    4    4    0    0 -0.63288250617E+01 -0.62647442863E+02  0.66441128725E+03  0.67901003148E+03  0.12509000000E+03 0.  0.
         25    1    3    3    0    0  0.48972074810E+02  0.75497544916E+02  0.11165716861E+04  0.11271548171E+04  0.12509000000E+03 0.  0.
<mgrwt>
<rscale>  2 0.45057763E+03</rscale>
<asrwt>0</asrwt>
<pdfrwt beam="1">  1       21 0.32716661E+00 0.45057763E+03</pdfrwt>
<pdfrwt beam="2">  1       21 0.33549995E-02 0.45057763E+03</pdfrwt>
<totfact> 0.10426382E+04</totfact>
</mgrwt>
</event>
<event>
 7    0  0.4793433E-002  0.4626627E+03  0.7546771E-02  0.1024012E+00
         21   -1    0    0  502  501  0.00000000000E+00  0.00000000000E+00  0.75326890375E+02  0.75326890375E+02  0.00000000000E+00 0.  1.
         21   -1    0    0  501  502 -0.00000000000E+00 -0.00000000000E+00 -0.71042614962E+03  0.71042614962E+03  0.00000000000E+00 0.  1.
      99926    2    1    2    0    0  0.71054273576E-14  0.88817841970E-15 -0.63509925924E+03  0.78575303999E+03  0.46266269654E+03 0.  0.
      99925    2    3    3    0    0  0.56349141471E+02 -0.45780622170E+01 -0.57736904458E+03  0.63683537756E+03  0.26269392852E+03 0.  0.
         25    1    3    3    0    0 -0.56349141471E+02  0.45780622170E+01 -0.57730214662E+02  0.14891766243E+03  0.12509000000E+03 0.  0.
         25    1    4    4    0    0  0.94200357735E-01  0.21806613309E+01 -0.34421305304E+03  0.36624431482E+03  0.12509000000E+03 0.  0.
         25    1    4    4    0    0  0.56254941113E+02 -0.67587235479E+01 -0.23315599154E+03  0.27059106274E+03  0.12509000000E+03 0.  0.
<mgrwt>
<rscale>  2 0.46266270E+03</rscale>
<asrwt>0</asrwt>
<pdfrwt beam="1">  1       21 0.11077484E-01 0.46266270E+03</pdfrwt>
<pdfrwt beam="2">  1       21 0.10447444E+00 0.46266270E+03</pdfrwt>
<totfact> 0.45653431E+04</totfact>
</mgrwt>
</event>
<event>
 7    0  0.4793433E-002  0.4484094E+03  0.7546771E-02  0.1028197E+00
         21   -1    0    0  502  501  0.00000000000E+00  0.00000000000E+00  0.54552820434E+02  0.54552820434E+02  0.00000000000E+00 0. -1.
         21   -1    0    0  501  502 -0.00000000000E+00 -0.00000000000E+00 -0.92145078707E+03  0.92145078707E+03  0.00000000000E+00 0. -1.
      99926    2    1    2    0    0  0.00000000000E+00  0.00000000000E+00 -0.86689796664E+03  0.97600360751E+03  0.44840936353E+03 0.  0.
      99925    2    3    3    0    0  0.93120725214E+02  0.50678804308E+02 -0.57434440671E+03  0.64063082358E+03  0.26324236729E+03 0.  0.
         25    1    4    4    0    0  0.82180559432E+02  0.17550238566E+02 -0.25995557014E+03  0.30047639137E+03  0.12509000000E+03 0.  0.
         25    1    4    4    0    0  0.10940165782E+02  0.33128565742E+02 -0.31438883657E+03  0.34015443221E+03  0.12509000000E+03 0.  0.
         25    1    3    3    0    0 -0.93120725214E+02 -0.50678804308E+02 -0.29255355993E+03  0.33537278393E+03  0.12509000000E+03 0.  0.
<mgrwt>
<rscale>  2 0.44840936E+03</rscale>
<asrwt>0</asrwt>
<pdfrwt beam="1">  1       21 0.80224735E-02 0.44840936E+03</pdfrwt>
<pdfrwt beam="2">  1       21 0.13550747E+00 0.44840936E+03</pdfrwt>
<totfact> 0.42239948E+04</totfact>
</mgrwt>
</event>
<event>
 7    0  0.4793433E-002  0.4554050E+03  0.7546771E-02  0.1026122E+00
         21   -1    0    0  502  501  0.00000000000E+00  0.00000000000E+00  0.20215266013E+03  0.20215266013E+03  0.00000000000E+00 0. -1.
         21   -1    0    0  501  502 -0.00000000000E+00 -0.00000000000E+00 -0.25648153259E+03  0.25648153259E+03  0.00000000000E+00 0. -1.
      99926    2    1    2    0    0  0.00000000000E+00  0.00000000000E+00 -0.54328872461E+02  0.45863419272E+03  0.45540498059E+03 0.  0.
      99925    2    3    3    0    0 -0.41718458854E+02 -0.33755769894E+02 -0.13477078410E+03  0.30052571395E+03  0.26319699597E+03 0.  0.
         25    1    3    3    0    0  0.41718458854E+02  0.33755769894E+02  0.80441911636E+02  0.15810847877E+03  0.12509000000E+03 0.  0.
         25    1    4    4    0    0  0.12471349921E+02  0.81061552890E+01 -0.60790603985E+02  0.13987226299E+03  0.12509000000E+03 0.  0.
         25    1    4    4    0    0 -0.54189808775E+02 -0.41861925183E+02 -0.73980180112E+02  0.16065345096E+03  0.12509000000E+03 0.  0.
<mgrwt>
<rscale>  2 0.45540498E+03</rscale>
<asrwt>0</asrwt>
<pdfrwt beam="1">  1       21 0.29728332E-01 0.45540498E+03</pdfrwt>
<pdfrwt beam="2">  1       21 0.37717873E-01 0.45540498E+03</pdfrwt>
<totfact> 0.68060082E+04</totfact>
</mgrwt>
</event>
<event>
 7    0  0.4793433E-002  0.4207932E+03  0.7546771E-02  0.1036808E+00
         21   -1    0    0  502  501  0.00000000000E+00  0.00000000000E+00  0.10073328747E+03  0.10073328747E+03  0.00000000000E+00 0.  1.
         21   -1    0    0  501  502 -0.00000000000E+00 -0.00000000000E+00 -0.43944487210E+03  0.43944487210E+03  0.00000000000E+00 0.  1.
      99926    2    1    2    0    0  0.00000000000E+00  0.00000000000E+00 -0.33871158462E+03  0.54017815957E+03  0.42079318735E+03 0.  0.
      99925    2    3    3    0    0 -0.52229413893E+02 -0.54874711899E+02 -0.20393111932E+03  0.34130023820E+03  0.26298061808E+03 0.  0.
         25    1    3    3    0    0  0.52229413893E+02  0.54874711899E+02 -0.13478046530E+03  0.19887792137E+03  0.12509000000E+03 0.  0.
         25    1    4    4    0    0 -0.60031820277E+02 -0.38172042702E+02 -0.81908833867E+02  0.16558227398E+03  0.12509000000E+03 0.  0.
         25    1    4    4    0    0  0.78024063842E+01 -0.16702669197E+02 -0.12202228546E+03  0.17571796423E+03  0.12509000000E+03 0.  0.
<mgrwt>
<rscale>  2 0.42079319E+03</rscale>
<asrwt>0</asrwt>
<pdfrwt beam="1">  1       21 0.14813718E-01 0.42079319E+03</pdfrwt>
<pdfrwt beam="2">  1       21 0.64624247E-01 0.42079319E+03</pdfrwt>
<totfact> 0.82746782E+04</totfact>
</mgrwt>
</event>
<event>
 7    0  0.4793433E-002  0.4614012E+03  0.7546771E-02  0.1024376E+00
         21   -1    0    0  502  501  0.00000000000E+00  0.00000000000E+00  0.13433028622E+04  0.13433028622E+04  0.00000000000E+00 0.  1.
         21   -1    0    0  501  502 -0.00000000000E+00 -0.00000000000E+00 -0.39620818363E+02  0.39620818363E+02  0.00000000000E+00 0.  1.
      99926    2    1    2    0    0  0.14210854715E-13  0.35527136788E-14  0.13036820438E+04  0.13829236805E+04  0.46140116475E+03 0.  0.
      99925    2    3    3    0    0 -0.84720634348E+02 -0.16995325768E+02  0.56950394696E+03  0.63316944548E+03  0.26287330429E+03 0.  0.
         25    1    4    4    0    0 -0.23346647188E+02  0.27981642856E+02  0.26608608601E+03  0.29627242791E+03  0.12509000000E+03 0.  0.
         25    1    3    3    0    0  0.84720634348E+02  0.16995325768E+02  0.73417809683E+03  0.74975423503E+03  0.12509000000E+03 0.  0.
         25    1    4    4    0    0 -0.61373987160E+02 -0.44976968623E+02  0.30341786095E+03  0.33689701758E+03  0.12509000000E+03 0.  0.
<mgrwt>
<rscale>  2 0.46140116E+03</rscale>
<asrwt>0</asrwt>
<pdfrwt beam="1">  1       21 0.19754451E+00 0.46140116E+03</pdfrwt>
<pdfrwt beam="2">  1       21 0.58265918E-02 0.46140116E+03</pdfrwt>
<totfact> 0.25498344E+04</totfact>
</mgrwt>
</event>
<event>
 7    0  0.4793433E-002  0.4455260E+03  0.7546771E-02  0.1029065E+00
         21   -1    0    0  502  501  0.00000000000E+00  0.00000000000E+00  0.68422266278E+03  0.68422266278E+03  0.00000000000E+00 0. -1.
         21   -1    0    0  501  502 -0.00000000000E+00 -0.00000000000E+00 -0.72525169961E+02  0.72525169961E+02  0.00000000000E+00 0. -1.
      99926    2    1    2    0    0 -0.71054273576E-14 -0.35527136788E-14  0.61169749282E+03  0.75674783274E+03  0.44552604821E+03 0.  0.
      99925    2    3    3    0    0 -0.60504739635E+02 -0.20107850572E+02  0.52800418356E+03  0.59329378021E+03  0.26295235806E+03 0.  0.
         25    1    4    4    0    0  0.48031537165E+01  0.43492617396E+01  0.28340651468E+03  0.30985278283E+03  0.12509000000E+03 0.  0.
         25    1    4    4    0    0 -0.65307893352E+02 -0.24457112312E+02  0.24459766888E+03  0.28344099738E+03  0.12509000000E+03 0.  0.
         25    1    3    3    0    0  0.60504739635E+02  0.20107850572E+02  0.83693309259E+02  0.16345405253E+03  0.12509000000E+03 0.  0.
<mgrwt>
<rscale>  2 0.44552605E+03</rscale>
<asrwt>0</asrwt>
<pdfrwt beam="1">  1       21 0.10062098E+00 0.44552605E+03</pdfrwt>
<pdfrwt beam="2">  1       21 0.10665467E-01 0.44552605E+03</pdfrwt>
<totfact> 0.53820656E+04</totfact>
</mgrwt>
</event>
<event>
 7    0  0.4793433E-002  0.4746138E+03  0.7546771E-02  0.1020626E+00
         21   -1    0    0  502  501  0.00000000000E+00  0.00000000000E+00  0.24442633954E+03  0.24442633954E+03  0.00000000000E+00 0. -1.
         21   -1    0    0  501  502 -0.00000000000E+00 -0.00000000000E+00 -0.23039481870E+03  0.23039481870E+03  0.00000000000E+00 0. -1.
      99926    2    1    2    0    0  0.28421709430E-13  0.00000000000E+00  0.14031520848E+02  0.47482115824E+03  0.47461378903E+03 0.  0.
      99925    2    3    3    0    0 -0.13061433335E+03  0.24582572738E+01  0.87615238667E+01  0.29387523241E+03  0.26309644775E+03 0.  0.
         25    1    4    4    0    0 -0.34744298791E+02  0.20411044550E+01  0.34108420534E+02  0.13424688025E+03  0.12509000000E+03 0.  0.
         25    1    3    3    0    0  0.13061433335E+03 -0.24582572738E+01  0.52699969809E+01  0.18094592583E+03  0.12509000000E+03 0.  0.
         25    1    4    4    0    0 -0.95870034560E+02  0.41715281882E+00 -0.25346896668E+02  0.15962835216E+03  0.12509000000E+03 0.  0.
<mgrwt>
<rscale>  2 0.47461379E+03</rscale>
<asrwt>0</asrwt>
<pdfrwt beam="1">  1       21 0.35945050E-01 0.47461379E+03</pdfrwt>
<pdfrwt beam="2">  1       21 0.33881591E-01 0.47461379E+03</pdfrwt>
<totfact> 0.57567001E+04</totfact>
</mgrwt>
</event>
<event>
 7    0  0.4793433E-002  0.4514163E+03  0.7546771E-02  0.1027301E+00
         21   -1    0    0  502  501  0.00000000000E+00  0.00000000000E+00  0.11849562278E+03  0.11849562278E+03  0.00000000000E+00 0. -1.
         21   -1    0    0  501  502 -0.00000000000E+00 -0.00000000000E+00 -0.42992456501E+03  0.42992456501E+03  0.00000000000E+00 0. -1.
      99926    2    1    2    0    0 -0.35527136788E-14 -0.71054273576E-14 -0.31142894223E+03  0.54842018778E+03  0.45141634475E+03 0.  0.
      99925    2    3    3    0    0 -0.20160451475E+02 -0.54998329602E+02 -0.30935103798E+03  0.41027864498E+03  0.26305748757E+03 0.  0.
         25    1    4    4    0    0  0.80627634028E+01 -0.24417624626E+02 -0.97136076385E+02  0.16044984881E+03  0.12509000000E+03 0.  0.
         25    1    4    4    0    0 -0.28223214878E+02 -0.30580704976E+02 -0.21221496159E+03  0.24982879617E+03  0.12509000000E+03 0.  0.
         25    1    3    3    0    0  0.20160451475E+02  0.54998329602E+02 -0.20779042535E+01  0.13814154281E+03  0.12509000000E+03 0.  0.
<mgrwt>
<rscale>  2 0.45141634E+03</rscale>
<asrwt>0</asrwt>
<pdfrwt beam="1">  1       21 0.17425827E-01 0.45141634E+03</pdfrwt>
<pdfrwt beam="2">  1       21 0.63224201E-01 0.45141634E+03</pdfrwt>
<totfact> 0.63759762E+04</totfact>
</mgrwt>
</event>
<event>
 7    0  0.4793433E-002  0.4515192E+03  0.7546771E-02  0.1027270E+00
         21   -1    0    0  502  501  0.00000000000E+00  0.00000000000E+00  0.36656346253E+03  0.36656346253E+03  0.00000000000E+00 0. -1.
         21   -1    0    0  501  502 -0.00000000000E+00 -0.00000000000E+00 -0.13904111996E+03  0.13904111996E+03  0.00000000000E+00 0. -1.
      99926    2    1    2    0    0 -0.35527136788E-14  0.00000000000E+00  0.22752234257E+03  0.50560458248E+03  0.45151918836E+03 0.  0.
      99925    2    3    3    0    0 -0.41640677885E+01 -0.92773331795E+02  0.77660167221E+02  0.28943240515E+03  0.26289881138E+03 0.  0.
         25    1    4    4    0    0  0.29966136971E+02 -0.20871011043E+02  0.30302259892E+02  0.13378827871E+03  0.12509000000E+03 0.  0.
         25    1    4    4    0    0 -0.34130204759E+02 -0.71902320751E+02  0.47357907330E+02  0.15564412643E+03  0.12509000000E+03 0.  0.
         25    1    3    3    0    0  0.41640677885E+01  0.92773331795E+02  0.14986217535E+03  0.21617217733E+03  0.12509000000E+03 0.  0.
<mgrwt>
<rscale>  2 0.45151919E+03</rscale>
<asrwt>0</asrwt>
<pdfrwt beam="1">  1       21 0.53906392E-01 0.45151919E+03</pdfrwt>
<pdfrwt beam="2">  1       21 0.20447224E-01 0.45151919E+03</pdfrwt>
<totfact> 0.66702484E+04</totfact>
</mgrwt>
</event>
<event>
 7    0  0.4793433E-002  0.4262339E+03  0.7546771E-02  0.1035056E+00
         21   -1    0    0  502  501  0.00000000000E+00  0.00000000000E+00  0.18296604589E+04  0.18296604589E+04  0.00000000000E+00 0.  1.
         21   -1    0    0  501  502 -0.00000000000E+00 -0.00000000000E+00 -0.24823640333E+02  0.24823640333E+02  0.00000000000E+00 0.  1.
      99926    2    1    2    0    0  0.00000000000E+00  0.00000000000E+00  0.18048368186E+04  0.18544840993E+04  0.42623389431E+03 0.  0.
      99925    2    3    3    0    0  0.45422222290E+02  0.23182381324E+02  0.88064215759E+03  0.92046917400E+03  0.26293019887E+03 0.  0.
         25    1    4    4    0    0  0.49886577659E+02 -0.68933606317E+01  0.53186429249E+03  0.54869237536E+03  0.12509000000E+03 0.  0.
         25    1    3    3    0    0 -0.45422222290E+02 -0.23182381324E+02  0.92419466101E+03  0.93401492527E+03  0.12509000000E+03 0.  0.
         25    1    4    4    0    0 -0.44643553688E+01  0.30075741956E+02  0.34877786510E+03  0.37177679864E+03  0.12509000000E+03 0.  0.
<mgrwt>
<rscale>  2 0.42623389E+03</rscale>
<asrwt>0</asrwt>
<pdfrwt beam="1">  1       21 0.26906762E+00 0.42623389E+03</pdfrwt>
<pdfrwt beam="2">  1       21 0.36505366E-02 0.42623389E+03</pdfrwt>
<totfact> 0.20428899E+04</totfact>
</mgrwt>
</event>
<event>
 7    0  0.4793433E-002  0.4417913E+03  0.7546771E-02  0.1030199E+00
         21   -1    0    0  502  501  0.00000000000E+00  0.00000000000E+00  0.56125866377E+02  0.56125866377E+02  0.00000000000E+00 0. -1.
         21   -1    0    0  501  502 -0.00000000000E+00 -0.00000000000E+00 -0.86938308304E+03  0.86938308304E+03  0.00000000000E+00 0. -1.
      99926    2    1    2    0    0  0.14210854715E-13 -0.35527136788E-14 -0.81325721666E+03  0.92550894942E+03  0.44179125727E+03 0.  0.
      99925    2    3    3    0    0 -0.62526885436E+02  0.21118552584E+02 -0.67631905192E+03  0.72864561172E+03  0.26298548026E+03 0.  0.
         25    1    3    3    0    0  0.62526885436E+02 -0.21118552584E+02 -0.13693816475E+03  0.19686333770E+03  0.12509000000E+03 0.  0.
         25    1    4    4    0    0 -0.54792265554E+02  0.24135715633E+02 -0.43702723184E+03  0.45850303663E+03  0.12509000000E+03 0.  0.
         25    1    4    4    0    0 -0.77346198817E+01 -0.30171630492E+01 -0.23929182008E+03  0.27014257509E+03  0.12509000000E+03 0.  0.
<mgrwt>
<rscale>  2 0.44179126E+03</rscale>
<asrwt>0</asrwt>
<pdfrwt beam="1">  1       21 0.82538041E-02 0.44179126E+03</pdfrwt>
<pdfrwt beam="2">  1       21 0.12785045E+00 0.44179126E+03</pdfrwt>
<totfact> 0.46800118E+04</totfact>
</mgrwt>
</event>
<event>
 7    0  0.4793433E-002  0.4681668E+03  0.7546771E-02  0.1022439E+00
         21   -1    0    0  502  501  0.00000000000E+00  0.00000000000E+00  0.21437905357E+03  0.21437905357E+03  0.00000000000E+00 0.  1.
         21   -1    0    0  501  502 -0.00000000000E+00 -0.00000000000E+00 -0.25559886696E+03  0.25559886696E+03  0.00000000000E+00 0.  1.
      99926    2    1    2    0    0  0.11102230246E-14  0.00000000000E+00 -0.41219813389E+02  0.46997792052E+03  0.46816682151E+03 0.  0.
      99925    2    3    3    0    0  0.18097024163E+01 -0.11648476880E+03 -0.72665596585E+02  0.29617250701E+03  0.26242310987E+03 0.  0.
         25    1    4    4    0    0  0.29746040824E+02 -0.85055228198E+02 -0.51360578543E+02  0.16249503351E+03  0.12509000000E+03 0.  0.
         25    1    4    4    0    0 -0.27936338407E+02 -0.31429540603E+02 -0.21305018042E+02  0.13367747349E+03  0.12509000000E+03 0.  0.
         25    1    3    3    0    0 -0.18097024163E+01  0.11648476880E+03  0.31445783196E+02  0.17380541351E+03  0.12509000000E+03 0.  0.
<mgrwt>
<rscale>  2 0.46816682E+03</rscale>
<asrwt>0</asrwt>
<pdfrwt beam="1">  1       21 0.31526332E-01 0.46816682E+03</pdfrwt>
<pdfrwt beam="2">  1       21 0.37588069E-01 0.46816682E+03</pdfrwt>
<totfact> 0.60817530E+04</totfact>
</mgrwt>
</event>
<event>
 7    0  0.4793433E-002  0.4637956E+03  0.7546771E-02  0.1023686E+00
         21   -1    0    0  502  501  0.00000000000E+00  0.00000000000E+00  0.20817136336E+04  0.20817136336E+04  0.00000000000E+00 0.  1.
         21   -1    0    0  501  502 -0.00000000000E+00 -0.00000000000E+00 -0.25832848180E+02  0.25832848180E+02  0.00000000000E+00 0.  1.
      99926    2    1    2    0    0  0.00000000000E+00  0.00000000000E+00  0.20558807854E+04  0.21075464817E+04  0.46379561124E+03 0.  0.
      99925    2    3    3    0    0 -0.93684388779E+02 -0.45299614770E+02  0.10010610142E+04  0.10402503291E+04  0.26299956866E+03 0.  0.
         25    1    4    4    0    0 -0.83887183365E+02 -0.61073203704E+01  0.49944680063E+03  0.52169816336E+03  0.12509000000E+03 0.  0.
         25    1    3    3    0    0  0.93684388779E+02  0.45299614770E+02  0.10548197712E+04  0.10672961527E+04  0.12509000000E+03 0.  0.
         25    1    4    4    0    0 -0.97972054142E+01 -0.39192294399E+02  0.50161421360E+03  0.51855216571E+03  0.12509000000E+03 0.  0.
<mgrwt>
<rscale>  2 0.46379561E+03</rscale>
<asrwt>0</asrwt>
<pdfrwt beam="1">  1       21 0.30613424E+00 0.46379561E+03</pdfrwt>
<pdfrwt beam="2">  1       21 0.37989497E-02 0.46379561E+03</pdfrwt>
<totfact> 0.11244485E+04</totfact>
</mgrwt>
</event>
<event>
 7    0  0.4793433E-002  0.4815908E+03  0.7546771E-02  0.1018699E+00
         21   -1    0    0  502  501  0.00000000000E+00  0.00000000000E+00  0.32015585140E+03  0.32015585140E+03  0.00000000000E+00 0. -1.
         21   -1    0    0  501  502 -0.00000000000E+00 -0.00000000000E+00 -0.18110689485E+03  0.18110689485E+03  0.00000000000E+00 0. -1.
      99926    2    1    2    0    0  0.00000000000E+00 -0.35527136788E-14  0.13904895655E+03  0.50126274626E+03  0.48159083096E+03 0.  0.
      99925    2    3    3    0    0  0.11661689390E+03  0.26498554591E+02  0.16888313997E+02  0.28943167198E+03  0.26302814347E+03 0.  0.
         25    1    3    3    0    0 -0.11661689390E+03 -0.26498554591E+02  0.12216064256E+03  0.21183107427E+03  0.12509000000E+03 0.  0.
         25    1    4    4    0    0  0.40763801810E+02 -0.24331188600E+02  0.14097890632E+02  0.13453606541E+03  0.12509000000E+03 0.  0.
         25    1    4    4    0    0  0.75853092088E+02  0.50829743192E+02  0.27904233656E+01  0.15489560657E+03  0.12509000000E+03 0.  0.
<mgrwt>
<rscale>  2 0.48159083E+03</rscale>
<asrwt>0</asrwt>
<pdfrwt beam="1">  1       21 0.47081743E-01 0.48159083E+03</pdfrwt>
<pdfrwt beam="2">  1       21 0.26633367E-01 0.48159083E+03</pdfrwt>
<totfact> 0.53065117E+04</totfact>
</mgrwt>
</event>
<event>
 7    0  0.4793433E-002  0.4520056E+03  0.7546771E-02  0.1027126E+00
         21   -1    0    0  502  501  0.00000000000E+00  0.00000000000E+00  0.68251707995E+03  0.68251707995E+03  0.00000000000E+00 0.  1.
         21   -1    0    0  501  502 -0.00000000000E+00 -0.00000000000E+00 -0.74836623058E+02  0.74836623058E+02  0.00000000000E+00 0.  1.
      99926    2    1    2    0    0  0.17763568394E-14 -0.35527136788E-14  0.60768045689E+03  0.75735370301E+03  0.45200563467E+03 0.  0.
      99925    2    3    3    0    0  0.58224910438E+01  0.26576116084E+02  0.56259934279E+03  0.62163337920E+03  0.26300160887E+03 0.  0.
         25    1    3    3    0    0 -0.58224910438E+01 -0.26576116084E+02  0.45081114101E+02  0.13572032382E+03  0.12509000000E+03 0.  0.
         25    1    4    4    0    0 -0.12220566221E+02 -0.19345090852E+02  0.31847391925E+03  0.34292378179E+03  0.12509000000E+03 0.  0.
         25    1    4    4    0    0  0.18043057265E+02  0.45921206937E+02  0.24412542355E+03  0.27870959740E+03  0.12509000000E+03 0.  0.
<mgrwt>
<rscale>  2 0.45200563E+03</rscale>
<asrwt>0</asrwt>
<pdfrwt beam="1">  1       21 0.10037016E+00 0.45200563E+03</pdfrwt>
<pdfrwt beam="2">  1       21 0.11005386E-01 0.45200563E+03</pdfrwt>
<totfact> 0.51086629E+04</totfact>
</mgrwt>
</event>
<event>
 7    0  0.4793433E-002  0.4623463E+03  0.7546771E-02  0.1024103E+00
         21   -1    0    0  502  501  0.00000000000E+00  0.00000000000E+00  0.63889467903E+03  0.63889467903E+03  0.00000000000E+00 0. -1.
         21   -1    0    0  501  502 -0.00000000000E+00 -0.00000000000E+00 -0.83646072919E+02  0.83646072919E+02  0.00000000000E+00 0. -1.
      99926    2    1    2    0    0  0.88817841970E-15  0.00000000000E+00  0.55524860611E+03  0.72254075195E+03  0.46234632435E+03 0.  0.
      99925    2    3    3    0    0 -0.24456550712E+01  0.18252820450E+02  0.16206371644E+03  0.30952620953E+03  0.26306402171E+03 0.  0.
         25    1    4    4    0    0 -0.21815500019E+02  0.23917369787E+02  0.44442789733E+02  0.13664050014E+03  0.12509000000E+03 0.  0.
         25    1    3    3    0    0  0.24456550712E+01 -0.18252820450E+02  0.39318488968E+03  0.41301454242E+03  0.12509000000E+03 0.  0.
         25    1    4    4    0    0  0.19369844948E+02 -0.56645493365E+01  0.11762092670E+03  0.17288570939E+03  0.12509000000E+03 0.  0.
<mgrwt>
<rscale>  2 0.46234632E+03</rscale>
<asrwt>0</asrwt>
<pdfrwt beam="1">  1       21 0.93955097E-01 0.46234632E+03</pdfrwt>
<pdfrwt beam="2">  1       21 0.12300893E-01 0.46234632E+03</pdfrwt>
<totfact> 0.48813986E+04</totfact>
</mgrwt>
</event>
<event>
 7    0  0.4793433E-002  0.4573276E+03  0.7546771E-02  0.1025559E+00
         21   -1    0    0  502  501  0.00000000000E+00  0.00000000000E+00  0.11628480415E+03  0.11628480415E+03  0.00000000000E+00 0. -1.
         21   -1    0    0  501  502 -0.00000000000E+00 -0.00000000000E+00 -0.44964710236E+03  0.44964710236E+03  0.00000000000E+00 0. -1.
      99926    2    1    2    0    0  0.00000000000E+00  0.00000000000E+00 -0.33336229821E+03  0.56593190650E+03  0.45732756415E+03 0.  0.
      99925    2    3    3    0    0  0.22604613701E+02 -0.71840042486E+02 -0.31755462397E+03  0.41906682921E+03  0.26287660198E+03 0.  0.
         25    1    4    4    0    0  0.48299580037E+02 -0.33601153472E+02 -0.13689430563E+03  0.19454934068E+03  0.12509000000E+03 0.  0.
         25    1    4    4    0    0 -0.25694966337E+02 -0.38238889013E+02 -0.18066031835E+03  0.22451748852E+03  0.12509000000E+03 0.  0.
         25    1    3    3    0    0 -0.22604613701E+02  0.71840042486E+02 -0.15807674233E+02  0.14686507730E+03  0.12509000000E+03 0.  0.
<mgrwt>
<rscale>  2 0.45732756E+03</rscale>
<asrwt>0</asrwt>
<pdfrwt beam="1">  1       21 0.17100707E-01 0.45732756E+03</pdfrwt>
<pdfrwt beam="2">  1       21 0.66124571E-01 0.45732756E+03</pdfrwt>
<totfact> 0.59718911E+04</totfact>
</mgrwt>
</event>
<event>
 7    0  0.4793433E-002  0.4567615E+03  0.7546771E-02  0.1025725E+00
         21   -1    0    0  502  501  0.00000000000E+00  0.00000000000E+00  0.18788179746E+03  0.18788179746E+03  0.00000000000E+00 0.  1.
         21   -1    0    0  501  502 -0.00000000000E+00 -0.00000000000E+00 -0.27760947977E+03  0.27760947977E+03  0.00000000000E+00 0.  1.
      99926    2    1    2    0    0 -0.35527136788E-14  0.14210854715E-13 -0.89727682305E+02  0.46549127723E+03  0.45676150474E+03 0.  0.
      99925    2    3    3    0    0  0.15565795324E+02 -0.89704595271E+02 -0.12757259529E+03  0.30621493268E+03  0.26306578935E+03 0.  0.
         25    1    3    3    0    0 -0.15565795324E+02  0.89704595271E+02  0.37844912988E+02  0.15927634456E+03  0.12509000000E+03 0.  0.
         25    1    4    4    0    0  0.37092171108E+02 -0.18993379535E+02 -0.75081461660E+02  0.15172775491E+03  0.12509000000E+03 0.  0.
         25    1    4    4    0    0 -0.21526375784E+02 -0.70711215736E+02 -0.52491133633E+02  0.15448717777E+03  0.12509000000E+03 0.  0.
<mgrwt>
<rscale>  2 0.45676150E+03</rscale>
<asrwt>0</asrwt>
<pdfrwt beam="1">  1       21 0.27629677E-01 0.45676150E+03</pdfrwt>
<pdfrwt beam="2">  1       21 0.40824923E-01 0.45676150E+03</pdfrwt>
<totfact> 0.66833011E+04</totfact>
</mgrwt>
</event>
<event>
 7    0  0.4793433E-002  0.4568734E+03  0.7546771E-02  0.1025692E+00
         21   -1    0    0  502  501  0.00000000000E+00  0.00000000000E+00  0.18301218041E+03  0.18301218041E+03  0.00000000000E+00 0. -1.
         21   -1    0    0  501  502 -0.00000000000E+00 -0.00000000000E+00 -0.28513581214E+03  0.28513581214E+03  0.00000000000E+00 0. -1.
      99926    2    1    2    0    0  0.17763568394E-14  0.00000000000E+00 -0.10212363173E+03  0.46814799256E+03  0.45687340345E+03 0.  0.
      99925    2    3    3    0    0 -0.39394194618E+01 -0.86059399366E+02  0.13901983324E+02  0.27701664847E+03  0.26291294974E+03 0.  0.
         25    1    4    4    0    0 -0.32454218626E+02 -0.37584849763E+02 -0.19143785691E+02  0.13594075867E+03  0.12509000000E+03 0.  0.
         25    1    4    4    0    0  0.28514799164E+02 -0.48474549603E+02  0.33045769015E+02  0.14107588979E+03  0.12509000000E+03 0.  0.
         25    1    3    3    0    0  0.39394194618E+01  0.86059399366E+02 -0.11602561506E+03  0.19113134409E+03  0.12509000000E+03 0.  0.
<mgrwt>
<rscale>  2 0.45687340E+03</rscale>
<asrwt>0</asrwt>
<pdfrwt beam="1">  1       21 0.26913556E-01 0.45687340E+03</pdfrwt>
<pdfrwt beam="2">  1       21 0.41931737E-01 0.45687340E+03</pdfrwt>
<totfact> 0.66579169E+04</totfact>
</mgrwt>
</event>
<event>
 7    0  0.4793433E-002  0.4536303E+03  0.7546771E-02  0.1026645E+00
         21   -1    0    0  502  501  0.00000000000E+00  0.00000000000E+00  0.35172352050E+02  0.35172352050E+02  0.00000000000E+00 0. -1.
         21   -1    0    0  501  502 -0.00000000000E+00 -0.00000000000E+00 -0.14626579469E+04  0.14626579469E+04  0.00000000000E+00 0. -1.
      99926    2    1    2    0    0  0.00000000000E+00  0.00000000000E+00 -0.14274855949E+04  0.14978302990E+04  0.45363033513E+03 0.  0.
      99925    2    3    3    0    0 -0.19277141770E+02 -0.26403221209E+02 -0.54633365246E+03  0.60724341832E+03  0.26305013018E+03 0.  0.
         25    1    3    3    0    0  0.19277141770E+02  0.26403221209E+02 -0.88115194242E+03  0.89058688067E+03  0.12509000000E+03 0.  0.
         25    1    4    4    0    0 -0.12206855744E+02 -0.36594623536E+02 -0.35446558439E+03  0.37786443656E+03  0.12509000000E+03 0.  0.
         25    1    4    4    0    0 -0.70702860253E+01  0.10191402328E+02 -0.19186806807E+03  0.22937898176E+03  0.12509000000E+03 0.  0.
<mgrwt>
<rscale>  2 0.45363034E+03</rscale>
<asrwt>0</asrwt>
<pdfrwt beam="1">  1       21 0.51724047E-02 0.45363034E+03</pdfrwt>
<pdfrwt beam="2">  1       21 0.21509676E+00 0.45363034E+03</pdfrwt>
<totfact> 0.24087590E+04</totfact>
</mgrwt>
</event>
<event>
 7    0  0.4793433E-002  0.4568326E+03  0.7546771E-02  0.1025704E+00
         21   -1    0    0  502  501  0.00000000000E+00  0.00000000000E+00  0.12883119097E+04  0.12883119097E+04  0.00000000000E+00 0. -1.
         21   -1    0    0  501  502 -0.00000000000E+00 -0.00000000000E+00 -0.40497962255E+02  0.40497962255E+02  0.00000000000E+00 0. -1.
      99926    2    1    2    0    0  0.00000000000E+00  0.71054273576E-14  0.12478139475E+04  0.13288098720E+04  0.45683260432E+03 0.  0.
      99925    2    3    3    0    0  0.60028862217E+02 -0.55533324251E+02  0.54970974525E+03  0.61488802775E+03  0.26309516958E+03 0.  0.
         25    1    4    4    0    0  0.66600224838E+02 -0.20762365817E+02  0.32740888737E+03  0.35736641338E+03  0.12509000000E+03 0.  0.
         25    1    3    3    0    0 -0.60028862217E+02  0.55533324251E+02  0.69810420222E+03  0.71392184422E+03  0.12509000000E+03 0.  0.
         25    1    4    4    0    0 -0.65713626219E+01 -0.34770958435E+02  0.22230085788E+03  0.25752161438E+03  0.12509000000E+03 0.  0.
<mgrwt>
<rscale>  2 0.45683260E+03</rscale>
<asrwt>0</asrwt>
<pdfrwt beam="1">  1       21 0.18945761E+00 0.45683260E+03</pdfrwt>
<pdfrwt beam="2">  1       21 0.59555835E-02 0.45683260E+03</pdfrwt>
<totfact> 0.27889848E+04</totfact>
</mgrwt>
</event>
<event>
 7    0  0.4793433E-002  0.4637059E+03  0.7546771E-02  0.1023712E+00
         21   -1    0    0  502  501  0.00000000000E+00  0.00000000000E+00  0.11486363751E+03  0.11486363751E+03  0.00000000000E+00 0. -1.
         21   -1    0    0  501  502 -0.00000000000E+00 -0.00000000000E+00 -0.46799652255E+03  0.46799652255E+03  0.00000000000E+00 0. -1.
      99926    2    1    2    0    0  0.00000000000E+00  0.00000000000E+00 -0.35313288504E+03  0.58286016006E+03  0.46370586765E+03 0.  0.
      99925    2    3    3    0    0 -0.99863821712E+02 -0.44810360765E+02 -0.15535214977E+03  0.32450869662E+03  0.26304154126E+03 0.  0.
         25    1    4    4    0    0 -0.84154699750E+02 -0.47587459694E+02 -0.75017324485E+02  0.17499053370E+03  0.12509000000E+03 0.  0.
         25    1    4    4    0    0 -0.15709121962E+02  0.27770989292E+01 -0.80334825281E+02  0.14951816292E+03  0.12509000000E+03 0.  0.
         25    1    3    3    0    0  0.99863821712E+02  0.44810360765E+02 -0.19778073527E+03  0.25835146344E+03  0.12509000000E+03 0.  0.
<mgrwt>
<rscale>  2 0.46370587E+03</rscale>
<asrwt>0</asrwt>
<pdfrwt beam="1">  1       21 0.16891712E-01 0.46370587E+03</pdfrwt>
<pdfrwt beam="2">  1       21 0.68823018E-01 0.46370587E+03</pdfrwt>
<totfact> 0.55804898E+04</totfact>
</mgrwt>
</event>
<event>
 7    0  0.4793433E-002  0.4516011E+03  0.7546771E-02  0.1027246E+00
         21   -1    0    0  502  501  0.00000000000E+00  0.00000000000E+00  0.15427680971E+03  0.15427680971E+03  0.00000000000E+00 0. -1.
         21   -1    0    0  501  502 -0.00000000000E+00 -0.00000000000E+00 -0.33048323130E+03  0.33048323130E+03  0.00000000000E+00 0. -1.
      99926    2    1    2    0    0  0.00000000000E+00  0.00000000000E+00 -0.17620642159E+03  0.48476004101E+03  0.45160114520E+03 0.  0.
      99925    2    3    3    0    0 -0.36116664322E+02  0.51253672900E+02 -0.14118658167E+02  0.27063086602E+03  0.26288852525E+03 0.  0.
         25    1    3    3    0    0  0.36116664322E+02 -0.51253672900E+02 -0.16208776343E+03  0.21412917499E+03  0.12509000000E+03 0.  0.
         25    1    4    4    0    0  0.15544522601E+02  0.43413232477E+01  0.43817513099E+01  0.12620296001E+03  0.12509000000E+03 0.  0.
         25    1    4    4    0    0 -0.51661186923E+02  0.46912349652E+02 -0.18500409477E+02  0.14442790601E+03  0.12509000000E+03 0.  0.
<mgrwt>
<rscale>  2 0.45160115E+03</rscale>
<asrwt>0</asrwt>
<pdfrwt beam="1">  1       21 0.22687766E-01 0.45160115E+03</pdfrwt>
<pdfrwt beam="2">  1       21 0.48600474E-01 0.45160115E+03</pdfrwt>
<totfact> 0.68176245E+04</totfact>
</mgrwt>
</event>
<event>
 7    0  0.4793433E-002  0.4631007E+03  0.7546771E-02  0.1023886E+00
         21   -1    0    0  502  501  0.00000000000E+00  0.00000000000E+00  0.51449775134E+03  0.51449775134E+03  0.00000000000E+00 0. -1.
         21   -1    0    0  501  502 -0.00000000000E+00 -0.00000000000E+00 -0.10420951155E+03  0.10420951155E+03  0.00000000000E+00 0. -1.
      99926    2    1    2    0    0  0.00000000000E+00  0.00000000000E+00  0.41028823978E+03  0.61870726289E+03  0.46310067744E+03 0.  0.
      99925    2    3    3    0    0  0.36938709224E+02  0.19148996815E+02  0.40758390326E+03  0.48685137999E+03  0.26299900320E+03 0.  0.
         25    1    4    4    0    0  0.51869878103E+02  0.30815908594E+02  0.23289666144E+03  0.27116133110E+03  0.12509000000E+03 0.  0.
         25    1    3    3    0    0 -0.36938709224E+02 -0.19148996815E+02  0.27043365246E+01  0.13185588290E+03  0.12509000000E+03 0.  0.
         25    1    4    4    0    0 -0.14931168880E+02 -0.11666911779E+02  0.17468724182E+03  0.21569004889E+03  0.12509000000E+03 0.  0.
<mgrwt>
<rscale>  2 0.46310068E+03</rscale>
<asrwt>0</asrwt>
<pdfrwt beam="1">  1       21 0.75661433E-01 0.46310068E+03</pdfrwt>
<pdfrwt beam="2">  1       21 0.15324928E-01 0.46310068E+03</pdfrwt>
<totfact> 0.54002782E+04</totfact>
</mgrwt>
</event>
<event>
 7    0  0.4793433E-002  0.4562951E+03  0.7546771E-02  0.1025861E+00
         21   -1    0    0  502  501  0.00000000000E+00  0.00000000000E+00  0.11214289382E+03  0.11214289382E+03  0.00000000000E+00 0. -1.
         21   -1    0    0  501  502 -0.00000000000E+00 -0.00000000000E+00 -0.46415153946E+03  0.46415153946E+03  0.00000000000E+00 0. -1.
      99926    2    1    2    0    0 -0.28421709430E-13  0.35527136788E-14 -0.35200864563E+03  0.57629443328E+03  0.45629506597E+03 0.  0.
      99925    2    3    3    0    0 -0.89841111595E+02  0.16250795621E+02 -0.30824432468E+03  0.41536482886E+03  0.26301685054E+03 0.  0.
         25    1    4    4    0    0 -0.67878108963E+02  0.22675376293E+02 -0.20988242373E+03  0.25459723144E+03  0.12509000000E+03 0.  0.
         25    1    4    4    0    0 -0.21963002632E+02 -0.64245806713E+01 -0.98361900944E+02  0.16076759742E+03  0.12509000000E+03 0.  0.
         25    1    3    3    0    0  0.89841111595E+02 -0.16250795621E+02 -0.43764320955E+02  0.16092960442E+03  0.12509000000E+03 0.  0.
<mgrwt>
<rscale>  2 0.45629507E+03</rscale>
<asrwt>0</asrwt>
<pdfrwt beam="1">  1       21 0.16491602E-01 0.45629507E+03</pdfrwt>
<pdfrwt beam="2">  1       21 0.68257580E-01 0.45629507E+03</pdfrwt>
<totfact> 0.59549556E+04</totfact>
</mgrwt>
</event>
<event>
 7    0  0.4793433E-002  0.4522887E+03  0.7546771E-02  0.1027042E+00
         21   -1    0    0  502  501  0.00000000000E+00  0.00000000000E+00  0.59012608063E+02  0.59012608063E+02  0.00000000000E+00 0.  1.
         21   -1    0    0  501  502 -0.00000000000E+00 -0.00000000000E+00 -0.86661608648E+03  0.86661608648E+03  0.00000000000E+00 0.  1.
      99926    2    1    2    0    0 -0.71054273576E-14  0.00000000000E+00 -0.80760347841E+03  0.92562869454E+03  0.45228873721E+03 0.  0.
      99925    2    3    3    0    0 -0.63507689540E+02  0.84540878863E+02 -0.44126407681E+03  0.52434020467E+03  0.26275136142E+03 0.  0.
         25    1    4    4    0    0 -0.43988437292E+02  0.16710640134E+02 -0.26644959702E+03  0.29808912084E+03  0.12509000000E+03 0.  0.
         25    1    3    3    0    0  0.63507689540E+02 -0.84540878863E+02 -0.36633940161E+03  0.40128848987E+03  0.12509000000E+03 0.  0.
         25    1    4    4    0    0 -0.19519252248E+02  0.67830238728E+02 -0.17481447978E+03  0.22625108383E+03  0.12509000000E+03 0.  0.
<mgrwt>
<rscale>  2 0.45228874E+03</rscale>
<asrwt>0</asrwt>
<pdfrwt beam="1">  1       21 0.86783252E-02 0.45228874E+03</pdfrwt>
<pdfrwt beam="2">  1       21 0.12744353E+00 0.45228874E+03</pdfrwt>
<totfact> 0.43049533E+04</totfact>
</mgrwt>
</event>
<event>
 7    0  0.4793433E-002  0.4531895E+03  0.7546771E-02  0.1026775E+00
         21   -1    0    0  502  501  0.00000000000E+00  0.00000000000E+00  0.24826814673E+03  0.24826814673E+03  0.00000000000E+00 0. -1.
         21   -1    0    0  501  502 -0.00000000000E+00 -0.00000000000E+00 -0.20681344462E+03  0.20681344462E+03  0.00000000000E+00 0. -1.
      99926    2    1    2    0    0  0.00000000000E+00  0.00000000000E+00  0.41454702117E+02  0.45508159135E+03  0.45318954363E+03 0.  0.
      99925    2    3    3    0    0 -0.12345479906E+02  0.10568693936E+03 -0.72141007135E+01  0.28379732326E+03  0.26299569848E+03 0.  0.
         25    1    4    4    0    0 -0.26957942275E+02  0.89666957788E+02  0.43896917766E+01  0.15631273609E+03  0.12509000000E+03 0.  0.
         25    1    3    3    0    0  0.12345479906E+02 -0.10568693936E+03  0.48668802831E+02  0.17128426809E+03  0.12509000000E+03 0.  0.
         25    1    4    4    0    0  0.14612462369E+02  0.16019981573E+02 -0.11603792490E+02  0.12748458717E+03  0.12509000000E+03 0.  0.
<mgrwt>
<rscale>  2 0.45318954E+03</rscale>
<asrwt>0</asrwt>
<pdfrwt beam="1">  1       21 0.36510022E-01 0.45318954E+03</pdfrwt>
<pdfrwt beam="2">  1       21 0.30413742E-01 0.45318954E+03</pdfrwt>
<totfact> 0.69538901E+04</totfact>
</mgrwt>
</event>
<event>
 7    0  0.4793433E-002  0.4562019E+03  0.7546771E-02  0.1025889E+00
         21   -1    0    0  502  501  0.00000000000E+00  0.00000000000E+00  0.26550211597E+03  0.26550211597E+03  0.00000000000E+00 0. -1.
         21   -1    0    0  501  502 -0.00000000000E+00 -0.00000000000E+00 -0.19596846801E+03  0.19596846801E+03  0.00000000000E+00 0. -1.
      99926    2    1    2    0    0  0.00000000000E+00 -0.71054273576E-14  0.69533647966E+02  0.46147058398E+03  0.45620189794E+03 0.  0.
      99925    2    3    3    0    0 -0.74059303823E+02 -0.58051963957E+02  0.10933822200E+03  0.29995673561E+03  0.26299122694E+03 0.  0.
         25    1    4    4    0    0 -0.27092750652E+02 -0.13809990099E+02  0.12987749426E+02  0.12938671763E+03  0.12509000000E+03 0.  0.
         25    1    4    4    0    0 -0.46966553172E+02 -0.44241973859E+02  0.96350472575E+02  0.17057001798E+03  0.12509000000E+03 0.  0.
         25    1    3    3    0    0  0.74059303823E+02  0.58051963957E+02 -0.39804574035E+02  0.16151384837E+03  0.12509000000E+03 0.  0.
<mgrwt>
<rscale>  2 0.45620190E+03</rscale>
<asrwt>0</asrwt>
<pdfrwt beam="1">  1       21 0.39044429E-01 0.45620190E+03</pdfrwt>
<pdfrwt beam="2">  1       21 0.28818892E-01 0.45620190E+03</pdfrwt>
<totfact> 0.67424954E+04</totfact>
</mgrwt>
</event>
<event>
 7    0  0.4793433E-002  0.4588955E+03  0.7546771E-02  0.1025102E+00
         21   -1    0    0  502  501  0.00000000000E+00  0.00000000000E+00  0.98621257335E+03  0.98621257335E+03  0.00000000000E+00 0.  1.
         21   -1    0    0  501  502 -0.00000000000E+00 -0.00000000000E+00 -0.53382262578E+02  0.53382262578E+02  0.00000000000E+00 0.  1.
      99926    2    1    2    0    0  0.00000000000E+00 -0.71054273576E-14  0.93283031078E+03  0.10395948359E+04  0.45889545018E+03 0.  0.
      99925    2    3    3    0    0  0.10400746339E+03 -0.44709132414E+02  0.65121272083E+03  0.71130771461E+03  0.26280068136E+03 0.  0.
         25    1    4    4    0    0  0.33263903022E+02 -0.55189384817E+01  0.22268910821E+03  0.25763325279E+03  0.12509000000E+03 0.  0.
         25    1    4    4    0    0  0.70743560366E+02 -0.39190193932E+02  0.42852361262E+03  0.45367446182E+03  0.12509000000E+03 0.  0.
         25    1    3    3    0    0 -0.10400746339E+03  0.44709132414E+02  0.28161758994E+03  0.32828712132E+03  0.12509000000E+03 0.  0.
<mgrwt>
<rscale>  2 0.45889545E+03</rscale>
<asrwt>0</asrwt>
<pdfrwt beam="1">  1       21 0.14503125E+00 0.45889545E+03</pdfrwt>
<pdfrwt beam="2">  1       21 0.78503334E-02 0.45889545E+03</pdfrwt>
<totfact> 0.36537758E+04</totfact>
</mgrwt>
</event>
<event>
 7    0  0.4793433E-002  0.4558166E+03  0.7546771E-02  0.1026002E+00
         21   -1    0    0  502  501  0.00000000000E+00  0.00000000000E+00  0.81904401620E+03  0.81904401620E+03  0.00000000000E+00 0. -1.
         21   -1    0    0  501  502 -0.00000000000E+00 -0.00000000000E+00 -0.63418076828E+02  0.63418076828E+02  0.00000000000E+00 0. -1.
      99926    2    1    2    0    0  0.00000000000E+00  0.00000000000E+00  0.75562593937E+03  0.88246209302E+03  0.45581661376E+03 0.  0.
      99925    2    3    3    0    0  0.69227637705E+02 -0.72630268967E+02  0.57963308401E+03  0.64436838242E+03  0.26299900834E+03 0.  0.
         25    1    3    3    0    0 -0.69227637705E+02  0.72630268967E+02  0.17599285536E+03  0.23809371061E+03  0.12509000000E+03 0.  0.
         25    1    4    4    0    0  0.32934296281E+02 -0.60107713043E+02  0.37782191016E+03  0.40384961178E+03  0.12509000000E+03 0.  0.
         25    1    4    4    0    0  0.36293341424E+02 -0.12522555924E+02  0.20181117385E+03  0.24051877064E+03  0.12509000000E+03 0.  0.
<mgrwt>
<rscale>  2 0.45581661E+03</rscale>
<asrwt>0</asrwt>
<pdfrwt beam="1">  1       21 0.12044764E+00 0.45581661E+03</pdfrwt>
<pdfrwt beam="2">  1       21 0.93261883E-02 0.45581661E+03</pdfrwt>
<totfact> 0.43720399E+04</totfact>
</mgrwt>
</event>
<event>
 7    0  0.4793433E-002  0.4535064E+03  0.7546771E-02  0.1026682E+00
         21   -1    0    0  502  501  0.00000000000E+00  0.00000000000E+00  0.22435577168E+03  0.22435577168E+03  0.00000000000E+00 0. -1.
         21   -1    0    0  501  502 -0.00000000000E+00 -0.00000000000E+00 -0.22917626553E+03  0.22917626553E+03  0.00000000000E+00 0. -1.
      99926    2    1    2    0    0  0.00000000000E+00  0.00000000000E+00 -0.48204938530E+01  0.45353203722E+03  0.45350641850E+03 0.  0.
      99925    2    3    3    0    0  0.30431145272E+02  0.82631646653E+02 -0.70684903357E+02  0.28697972660E+03  0.26383131787E+03 0.  0.
         25    1    3    3    0    0 -0.30431145272E+02 -0.82631646653E+02  0.65864409504E+02  0.16655231061E+03  0.12509000000E+03 0.  0.
         25    1    4    4    0    0  0.66593844133E-01  0.45890095631E+02  0.47463558566E+01  0.13332644639E+03  0.12509000000E+03 0.  0.
         25    1    4    4    0    0  0.30364551428E+02  0.36741551022E+02 -0.75431259214E+02  0.15365328022E+03  0.12509000000E+03 0.  0.
<mgrwt>
<rscale>  2 0.45350642E+03</rscale>
<asrwt>0</asrwt>
<pdfrwt beam="1">  1       21 0.32993496E-01 0.45350642E+03</pdfrwt>
<pdfrwt beam="2">  1       21 0.33702392E-01 0.45350642E+03</pdfrwt>
<totfact> 0.69477764E+04</totfact>
</mgrwt>
</event>
<event>
 7    0  0.4793433E-002  0.4560832E+03  0.7546771E-02  0.1025923E+00
         21   -1    0    0  502  501  0.00000000000E+00  0.00000000000E+00  0.14033797372E+03  0.14033797372E+03  0.00000000000E+00 0.  1.
         21   -1    0    0  501  502 -0.00000000000E+00 -0.00000000000E+00 -0.37055521408E+03  0.37055521408E+03  0.00000000000E+00 0.  1.
      99926    2    1    2    0    0  0.00000000000E+00  0.71054273576E-14 -0.23021724036E+03  0.51089318780E+03  0.45608318494E+03 0.  0.
      99925    2    3    3    0    0  0.10135104040E+03  0.51501031892E+02 -0.15257614663E+03  0.32488233540E+03  0.26333374576E+03 0.  0.
         25    1    3    3    0    0 -0.10135104040E+03 -0.51501031892E+02 -0.77641093734E+02  0.18601085240E+03  0.12509000000E+03 0.  0.
         25    1    4    4    0    0  0.33418688775E+02  0.90780137424E+00 -0.36972073736E+02  0.13465539424E+03  0.12509000000E+03 0.  0.
         25    1    4    4    0    0  0.67932351626E+02  0.50593230518E+02 -0.11560407289E+03  0.19022694115E+03  0.12509000000E+03 0.  0.
<mgrwt>
<rscale>  2 0.45608318E+03</rscale>
<asrwt>0</asrwt>
<pdfrwt beam="1">  1       21 0.20637938E-01 0.45608318E+03</pdfrwt>
<pdfrwt beam="2">  1       21 0.54493413E-01 0.45608318E+03</pdfrwt>
<totfact> 0.63960358E+04</totfact>
</mgrwt>
</event>
<event>
 7    0  0.4793433E-002  0.4546615E+03  0.7546771E-02  0.1026341E+00
         21   -1    0    0  502  501  0.00000000000E+00  0.00000000000E+00  0.16989510095E+04  0.16989510095E+04  0.00000000000E+00 0. -1.
         21   -1    0    0  501  502 -0.00000000000E+00 -0.00000000000E+00 -0.30418337311E+02  0.30418337311E+02  0.00000000000E+00 0. -1.
      99926    2    1    2    0    0  0.00000000000E+00  0.00000000000E+00  0.16685326722E+04  0.17293693468E+04  0.45466147795E+03 0.  0.
      99925    2    3    3    0    0 -0.59958383443E+02  0.51695234309E+02  0.74448292731E+03  0.79353664589E+03  0.26301744111E+03 0.  0.
         25    1    4    4    0    0  0.30363893707E+01  0.42741838819E+02  0.31231336591E+03  0.33915074977E+03  0.12509000000E+03 0.  0.
         25    1    3    3    0    0  0.59958383443E+02 -0.51695234309E+02  0.92404974492E+03  0.93583270095E+03  0.12509000000E+03 0.  0.
         25    1    4    4    0    0 -0.62994772814E+02  0.89533954905E+01  0.43216956140E+03  0.45438589612E+03  0.12509000000E+03 0.  0.
<mgrwt>
<rscale>  2 0.45466148E+03</rscale>
<asrwt>0</asrwt>
<pdfrwt beam="1">  1       21 0.24984567E+00 0.45466148E+03</pdfrwt>
<pdfrwt beam="2">  1       21 0.44732860E-02 0.45466148E+03</pdfrwt>
<totfact> 0.18706061E+04</totfact>
</mgrwt>
</event>
<event>
 7    0  0.4793433E-002  0.4512152E+03  0.7546771E-02  0.1027360E+00
         21   -1    0    0  502  501  0.00000000000E+00  0.00000000000E+00  0.22750810343E+04  0.22750810343E+04  0.00000000000E+00 0.  1.
         21   -1    0    0  501  502 -0.00000000000E+00 -0.00000000000E+00 -0.22372295708E+02  0.22372295708E+02  0.00000000000E+00 0.  1.
      99926    2    1    2    0    0 -0.88817841970E-15  0.00000000000E+00  0.22527087386E+04  0.22974533300E+04  0.45121518440E+03 0.  0.
      99925    2    3    3    0    0 -0.71287339709E+01 -0.10658212473E+03  0.12977057060E+04  0.13283873527E+04  0.26298724508E+03 0.  0.
         25    1    4    4    0    0  0.27138890405E+02 -0.47730835945E+02  0.51396050076E+03  0.53180603280E+03  0.12509000000E+03 0.  0.
         25    1    3    3    0    0  0.71287339709E+01  0.10658212473E+03  0.95500303254E+03  0.96906597733E+03  0.12509000000E+03 0.  0.
         25    1    4    4    0    0 -0.34267624376E+02 -0.58851288783E+02  0.78374520528E+03  0.79658131987E+03  0.12509000000E+03 0.  0.
<mgrwt>
<rscale>  2 0.45121518E+03</rscale>
<asrwt>0</asrwt>
<pdfrwt beam="1">  1       21 0.33457058E+00 0.45121518E+03</pdfrwt>
<pdfrwt beam="2">  1       21 0.32900450E-02 0.45121518E+03</pdfrwt>
<totfact> 0.97154084E+03</totfact>
</mgrwt>
</event>
<event>
 7    0  0.4793433E-002  0.4519088E+03  0.7546771E-02  0.1027154E+00
         21   -1    0    0  502  501  0.00000000000E+00  0.00000000000E+00  0.38128758298E+02  0.38128758298E+02  0.00000000000E+00 0. -1.
         21   -1    0    0  501  502 -0.00000000000E+00 -0.00000000000E+00 -0.13390256788E+04  0.13390256788E+04  0.00000000000E+00 0. -1.
      99926    2    1    2    0    0  0.00000000000E+00  0.71054273576E-14 -0.13008969205E+04  0.13771544371E+04  0.45190878045E+03 0.  0.
      99925    2    3    3    0    0 -0.91670859566E+02 -0.59106948369E+02 -0.87125585070E+03  0.91657205054E+03  0.26290756670E+03 0.  0.
         25    1    3    3    0    0  0.91670859566E+02  0.59106948369E+02 -0.42964106978E+03  0.46058238653E+03  0.12509000000E+03 0.  0.
         25    1    4    4    0    0 -0.67502937867E+02 -0.64648414648E+02 -0.51670685984E+03  0.53978657935E+03  0.12509000000E+03 0.  0.
         25    1    4    4    0    0 -0.24167921698E+02  0.55414662789E+01 -0.35454899085E+03  0.37678547119E+03  0.12509000000E+03 0.  0.
<mgrwt>
<rscale>  2 0.45190878E+03</rscale>
<asrwt>0</asrwt>
<pdfrwt beam="1">  1       21 0.56071696E-02 0.45190878E+03</pdfrwt>
<pdfrwt beam="2">  1       21 0.19691557E+00 0.45190878E+03</pdfrwt>
<totfact> 0.27604481E+04</totfact>
</mgrwt>
</event>
<event>
 7    0  0.4793433E-002  0.4525283E+03  0.7546771E-02  0.1026971E+00
         21   -1    0    0  502  501  0.00000000000E+00  0.00000000000E+00  0.16929102379E+03  0.16929102379E+03  0.00000000000E+00 0.  1.
         21   -1    0    0  501  502 -0.00000000000E+00 -0.00000000000E+00 -0.30241101726E+03  0.30241101726E+03  0.00000000000E+00 0.  1.
      99926    2    1    2    0    0  0.00000000000E+00  0.00000000000E+00 -0.13311999347E+03  0.47170204105E+03  0.45252832272E+03 0.  0.
      99925    2    3    3    0    0  0.31908465377E+02 -0.67463862931E+02 -0.16949207700E+03  0.32156890172E+03  0.26288680344E+03 0.  0.
         25    1    4    4    0    0  0.55914706502E+02 -0.33447122349E+02 -0.78944525861E+02  0.16163202238E+03  0.12509000000E+03 0.  0.
         25    1    4    4    0    0 -0.24006241126E+02 -0.34016740582E+02 -0.90547551142E+02  0.15993687933E+03  0.12509000000E+03 0.  0.
         25    1    3    3    0    0 -0.31908465377E+02  0.67463862931E+02  0.36372083536E+02  0.15013313933E+03  0.12509000000E+03 0.  0.
<mgrwt>
<rscale>  2 0.45252832E+03</rscale>
<asrwt>0</asrwt>
<pdfrwt beam="1">  1       21 0.24895739E-01 0.45252832E+03</pdfrwt>
<pdfrwt beam="2">  1       21 0.44472208E-01 0.45252832E+03</pdfrwt>
<totfact> 0.68645800E+04</totfact>
</mgrwt>
</event>
<event>
 7    0  0.4793433E-002  0.4567112E+03  0.7546771E-02  0.1025739E+00
         21   -1    0    0  502  501  0.00000000000E+00  0.00000000000E+00  0.20568560613E+03  0.20568560613E+03  0.00000000000E+00 0.  1.
         21   -1    0    0  501  502 -0.00000000000E+00 -0.00000000000E+00 -0.25352420548E+03  0.25352420548E+03  0.00000000000E+00 0.  1.
      99926    2    1    2    0    0 -0.14210854715E-13 -0.14210854715E-13 -0.47838599353E+02  0.45920981162E+03  0.45671119922E+03 0.  0.
      99925    2    3    3    0    0  0.67277973090E+02  0.70166923802E+02  0.31214623804E+02  0.28215997951E+03  0.26304026011E+03 0.  0.
         25    1    4    4    0    0  0.18621696782E+02  0.12092669620E+02  0.46119879667E+02  0.13515750682E+03  0.12509000000E+03 0.  0.
         25    1    4    4    0    0  0.48656276308E+02  0.58074254182E+02 -0.14905255862E+02  0.14700247268E+03  0.12509000000E+03 0.  0.
         25    1    3    3    0    0 -0.67277973090E+02 -0.70166923802E+02 -0.79053223157E+02  0.17704983211E+03  0.12509000000E+03 0.  0.
<mgrwt>
<rscale>  2 0.45671120E+03</rscale>
<asrwt>0</asrwt>
<pdfrwt beam="1">  1       21 0.30247883E-01 0.45671120E+03</pdfrwt>
<pdfrwt beam="2">  1       21 0.37282971E-01 0.45671120E+03</pdfrwt>
<totfact> 0.67314709E+04</totfact>
</mgrwt>
</event>
<event>
 7    0  0.4793433E-002  0.4582854E+03  0.7546771E-02  0.1025280E+00
         21   -1    0    0  502  501  0.00000000000E+00  0.00000000000E+00  0.78820537243E+03  0.78820537243E+03  0.00000000000E+00 0.  1.
         21   -1    0    0  501  502 -0.00000000000E+00 -0.00000000000E+00 -0.66615098157E+02  0.66615098157E+02  0.00000000000E+00 0.  1.
      99926    2    1    2    0    0  0.00000000000E+00  0.00000000000E+00  0.72159027427E+03  0.85482047058E+03  0.45828540562E+03 0.  0.
      99925    2    3    3    0    0 -0.74525119595E+02 -0.74082822107E+02  0.35373922882E+03  0.45232306970E+03  0.26157687090E+03 0.  0.
         25    1    4    4    0    0 -0.39093090618E+02 -0.69938468313E+02  0.22258589314E+03  0.26760352577E+03  0.12509000000E+03 0.  0.
         25    1    3    3    0    0  0.74525119595E+02  0.74082822107E+02  0.36785104545E+03  0.40249740089E+03  0.12509000000E+03 0.  0.
         25    1    4    4    0    0 -0.35432028977E+02 -0.41443537940E+01  0.13115333569E+03  0.18471954392E+03  0.12509000000E+03 0.  0.
<mgrwt>
<rscale>  2 0.45828541E+03</rscale>
<asrwt>0</asrwt>
<pdfrwt beam="1">  1       21 0.11591255E+00 0.45828541E+03</pdfrwt>
<pdfrwt beam="2">  1       21 0.97963384E-02 0.45828541E+03</pdfrwt>
<totfact> 0.44077539E+04</totfact>
</mgrwt>
</event>
<event>
 7    0  0.4793433E-002  0.4554253E+03  0.7546771E-02  0.1026116E+00
         21   -1    0    0  502  501  0.00000000000E+00  0.00000000000E+00  0.70799050770E+02  0.70799050770E+02  0.00000000000E+00 0.  1.
         21   -1    0    0  501  502 -0.00000000000E+00 -0.00000000000E+00 -0.73239767556E+03  0.73239767556E+03  0.00000000000E+00 0.  1.
      99926    2    1    2    0    0  0.14210854715E-13  0.00000000000E+00 -0.66159862479E+03  0.80319672633E+03  0.45542534060E+03 0.  0.
      99925    2    3    3    0    0  0.74949272029E+02 -0.84928622382E+02 -0.43089240604E+03  0.51735912953E+03  0.26298657579E+03 0.  0.
         25    1    3    3    0    0 -0.74949272029E+02  0.84928622382E+02 -0.23070621875E+03  0.28583759681E+03  0.12509000000E+03 0.  0.
         25    1    4    4    0    0  0.72918642214E+02 -0.27045359218E+02 -0.19889249784E+03  0.24749608812E+03  0.12509000000E+03 0.  0.
         25    1    4    4    0    0  0.20306298146E+01 -0.57883263164E+02 -0.23199990820E+03  0.26986304141E+03  0.12509000000E+03 0.  0.
<mgrwt>
<rscale>  2 0.45542534E+03</rscale>
<asrwt>0</asrwt>
<pdfrwt beam="1">  1       21 0.10411625E-01 0.45542534E+03</pdfrwt>
<pdfrwt beam="2">  1       21 0.10770554E+00 0.45542534E+03</pdfrwt>
<totfact> 0.47451985E+04</totfact>
</mgrwt>
</event>
<event>
 7    0  0.4793433E-002  0.4489459E+03  0.7546771E-02  0.1028037E+00
         21   -1    0    0  502  501  0.00000000000E+00  0.00000000000E+00  0.50171291829E+02  0.50171291829E+02  0.00000000000E+00 0. -1.
         21   -1    0    0  501  502 -0.00000000000E+00 -0.00000000000E+00 -0.10043213664E+04  0.10043213664E+04  0.00000000000E+00 0. -1.
      99926    2    1    2    0    0  0.00000000000E+00 -0.17763568394E-14 -0.95415007453E+03  0.10544926582E+04  0.44894587808E+03 0.  0.
      99925    2    3    3    0    0 -0.10325315891E+03 -0.67157820010E+01 -0.54074031525E+03  0.61035140394E+03  0.26348136786E+03 0.  0.
         25    1    3    3    0    0  0.10325315891E+03  0.67157820010E+01 -0.41340975929E+03  0.44414125425E+03  0.12509000000E+03 0.  0.
         25    1    4    4    0    0 -0.29794045320E+02  0.28832204900E+02 -0.21817674886E+03  0.25488739282E+03  0.12509000000E+03 0.  0.
         25    1    4    4    0    0 -0.73459113591E+02 -0.35547986901E+02 -0.32256356638E+03  0.35546401112E+03  0.12509000000E+03 0.  0.
<mgrwt>
<rscale>  2 0.44894588E+03</rscale>
<asrwt>0</asrwt>
<pdfrwt beam="1">  1       21 0.73781322E-02 0.44894588E+03</pdfrwt>
<pdfrwt beam="2">  1       21 0.14769430E+00 0.44894588E+03</pdfrwt>
<totfact> 0.38919716E+04</totfact>
</mgrwt>
</event>
<event>
 7    0  0.4793433E-002  0.4150859E+03  0.7546771E-02  0.1038678E+00
         21   -1    0    0  502  501  0.00000000000E+00  0.00000000000E+00  0.91365481791E+02  0.91365481791E+02  0.00000000000E+00 0.  1.
         21   -1    0    0  501  502 -0.00000000000E+00 -0.00000000000E+00 -0.47144810216E+03  0.47144810216E+03  0.00000000000E+00 0.  1.
      99926    2    1    2    0    0  0.00000000000E+00  0.00000000000E+00 -0.38008262037E+03  0.56281358396E+03  0.41508593324E+03 0.  0.
      99925    2    3    3    0    0  0.48284559526E+02 -0.40552058640E+02 -0.28736997766E+03  0.39482843471E+03  0.26330993268E+03 0.  0.
         25    1    4    4    0    0  0.30044019620E+01  0.44864509799E+01 -0.17381500442E+03  0.21421558891E+03  0.12509000000E+03 0.  0.
         25    1    4    4    0    0  0.45280157564E+02 -0.45038509620E+02 -0.11355497324E+03  0.18061284579E+03  0.12509000000E+03 0.  0.
         25    1    3    3    0    0 -0.48284559526E+02  0.40552058640E+02 -0.92712642716E+02  0.16798514925E+03  0.12509000000E+03 0.  0.
<mgrwt>
<rscale>  2 0.41508593E+03</rscale>
<asrwt>0</asrwt>
<pdfrwt beam="1">  1       21 0.13436100E-01 0.41508593E+03</pdfrwt>
<pdfrwt beam="2">  1       21 0.69330603E-01 0.41508593E+03</pdfrwt>
<totfact> 0.84786983E+04</totfact>
</mgrwt>
</event>
<event>
 7    0  0.4793433E-002  0.4557884E+03  0.7546771E-02  0.1026010E+00
         21   -1    0    0  502  501  0.00000000000E+00  0.00000000000E+00  0.12845030558E+04  0.12845030558E+04  0.00000000000E+00 0. -1.
         21   -1    0    0  501  502 -0.00000000000E+00 -0.00000000000E+00 -0.40432567611E+02  0.40432567611E+02  0.00000000000E+00 0. -1.
      99926    2    1    2    0    0  0.00000000000E+00  0.00000000000E+00  0.12440704882E+04  0.13249356234E+04  0.45578835725E+03 0.  0.
      99925    2    3    3    0    0  0.11068349511E+03  0.11428567105E+02  0.71272523346E+03  0.76783892080E+03  0.26309295249E+03 0.  0.
         25    1    4    4    0    0  0.77901498981E+02  0.14411307068E+02  0.28768866561E+03  0.32355618637E+03  0.12509000000E+03 0.  0.
         25    1    4    4    0    0  0.32781996133E+02 -0.29827399629E+01  0.42503656785E+03  0.44428273443E+03  0.12509000000E+03 0.  0.
         25    1    3    3    0    0 -0.11068349511E+03 -0.11428567105E+02  0.53134525474E+03  0.55709670262E+03  0.12509000000E+03 0.  0.
<mgrwt>
<rscale>  2 0.45578836E+03</rscale>
<asrwt>0</asrwt>
<pdfrwt beam="1">  1       21 0.18889748E+00 0.45578836E+03</pdfrwt>
<pdfrwt beam="2">  1       21 0.59459667E-02 0.45578836E+03</pdfrwt>
<totfact> 0.28225637E+04</totfact>
</mgrwt>
</event>
<event>
 7    0  0.4793433E-002  0.4530229E+03  0.7546771E-02  0.1026824E+00
         21   -1    0    0  502  501  0.00000000000E+00  0.00000000000E+00  0.64374534368E+03  0.64374534368E+03  0.00000000000E+00 0. -1.
         21   -1    0    0  501  502 -0.00000000000E+00 -0.00000000000E+00 -0.79701437886E+02  0.79701437886E+02  0.00000000000E+00 0. -1.
      99926    2    1    2    0    0 -0.71054273576E-14 -0.14210854715E-13  0.56404390579E+03  0.72344678156E+03  0.45302286708E+03 0.  0.
      99925    2    3    3    0    0 -0.61149729620E+02 -0.83162669660E+02  0.28898948892E+03  0.40413853018E+03  0.26297853109E+03 0.  0.
         25    1    3    3    0    0  0.61149729620E+02  0.83162669660E+02  0.27505441687E+03  0.31930825138E+03  0.12509000000E+03 0.  0.
         25    1    4    4    0    0 -0.20391736858E+02 -0.60663013341E+02  0.98726200110E+02  0.17172709398E+03  0.12509000000E+03 0.  0.
         25    1    4    4    0    0 -0.40757992762E+02 -0.22499656319E+02  0.19026328881E+03  0.23241143620E+03  0.12509000000E+03 0.  0.
<mgrwt>
<rscale>  2 0.45302287E+03</rscale>
<asrwt>0</asrwt>
<pdfrwt beam="1">  1       21 0.94668430E-01 0.45302287E+03</pdfrwt>
<pdfrwt beam="2">  1       21 0.11720800E-01 0.45302287E+03</pdfrwt>
<totfact> 0.52459401E+04</totfact>
</mgrwt>
</event>
<event>
 7    0  0.4793433E-002  0.4509023E+03  0.7546771E-02  0.1027453E+00
         21   -1    0    0  502  501  0.00000000000E+00  0.00000000000E+00  0.73170958641E+02  0.73170958641E+02  0.00000000000E+00 0.  1.
         21   -1    0    0  501  502 -0.00000000000E+00 -0.00000000000E+00 -0.69465005340E+03  0.69465005340E+03  0.00000000000E+00 0.  1.
      99926    2    1    2    0    0  0.00000000000E+00  0.00000000000E+00 -0.62147909476E+03  0.76782101205E+03  0.45090225250E+03 0.  0.
      99925    2    3    3    0    0 -0.80572750593E+02 -0.72560674643E+02 -0.36906217763E+03  0.46596205857E+03  0.26297667087E+03 0.  0.
         25    1    4    4    0    0 -0.50406502477E+02 -0.38655289952E+02 -0.25343818303E+03  0.28967821397E+03  0.12509000000E+03 0.  0.
         25    1    4    4    0    0 -0.30166248116E+02 -0.33905384691E+02 -0.11562399461E+03  0.17628384460E+03  0.12509000000E+03 0.  0.
         25    1    3    3    0    0  0.80572750593E+02  0.72560674643E+02 -0.25241691713E+03  0.30185895348E+03  0.12509000000E+03 0.  0.
<mgrwt>
<rscale>  2 0.45090225E+03</rscale>
<asrwt>0</asrwt>
<pdfrwt beam="1">  1       21 0.10760435E-01 0.45090225E+03</pdfrwt>
<pdfrwt beam="2">  1       21 0.10215443E+00 0.45090225E+03</pdfrwt>
<totfact> 0.50980873E+04</totfact>
</mgrwt>
</event>
<event>
 6    0  0.4793433E-002  0.4340411E+03  0.7546771E-02  0.1032591E+00
         21   -1    0    0  502  501  0.00000000000E+00  0.00000000000E+00  0.15461553339E+04  0.15461553339E+04  0.00000000000E+00 0.  1.
         21   -1    0    0  501  502 -0.00000000000E+00 -0.00000000000E+00 -0.30461310216E+02  0.30461310216E+02  0.00000000000E+00 0.  1.
      99926    2    1    2    0    0  0.00000000000E+00  0.00000000000E+00  0.15156940237E+04  0.15766166441E+04  0.43404109145E+03 0.  0.
         25    1    3    3    0    0 -0.55478029195E+01  0.63102413379E+02  0.33690676293E+03  0.36491967294E+03  0.12509000000E+03 0.  0.
         25    1    3    3    0    0  0.48389243214E+02 -0.49649046212E+02  0.71901376661E+03  0.73309948256E+03  0.12509000000E+03 0.  0.
         25    1    3    3    0    0 -0.42841440295E+02 -0.13453367167E+02  0.45977349412E+03  0.47859748859E+03  0.12509000000E+03 0.  0.
<mgrwt>
<rscale>  2 0.43404109E+03</rscale>
<asrwt>0</asrwt>
<pdfrwt beam="1">  1       21 0.22737573E+00 0.43404109E+03</pdfrwt>
<pdfrwt beam="2">  1       21 0.44796055E-02 0.43404109E+03</pdfrwt>
<totfact> 0.25933665E+04</totfact>
</mgrwt>
</event>
<event>
 7    0  0.4793433E-002  0.4276735E+03  0.7546771E-02  0.1034597E+00
         21   -1    0    0  502  501  0.00000000000E+00  0.00000000000E+00  0.77950838108E+03  0.77950838108E+03  0.00000000000E+00 0.  1.
         21   -1    0    0  501  502 -0.00000000000E+00 -0.00000000000E+00 -0.58660242021E+02  0.58660242021E+02  0.00000000000E+00 0.  1.
      99926    2    1    2    0    0  0.35527136788E-14  0.00000000000E+00  0.72084813906E+03  0.83816862311E+03  0.42767347494E+03 0.  0.
      99925    2    3    3    0    0 -0.26137871036E+02 -0.80176079483E+02  0.44339606457E+03  0.52235451043E+03  0.26295013304E+03 0.  0.
         25    1    4    4    0    0 -0.32202140281E+02 -0.59830368323E+02  0.17583725778E+03  0.22623638110E+03  0.12509000000E+03 0.  0.
         25    1    3    3    0    0  0.26137871036E+02  0.80176079483E+02  0.27745207449E+03  0.31581411267E+03  0.12509000000E+03 0.  0.
         25    1    4    4    0    0  0.60642692445E+01 -0.20345711161E+02  0.26755880680E+03  0.29611812933E+03  0.12509000000E+03 0.  0.
<mgrwt>
<rscale>  2 0.42767347E+03</rscale>
<asrwt>0</asrwt>
<pdfrwt beam="1">  1       21 0.11463358E+00 0.42767347E+03</pdfrwt>
<pdfrwt beam="2">  1       21 0.86265066E-02 0.42767347E+03</pdfrwt>
<totfact> 0.57304142E+04</totfact>
</mgrwt>
</event>
<event>
 7    0  0.4793433E-002  0.4551708E+03  0.7546771E-02  0.1026191E+00
         21   -1    0    0  502  501  0.00000000000E+00  0.00000000000E+00  0.10802063779E+04  0.10802063779E+04  0.00000000000E+00 0. -1.
         21   -1    0    0  501  502 -0.00000000000E+00 -0.00000000000E+00 -0.47949273568E+02  0.47949273568E+02  0.00000000000E+00 0. -1.
      99926    2    1    2    0    0  0.00000000000E+00  0.00000000000E+00  0.10322571043E+04  0.11281556514E+04  0.45517078607E+03 0.  0.
      99925    2    3    3    0    0 -0.27058677638E+02 -0.47692359870E+02  0.40387121716E+03  0.48509806111E+03  0.26306165743E+03 0.  0.
         25    1    3    3    0    0  0.27058677638E+02  0.47692359870E+02  0.62838588713E+03  0.64305759032E+03  0.12509000000E+03 0.  0.
         25    1    4    4    0    0 -0.31147012711E+02  0.12303273632E+02  0.20861608559E+03  0.24553958175E+03  0.12509000000E+03 0.  0.
         25    1    4    4    0    0  0.40883350732E+01 -0.59995633502E+02  0.19525513158E+03  0.23955847935E+03  0.12509000000E+03 0.  0.
<mgrwt>
<rscale>  2 0.45517079E+03</rscale>
<asrwt>0</asrwt>
<pdfrwt beam="1">  1       21 0.15885386E+00 0.45517079E+03</pdfrwt>
<pdfrwt beam="2">  1       21 0.70513645E-02 0.45517079E+03</pdfrwt>
<totfact> 0.34474213E+04</totfact>
</mgrwt>
</event>
<event>
 7    0  0.4793433E-002  0.4412599E+03  0.7546771E-02  0.1030361E+00
         21   -1    0    0  502  501  0.00000000000E+00  0.00000000000E+00  0.23433849753E+03  0.23433849753E+03  0.00000000000E+00 0. -1.
         21   -1    0    0  501  502 -0.00000000000E+00 -0.00000000000E+00 -0.20772329772E+03  0.20772329772E+03  0.00000000000E+00 0. -1.
      99926    2    1    2    0    0  0.00000000000E+00  0.00000000000E+00  0.26615199812E+02  0.44206179526E+03  0.44125985764E+03 0.  0.
      99925    2    3    3    0    0 -0.39510671562E+02 -0.90041905002E+02 -0.16360344521E+01  0.28046266729E+03  0.26265565539E+03 0.  0.
         25    1    4    4    0    0  0.15771828174E+02 -0.62419363235E+02  0.50899944305E+01  0.14077763890E+03  0.12509000000E+03 0.  0.
         25    1    3    3    0    0  0.39510671562E+02  0.90041905002E+02  0.28251234264E+02  0.16159912797E+03  0.12509000000E+03 0.  0.
         25    1    4    4    0    0 -0.55282499736E+02 -0.27622541768E+02 -0.67260288826E+01  0.13968502839E+03  0.12509000000E+03 0.  0.
<mgrwt>
<rscale>  2 0.44125986E+03</rscale>
<asrwt>0</asrwt>
<pdfrwt beam="1">  1       21 0.34461544E-01 0.44125986E+03</pdfrwt>
<pdfrwt beam="2">  1       21 0.30547544E-01 0.44125986E+03</pdfrwt>
<totfact> 0.77677047E+04</totfact>
</mgrwt>
</event>
<event>
 7    0  0.4793433E-002  0.4571633E+03  0.7546771E-02  0.1025607E+00
         21   -1    0    0  502  501  0.00000000000E+00  0.00000000000E+00  0.87366556143E+02  0.87366556143E+02  0.00000000000E+00 0. -1.
         21   -1    0    0  501  502 -0.00000000000E+00 -0.00000000000E+00 -0.59805006303E+03  0.59805006303E+03  0.00000000000E+00 0. -1.
      99926    2    1    2    0    0 -0.14210854715E-13 -0.35527136788E-14 -0.51068350689E+03  0.68541661917E+03  0.45716331615E+03 0.  0.
      99925    2    3    3    0    0  0.90849772711E+02  0.30748981550E+02 -0.41645866795E+03  0.50177291675E+03  0.26294306760E+03 0.  0.
         25    1    3    3    0    0 -0.90849772711E+02 -0.30748981550E+02 -0.94224838934E+02  0.18364370242E+03  0.12509000000E+03 0.  0.
         25    1    4    4    0    0  0.51463548448E+01  0.27648463812E+02 -0.18842022352E+03  0.22790482937E+03  0.12509000000E+03 0.  0.
         25    1    4    4    0    0  0.85703417866E+02  0.31005177381E+01 -0.22803844444E+03  0.27386808738E+03  0.12509000000E+03 0.  0.
<mgrwt>
<rscale>  2 0.45716332E+03</rscale>
<asrwt>0</asrwt>
<pdfrwt beam="1">  1       21 0.12848023E-01 0.45716332E+03</pdfrwt>
<pdfrwt beam="2">  1       21 0.87948540E-01 0.45716332E+03</pdfrwt>
<totfact> 0.52797135E+04</totfact>
</mgrwt>
</event>
<event>
 7    0  0.4793433E-002  0.4364074E+03  0.7546771E-02  0.1031855E+00
         21   -1    0    0  502  501  0.00000000000E+00  0.00000000000E+00  0.10694066891E+03  0.10694066891E+03  0.00000000000E+00 0. -1.
         21   -1    0    0  501  502 -0.00000000000E+00 -0.00000000000E+00 -0.44522678823E+03  0.44522678823E+03  0.00000000000E+00 0. -1.
      99926    2    1    2    0    0  0.00000000000E+00  0.00000000000E+00 -0.33828611932E+03  0.55216745713E+03  0.43640738100E+03 0.  0.
      99925    2    3    3    0    0  0.47108896671E+02 -0.81545488822E+02 -0.22885107086E+03  0.36113747827E+03  0.26301815657E+03 0.  0.
         25    1    4    4    0    0  0.25571699518E+02 -0.79097218499E+02 -0.14652348053E+03  0.20982592842E+03  0.12509000000E+03 0.  0.
         25    1    4    4    0    0  0.21537197154E+02 -0.24482703230E+01 -0.82327590329E+02  0.15131154985E+03  0.12509000000E+03 0.  0.
         25    1    3    3    0    0 -0.47108896671E+02  0.81545488822E+02 -0.10943504846E+03  0.19102997886E+03  0.12509000000E+03 0.  0.
<mgrwt>
<rscale>  2 0.43640738E+03</rscale>
<asrwt>0</asrwt>
<pdfrwt beam="1">  1       21 0.15726569E-01 0.43640738E+03</pdfrwt>
<pdfrwt beam="2">  1       21 0.65474528E-01 0.43640738E+03</pdfrwt>
<totfact> 0.71702545E+04</totfact>
</mgrwt>
</event>
<event>
 7    0  0.4793433E-002  0.4558012E+03  0.7546771E-02  0.1026006E+00
         21   -1    0    0  502  501  0.00000000000E+00  0.00000000000E+00  0.14511177899E+03  0.14511177899E+03  0.00000000000E+00 0.  1.
         21   -1    0    0  501  502 -0.00000000000E+00 -0.00000000000E+00 -0.35792183059E+03  0.35792183059E+03  0.00000000000E+00 0.  1.
      99926    2    1    2    0    0  0.00000000000E+00  0.00000000000E+00 -0.21281005161E+03  0.50303360958E+03  0.45580115654E+03 0.  0.
      99925    2    3    3    0    0 -0.11596965108E+02  0.89175611884E+02 -0.21089322569E+03  0.34896232194E+03  0.26308167959E+03 0.  0.
         25    1    4    4    0    0 -0.42892766356E+02  0.62839259684E+02 -0.11241415649E+03  0.18458876630E+03  0.12509000000E+03 0.  0.
         25    1    3    3    0    0  0.11596965108E+02 -0.89175611884E+02 -0.19168259151E+01  0.15407128764E+03  0.12509000000E+03 0.  0.
         25    1    4    4    0    0  0.31295801248E+02  0.26336352200E+02 -0.98479069197E+02  0.16437355564E+03  0.12509000000E+03 0.  0.
<mgrwt>
<rscale>  2 0.45580116E+03</rscale>
<asrwt>0</asrwt>
<pdfrwt beam="1">  1       21 0.21339967E-01 0.45580116E+03</pdfrwt>
<pdfrwt beam="2">  1       21 0.52635563E-01 0.45580116E+03</pdfrwt>
<totfact> 0.64645979E+04</totfact>
</mgrwt>
</event>
<event>
 7    0  0.4793433E-002  0.4334876E+03  0.7546771E-02  0.1032764E+00
         21   -1    0    0  502  501  0.00000000000E+00  0.00000000000E+00  0.38940260345E+03  0.38940260345E+03  0.00000000000E+00 0. -1.
         21   -1    0    0  501  502 -0.00000000000E+00 -0.00000000000E+00 -0.12064087467E+03  0.12064087467E+03  0.00000000000E+00 0. -1.
      99926    2    1    2    0    0  0.00000000000E+00 -0.71054273576E-14  0.26876172878E+03  0.51004347813E+03  0.43348758081E+03 0.  0.
      99925    2    3    3    0    0  0.56693593191E+02  0.57823276180E+02  0.12148502754E+03  0.30053063936E+03  0.26268300003E+03 0.  0.
         25    1    4    4    0    0  0.37776001188E+02  0.57725014014E+02  0.34378102932E+02  0.14693047870E+03  0.12509000000E+03 0.  0.
         25    1    3    3    0    0 -0.56693593191E+02 -0.57823276180E+02  0.14727670124E+03  0.20951283876E+03  0.12509000000E+03 0.  0.
         25    1    4    4    0    0  0.18917592002E+02  0.98262165732E-01  0.87106924609E+02  0.15360016067E+03  0.12509000000E+03 0.  0.
<mgrwt>
<rscale>  2 0.43348758E+03</rscale>
<asrwt>0</asrwt>
<pdfrwt beam="1">  1       21 0.57265088E-01 0.43348758E+03</pdfrwt>
<pdfrwt beam="2">  1       21 0.17741305E-01 0.43348758E+03</pdfrwt>
<totfact> 0.76869787E+04</totfact>
</mgrwt>
</event>
<event>
 7    0  0.4793433E-002  0.4593136E+03  0.7546771E-02  0.1024980E+00
         21   -1    0    0  502  501  0.00000000000E+00  0.00000000000E+00  0.26463867781E+04  0.26463867781E+04  0.00000000000E+00 0.  1.
         21   -1    0    0  501  502 -0.00000000000E+00 -0.00000000000E+00 -0.19929904437E+02  0.19929904437E+02  0.00000000000E+00 0.  1.
      99926    2    1    2    0    0  0.00000000000E+00  0.00000000000E+00  0.26264568737E+04  0.26663166825E+04  0.45931355561E+03 0.  0.
      99925    2    3    3    0    0 -0.11050903418E+03  0.33653248084E+02  0.17668906555E+04  0.17900482424E+04  0.26272672826E+03 0.  0.
         25    1    3    3    0    0  0.11050903418E+03 -0.33653248084E+02  0.85956621815E+03  0.87626844016E+03  0.12509000000E+03 0.  0.
         25    1    4    4    0    0 -0.19737650434E+02  0.31292238737E+02  0.91436485860E+03  0.92362296517E+03  0.12509000000E+03 0.  0.
         25    1    4    4    0    0 -0.90771383747E+02  0.23610093468E+01  0.85252579691E+03  0.86642527720E+03  0.12509000000E+03 0.  0.
<mgrwt>
<rscale>  2 0.45931356E+03</rscale>
<asrwt>0</asrwt>
<pdfrwt beam="1">  1       21 0.38917428E+00 0.45931356E+03</pdfrwt>
<pdfrwt beam="2">  1       21 0.29308701E-02 0.45931356E+03</pdfrwt>
<totfact> 0.53923834E+03</totfact>
</mgrwt>
</event>
<event>
 7    0  0.4793433E-002  0.4624367E+03  0.7546771E-02  0.1024077E+00
         21   -1    0    0  502  501  0.00000000000E+00  0.00000000000E+00  0.37302224294E+03  0.37302224294E+03  0.00000000000E+00 0. -1.
         21   -1    0    0  501  502 -0.00000000000E+00 -0.00000000000E+00 -0.14332100072E+03  0.14332100072E+03  0.00000000000E+00 0. -1.
      99926    2    1    2    0    0  0.00000000000E+00  0.00000000000E+00  0.22970124222E+03  0.51634324366E+03  0.46243668171E+03 0.  0.
      99925    2    3    3    0    0 -0.72624773882E+02 -0.80181708357E+02  0.85511575175E+02  0.29693122867E+03  0.26296855503E+03 0.  0.
         25    1    4    4    0    0 -0.57963953994E+02 -0.32854887995E+02  0.86772038960E+01  0.14199318855E+03  0.12509000000E+03 0.  0.
         25    1    4    4    0    0 -0.14660819888E+02 -0.47326820362E+02  0.76834371279E+02  0.15493804012E+03  0.12509000000E+03 0.  0.
         25    1    3    3    0    0  0.72624773882E+02  0.80181708357E+02  0.14418966705E+03  0.21941201499E+03  0.12509000000E+03 0.  0.
<mgrwt>
<rscale>  2 0.46243668E+03</rscale>
<asrwt>0</asrwt>
<pdfrwt beam="1">  1       21 0.54856212E-01 0.46243668E+03</pdfrwt>
<pdfrwt beam="2">  1       21 0.21076618E-01 0.46243668E+03</pdfrwt>
<totfact> 0.60487743E+04</totfact>
</mgrwt>
</event>
<event>
 7    0  0.4793433E-002  0.4521004E+03  0.7546771E-02  0.1027098E+00
         21   -1    0    0  502  501  0.00000000000E+00  0.00000000000E+00  0.15211083299E+03  0.15211083299E+03  0.00000000000E+00 0.  1.
         21   -1    0    0  501  502 -0.00000000000E+00 -0.00000000000E+00 -0.33593065109E+03  0.33593065109E+03  0.00000000000E+00 0.  1.
      99926    2    1    2    0    0  0.00000000000E+00  0.00000000000E+00 -0.18381981809E+03  0.48804148408E+03  0.45210039223E+03 0.  0.
      99925    2    3    3    0    0 -0.88509431581E+02  0.45560222061E+02 -0.64480352871E+02  0.28854444307E+03  0.26304092154E+03 0.  0.
         25    1    4    4    0    0 -0.71157664859E+01  0.29613582085E+02 -0.48622437241E+02  0.13761993998E+03  0.12509000000E+03 0.  0.
         25    1    3    3    0    0  0.88509431581E+02 -0.45560222061E+02 -0.11933946522E+03  0.19949704101E+03  0.12509000000E+03 0.  0.
         25    1    4    4    0    0 -0.81393665095E+02  0.15946639975E+02 -0.15857915629E+02  0.15092450309E+03  0.12509000000E+03 0.  0.
<mgrwt>
<rscale>  2 0.45210039E+03</rscale>
<asrwt>0</asrwt>
<pdfrwt beam="1">  1       21 0.22369241E-01 0.45210039E+03</pdfrwt>
<pdfrwt beam="2">  1       21 0.49401566E-01 0.45210039E+03</pdfrwt>
<totfact> 0.67663419E+04</totfact>
</mgrwt>
</event>
<event>
 7    0  0.4793433E-002  0.4503854E+03  0.7546771E-02  0.1027607E+00
         21   -1    0    0  502  501  0.00000000000E+00  0.00000000000E+00  0.90444664359E+03  0.90444664359E+03  0.00000000000E+00 0.  1.
         21   -1    0    0  501  502 -0.00000000000E+00 -0.00000000000E+00 -0.56069376871E+02  0.56069376871E+02  0.00000000000E+00 0.  1.
      99926    2    1    2    0    0  0.00000000000E+00 -0.88817841970E-15  0.84837726671E+03  0.96051602046E+03  0.45038543368E+03 0.  0.
      99925    2    3    3    0    0  0.10778835833E+03  0.71175175459E+01  0.56432161683E+03  0.63187623348E+03  0.26294428682E+03 0.  0.
         25    1    4    4    0    0  0.71595584954E+02  0.37608876766E+02  0.33028850415E+03  0.36232355633E+03  0.12509000000E+03 0.  0.
         25    1    3    3    0    0 -0.10778835833E+03 -0.71175175459E+01  0.28405564989E+03  0.32863978697E+03  0.12509000000E+03 0.  0.
         25    1    4    4    0    0  0.36192773380E+02 -0.30491359220E+02  0.23403311267E+03  0.26955267715E+03  0.12509000000E+03 0.  0.
<mgrwt>
<rscale>  2 0.45038543E+03</rscale>
<asrwt>0</asrwt>
<pdfrwt beam="1">  1       21 0.13300685E+00 0.45038543E+03</pdfrwt>
<pdfrwt beam="2">  1       21 0.82454972E-02 0.45038543E+03</pdfrwt>
<totfact> 0.42220798E+04</totfact>
</mgrwt>
</event>
<event>
 7    0  0.4793433E-002  0.4461651E+03  0.7546771E-02  0.1028872E+00
         21   -1    0    0  502  501  0.00000000000E+00  0.00000000000E+00  0.36984996652E+03  0.36984996652E+03  0.00000000000E+00 0. -1.
         21   -1    0    0  501  502 -0.00000000000E+00 -0.00000000000E+00 -0.13455677363E+03  0.13455677363E+03  0.00000000000E+00 0. -1.
      99926    2    1    2    0    0 -0.17763568394E-14  0.00000000000E+00  0.23529319288E+03  0.50440674015E+03  0.44616507359E+03 0.  0.
      99925    2    3    3    0    0 -0.14418911118E+02 -0.61451897192E+02  0.54789531053E+02  0.27590439727E+03  0.26293935243E+03 0.  0.
         25    1    4    4    0    0 -0.21135936841E+02 -0.32477885993E+02  0.66358481738E+02  0.14680768748E+03  0.12509000000E+03 0.  0.
         25    1    3    3    0    0  0.14418911118E+02  0.61451897192E+02  0.18050366183E+03  0.22850234288E+03  0.12509000000E+03 0.  0.
         25    1    4    4    0    0  0.67170257226E+01 -0.28974011199E+02 -0.11568950685E+02  0.12909670979E+03  0.12509000000E+03 0.  0.
<mgrwt>
<rscale>  2 0.44616507E+03</rscale>
<asrwt>0</asrwt>
<pdfrwt beam="1">  1       21 0.54389701E-01 0.44616507E+03</pdfrwt>
<pdfrwt beam="2">  1       21 0.19787761E-01 0.44616507E+03</pdfrwt>
<totfact> 0.69724280E+04</totfact>
</mgrwt>
</event>
<event>
 7    0  0.4793433E-002  0.4537332E+03  0.7546771E-02  0.1026615E+00
         21   -1    0    0  502  501  0.00000000000E+00  0.00000000000E+00  0.82820543607E+03  0.82820543607E+03  0.00000000000E+00 0.  1.
         21   -1    0    0  501  502 -0.00000000000E+00 -0.00000000000E+00 -0.62144538700E+02  0.62144538700E+02  0.00000000000E+00 0.  1.
      99926    2    1    2    0    0  0.00000000000E+00  0.00000000000E+00  0.76606089737E+03  0.89034997477E+03  0.45373315847E+03 0.  0.
      99925    2    3    3    0    0 -0.60481833278E+02 -0.54363797639E+02  0.63348965584E+03  0.69076010320E+03  0.26311005582E+03 0.  0.
         25    1    4    4    0    0 -0.61915913808E+01  0.76403200149E+01  0.29882338753E+03  0.32409818779E+03  0.12509000000E+03 0.  0.
         25    1    4    4    0    0 -0.54290241898E+02 -0.62004117654E+02  0.33466626831E+03  0.36666191541E+03  0.12509000000E+03 0.  0.
         25    1    3    3    0    0  0.60481833278E+02  0.54363797639E+02  0.13257124153E+03  0.19958987157E+03  0.12509000000E+03 0.  0.
<mgrwt>
<rscale>  2 0.45373316E+03</rscale>
<asrwt>0</asrwt>
<pdfrwt beam="1">  1       21 0.12179491E+00 0.45373316E+03</pdfrwt>
<pdfrwt beam="2">  1       21 0.91389032E-02 0.45373316E+03</pdfrwt>
<totfact> 0.44089301E+04</totfact>
</mgrwt>
</event>
<event>
 7    0  0.4793433E-002  0.4559916E+03  0.7546771E-02  0.1025950E+00
         21   -1    0    0  502  501  0.00000000000E+00  0.00000000000E+00  0.17565491927E+03  0.17565491927E+03  0.00000000000E+00 0.  1.
         21   -1    0    0  501  502 -0.00000000000E+00 -0.00000000000E+00 -0.29593300859E+03  0.29593300859E+03  0.00000000000E+00 0.  1.
      99926    2    1    2    0    0 -0.17763568394E-14 -0.71054273576E-14 -0.12027808932E+03  0.47158792786E+03  0.45599161717E+03 0.  0.
      99925    2    3    3    0    0  0.12294710563E+02 -0.40808023468E+02 -0.18494108570E+03  0.32446462621E+03  0.26316845136E+03 0.  0.
         25    1    4    4    0    0  0.16421847524E+02 -0.87767145301E+01 -0.45575742706E+02  0.13442977430E+03  0.12509000000E+03 0.  0.
         25    1    3    3    0    0 -0.12294710563E+02  0.40808023468E+02  0.64662996387E+02  0.14712330165E+03  0.12509000000E+03 0.  0.
         25    1    4    4    0    0 -0.41271369605E+01 -0.32031308938E+02 -0.13936534300E+03  0.19003485191E+03  0.12509000000E+03 0.  0.
<mgrwt>
<rscale>  2 0.45599162E+03</rscale>
<asrwt>0</asrwt>
<pdfrwt beam="1">  1       21 0.25831606E-01 0.45599162E+03</pdfrwt>
<pdfrwt beam="2">  1       21 0.43519560E-01 0.45599162E+03</pdfrwt>
<totfact> 0.66790814E+04</totfact>
</mgrwt>
</event>
<event>
 7    0  0.4793433E-002  0.4591614E+03  0.7546771E-02  0.1025025E+00
         21   -1    0    0  502  501  0.00000000000E+00  0.00000000000E+00  0.11359602156E+04  0.11359602156E+04  0.00000000000E+00 0. -1.
         21   -1    0    0  501  502 -0.00000000000E+00 -0.00000000000E+00 -0.46398885780E+02  0.46398885780E+02  0.00000000000E+00 0. -1.
      99926    2    1    2    0    0  0.00000000000E+00  0.00000000000E+00  0.10895613298E+04  0.11823591013E+04  0.45916135853E+03 0.  0.
      99925    2    3    3    0    0 -0.74627660818E+02  0.77047269701E+02  0.56268193515E+03  0.63031293107E+03  0.26301684623E+03 0.  0.
         25    1    3    3    0    0  0.74627660818E+02 -0.77047269701E+02  0.52687939463E+03  0.55204617027E+03  0.12509000000E+03 0.  0.
         25    1    4    4    0    0 -0.40063061580E+02  0.80546329772E+02  0.29532735942E+03  0.33310436423E+03  0.12509000000E+03 0.  0.
         25    1    4    4    0    0 -0.34564599238E+02 -0.34990600718E+01  0.26735457573E+03  0.29720856684E+03  0.12509000000E+03 0.  0.
<mgrwt>
<rscale>  2 0.45916136E+03</rscale>
<asrwt>0</asrwt>
<pdfrwt beam="1">  1       21 0.16705295E+00 0.45916136E+03</pdfrwt>
<pdfrwt beam="2">  1       21 0.68233663E-02 0.45916136E+03</pdfrwt>
<totfact> 0.31680450E+04</totfact>
</mgrwt>
</event>
<event>
 7    0  0.4793433E-002  0.4402313E+03  0.7546771E-02  0.1030676E+00
         21   -1    0    0  502  501  0.00000000000E+00  0.00000000000E+00  0.76487885007E+03  0.76487885007E+03  0.00000000000E+00 0.  1.
         21   -1    0    0  501  502 -0.00000000000E+00 -0.00000000000E+00 -0.63344545495E+02  0.63344545495E+02  0.00000000000E+00 0.  1.
      99926    2    1    2    0    0 -0.71054273576E-14  0.00000000000E+00  0.70153430458E+03  0.82822339557E+03  0.44023131700E+03 0.  0.
      99925    2    3    3    0    0  0.39348024087E+02  0.86685260302E+02  0.49598974637E+03  0.56945965224E+03  0.26308908315E+03 0.  0.
         25    1    3    3    0    0 -0.39348024087E+02 -0.86685260302E+02  0.20554455820E+03  0.25876374333E+03  0.12509000000E+03 0.  0.
         25    1    4    4    0    0  0.38262170715E+02  0.10001810783E+02  0.20156921215E+03  0.24050298400E+03  0.12509000000E+03 0.  0.
         25    1    4    4    0    0  0.10858533722E+01  0.76683449519E+02  0.29442053422E+03  0.32895666824E+03  0.12509000000E+03 0.  0.
<mgrwt>
<rscale>  2 0.44023132E+03</rscale>
<asrwt>0</asrwt>
<pdfrwt beam="1">  1       21 0.11248218E+00 0.44023132E+03</pdfrwt>
<pdfrwt beam="2">  1       21 0.93153748E-02 0.44023132E+03</pdfrwt>
<totfact> 0.52223325E+04</totfact>
</mgrwt>
</event>
<event>
 7    0  0.4793433E-002  0.4373253E+03  0.7546771E-02  0.1031571E+00
         21   -1    0    0  502  501  0.00000000000E+00  0.00000000000E+00  0.87551368836E+02  0.87551368836E+02  0.00000000000E+00 0. -1.
         21   -1    0    0  501  502 -0.00000000000E+00 -0.00000000000E+00 -0.54611771498E+03  0.54611771498E+03  0.00000000000E+00 0. -1.
      99926    2    1    2    0    0  0.00000000000E+00  0.00000000000E+00 -0.45856634615E+03  0.63366908382E+03  0.43732529537E+03 0.  0.
      99925    2    3    3    0    0 -0.81985741758E+02  0.28273364623E+02 -0.23465454994E+03  0.36292003843E+03  0.26292042805E+03 0.  0.
         25    1    4    4    0    0 -0.72817037987E+02  0.38085523479E+01 -0.15612348908E+03  0.21292927942E+03  0.12509000000E+03 0.  0.
         25    1    3    3    0    0  0.81985741758E+02 -0.28273364623E+02 -0.22391179621E+03  0.27074904539E+03  0.12509000000E+03 0.  0.
         25    1    4    4    0    0 -0.91687037705E+01  0.24464812276E+02 -0.78531060861E+02  0.14999075901E+03  0.12509000000E+03 0.  0.
<mgrwt>
<rscale>  2 0.43732530E+03</rscale>
<asrwt>0</asrwt>
<pdfrwt beam="1">  1       21 0.12875202E-01 0.43732530E+03</pdfrwt>
<pdfrwt beam="2">  1       21 0.80311425E-01 0.43732530E+03</pdfrwt>
<totfact> 0.65294351E+04</totfact>
</mgrwt>
</event>
<event>
 6    0  0.4793433E-002  0.4614270E+03  0.7546771E-02  0.1024368E+00
         21   -1    0    0  502  501  0.00000000000E+00  0.00000000000E+00  0.13906614751E+03  0.13906614751E+03  0.00000000000E+00 0. -1.
         21   -1    0    0  501  502 -0.00000000000E+00 -0.00000000000E+00 -0.38275827776E+03  0.38275827776E+03  0.00000000000E+00 0. -1.
      99926    2    1    2    0    0  0.00000000000E+00  0.00000000000E+00 -0.24369213025E+03  0.52182442527E+03  0.46142700015E+03 0.  0.
         25    1    3    3    0    0 -0.34343297522E+02 -0.11546739692E+03 -0.11567080447E+03  0.20866102881E+03  0.12509000000E+03 0.  0.
         25    1    3    3    0    0  0.20382594675E+02  0.67962561692E+02 -0.30522035218E+02  0.14701517844E+03  0.12509000000E+03 0.  0.
         25    1    3    3    0    0  0.13960702847E+02  0.47504835227E+02 -0.97499290563E+02  0.16614821803E+03  0.12509000000E+03 0.  0.
<mgrwt>
<rscale>  2 0.46142700E+03</rscale>
<asrwt>0</asrwt>
<pdfrwt beam="1">  1       21 0.20450904E-01 0.46142700E+03</pdfrwt>
<pdfrwt beam="2">  1       21 0.56287982E-01 0.46142700E+03</pdfrwt>
<totfact> 0.60612781E+04</totfact>
</mgrwt>
</event>
<event>
 7    0  0.4793433E-002  0.4510925E+03  0.7546771E-02  0.1027397E+00
         21   -1    0    0  502  501  0.00000000000E+00  0.00000000000E+00  0.49055388758E+03  0.49055388758E+03  0.00000000000E+00 0. -1.
         21   -1    0    0  501  502 -0.00000000000E+00 -0.00000000000E+00 -0.10370135910E+03  0.10370135910E+03  0.00000000000E+00 0. -1.
      99926    2    1    2    0    0  0.00000000000E+00  0.00000000000E+00  0.38685252848E+03  0.59425524669E+03  0.45109247325E+03 0.  0.
      99925    2    3    3    0    0 -0.93166779604E+02 -0.57242930837E+02  0.24348500746E+03  0.37480466880E+03  0.26312884476E+03 0.  0.
         25    1    3    3    0    0  0.93166779604E+02  0.57242930837E+02  0.14336752103E+03  0.21945057789E+03  0.12509000000E+03 0.  0.
         25    1    4    4    0    0 -0.53809891581E+02 -0.15921327448E+02  0.71524985478E+02  0.15463610428E+03  0.12509000000E+03 0.  0.
         25    1    4    4    0    0 -0.39356888023E+02 -0.41321603389E+02  0.17196002198E+03  0.22016856451E+03  0.12509000000E+03 0.  0.
<mgrwt>
<rscale>  2 0.45109247E+03</rscale>
<asrwt>0</asrwt>
<pdfrwt beam="1">  1       21 0.72140277E-01 0.45109247E+03</pdfrwt>
<pdfrwt beam="2">  1       21 0.15250200E-01 0.45109247E+03</pdfrwt>
<totfact> 0.60891878E+04</totfact>
</mgrwt>
</event>
<event>
 7    0  0.4793433E-002  0.4558380E+03  0.7546771E-02  0.1025995E+00
         21   -1    0    0  502  501  0.00000000000E+00  0.00000000000E+00  0.89395642896E+02  0.89395642896E+02  0.00000000000E+00 0. -1.
         21   -1    0    0  501  502 -0.00000000000E+00 -0.00000000000E+00 -0.58109178978E+03  0.58109178978E+03  0.00000000000E+00 0. -1.
      99926    2    1    2    0    0  0.00000000000E+00  0.00000000000E+00 -0.49169614688E+03  0.67048743268E+03  0.45583801566E+03 0.  0.
      99925    2    3    3    0    0  0.10318103856E+03 -0.39605252397E+02 -0.35002180029E+03  0.45154901366E+03  0.26299495875E+03 0.  0.
         25    1    4    4    0    0  0.42279436890E+02 -0.18236122330E+02 -0.23328570092E+03  0.26868165790E+03  0.12509000000E+03 0.  0.
         25    1    4    4    0    0  0.60901601675E+02 -0.21369130067E+02 -0.11673609937E+03  0.18286735576E+03  0.12509000000E+03 0.  0.
         25    1    3    3    0    0 -0.10318103856E+03  0.39605252397E+02 -0.14167434660E+03  0.21893841901E+03  0.12509000000E+03 0.  0.
<mgrwt>
<rscale>  2 0.45583802E+03</rscale>
<asrwt>0</asrwt>
<pdfrwt beam="1">  1       21 0.13146418E-01 0.45583802E+03</pdfrwt>
<pdfrwt beam="2">  1       21 0.85454675E-01 0.45583802E+03</pdfrwt>
<totfact> 0.54176101E+04</totfact>
</mgrwt>
</event>
<event>
 7    0  0.4793433E-002  0.4513962E+03  0.7546771E-02  0.1027307E+00
         21   -1    0    0  502  501  0.00000000000E+00  0.00000000000E+00  0.24369571333E+03  0.24369571333E+03  0.00000000000E+00 0. -1.
         21   -1    0    0  501  502 -0.00000000000E+00 -0.00000000000E+00 -0.20902965501E+03  0.20902965501E+03  0.00000000000E+00 0. -1.
      99926    2    1    2    0    0 -0.71054273576E-14  0.14210854715E-13  0.34666058329E+02  0.45272536834E+03  0.45139619354E+03 0.  0.
      99925    2    3    3    0    0 -0.33405952196E+02  0.59701191268E+02 -0.64080422834E+02  0.27929363675E+03  0.26309398522E+03 0.  0.
         25    1    3    3    0    0  0.33405952196E+02 -0.59701191268E+02  0.98746481163E+02  0.17343173159E+03  0.12509000000E+03 0.  0.
         25    1    4    4    0    0 -0.38349519685E+02 -0.91920662537E+00 -0.14554492569E+02  0.13164676963E+03  0.12509000000E+03 0.  0.
         25    1    4    4    0    0  0.49435674895E+01  0.60620397893E+02 -0.49525930265E+02  0.14764686711E+03  0.12509000000E+03 0.  0.
<mgrwt>
<rscale>  2 0.45139619E+03</rscale>
<asrwt>0</asrwt>
<pdfrwt beam="1">  1       21 0.35837605E-01 0.45139619E+03</pdfrwt>
<pdfrwt beam="2">  1       21 0.30739655E-01 0.45139619E+03</pdfrwt>
<totfact> 0.70724613E+04</totfact>
</mgrwt>
</event>
<event>
 7    0  0.4793433E-002  0.4548629E+03  0.7546771E-02  0.1026282E+00
         21   -1    0    0  502  501  0.00000000000E+00  0.00000000000E+00  0.13914318794E+03  0.13914318794E+03  0.00000000000E+00 0.  1.
         21   -1    0    0  501  502 -0.00000000000E+00 -0.00000000000E+00 -0.37173985763E+03  0.37173985763E+03  0.00000000000E+00 0.  1.
      99926    2    1    2    0    0 -0.14210854715E-13 -0.71054273576E-14 -0.23259666969E+03  0.51088304558E+03  0.45486291947E+03 0.  0.
      99925    2    3    3    0    0 -0.90023140982E+02 -0.50372981809E+02 -0.19851223931E+03  0.34520003588E+03  0.26289608671E+03 0.  0.
         25    1    4    4    0    0 -0.82498390193E+02 -0.41973597608E+02 -0.93948854387E+02  0.18177365767E+03  0.12509000000E+03 0.  0.
         25    1    3    3    0    0  0.90023140982E+02  0.50372981809E+02 -0.34084430381E+02  0.16568300970E+03  0.12509000000E+03 0.  0.
         25    1    4    4    0    0 -0.75247507895E+01 -0.83993842011E+01 -0.10456338492E+03  0.16342637821E+03  0.12509000000E+03 0.  0.
<mgrwt>
<rscale>  2 0.45486292E+03</rscale>
<asrwt>0</asrwt>
<pdfrwt beam="1">  1       21 0.20462234E-01 0.45486292E+03</pdfrwt>
<pdfrwt beam="2">  1       21 0.54667624E-01 0.45486292E+03</pdfrwt>
<totfact> 0.64582889E+04</totfact>
</mgrwt>
</event>
<event>
 7    0  0.4793433E-002  0.4566600E+03  0.7546771E-02  0.1025754E+00
         21   -1    0    0  502  501  0.00000000000E+00  0.00000000000E+00  0.11470926937E+04  0.11470926937E+04  0.00000000000E+00 0. -1.
         21   -1    0    0  501  502 -0.00000000000E+00 -0.00000000000E+00 -0.45449316628E+02  0.45449316628E+02  0.00000000000E+00 0. -1.
      99926    2    1    2    0    0  0.00000000000E+00 -0.14210854715E-13  0.11016433771E+04  0.11925420103E+04  0.45665995681E+03 0.  0.
      99925    2    3    3    0    0 -0.66945307531E+02 -0.90173583859E+02  0.76431222971E+03  0.81564313728E+03  0.26170134405E+03 0.  0.
         25    1    4    4    0    0 -0.40368645708E+02 -0.79416444269E+01  0.39000708091E+03  0.41163786090E+03  0.12509000000E+03 0.  0.
         25    1    4    4    0    0 -0.26576661823E+02 -0.82231939432E+02  0.37430514881E+03  0.40400527638E+03  0.12509000000E+03 0.  0.
         25    1    3    3    0    0  0.66945307531E+02  0.90173583859E+02  0.33733114736E+03  0.37689887304E+03  0.12509000000E+03 0.  0.
<mgrwt>
<rscale>  2 0.45665996E+03</rscale>
<asrwt>0</asrwt>
<pdfrwt beam="1">  1       21 0.16869008E+00 0.45665996E+03</pdfrwt>
<pdfrwt beam="2">  1       21 0.66837238E-02 0.45665996E+03</pdfrwt>
<totfact> 0.31977681E+04</totfact>
</mgrwt>
</event>
<event>
 7    0  0.4793433E-002  0.4251144E+03  0.7546771E-02  0.1035414E+00
         21   -1    0    0  502  501  0.00000000000E+00  0.00000000000E+00  0.47495731472E+03  0.47495731472E+03  0.00000000000E+00 0. -1.
         21   -1    0    0  501  502 -0.00000000000E+00 -0.00000000000E+00 -0.95125539735E+02  0.95125539735E+02  0.00000000000E+00 0. -1.
      99926    2    1    2    0    0  0.88817841970E-15  0.00000000000E+00  0.37983177499E+03  0.57008285446E+03  0.42511443595E+03 0.  0.
      99925    2    3    3    0    0  0.66616148932E+01  0.72830354619E+02  0.29711275915E+03  0.40323387679E+03  0.26262697896E+03 0.  0.
         25    1    4    4    0    0 -0.79034065028E+01  0.57174674216E+01  0.10311915490E+03  0.16240757826E+03  0.12509000000E+03 0.  0.
         25    1    3    3    0    0 -0.66616148932E+01 -0.72830354619E+02  0.82719015837E+02  0.16684897767E+03  0.12509000000E+03 0.  0.
         25    1    4    4    0    0  0.14565021396E+02  0.67112887198E+02  0.19399360425E+03  0.24082629853E+03  0.12509000000E+03 0.  0.
<mgrwt>
<rscale>  2 0.42511444E+03</rscale>
<asrwt>0</asrwt>
<pdfrwt beam="1">  1       21 0.69846663E-01 0.42511444E+03</pdfrwt>
<pdfrwt beam="2">  1       21 0.13989050E-01 0.42511444E+03</pdfrwt>
<totfact> 0.77260775E+04</totfact>
</mgrwt>
</event>
<event>
 7    0  0.4793433E-002  0.4553358E+03  0.7546771E-02  0.1026143E+00
         21   -1    0    0  502  501  0.00000000000E+00  0.00000000000E+00  0.86583874530E+02  0.86583874530E+02  0.00000000000E+00 0. -1.
         21   -1    0    0  501  502 -0.00000000000E+00 -0.00000000000E+00 -0.59864121079E+03  0.59864121079E+03  0.00000000000E+00 0. -1.
      99926    2    1    2    0    0  0.00000000000E+00  0.00000000000E+00 -0.51205733626E+03  0.68522508532E+03  0.45533581227E+03 0.  0.
      99925    2    3    3    0    0  0.55445567845E+02  0.94431952087E+02 -0.27830213808E+03  0.39837912431E+03  0.26317720658E+03 0.  0.
         25    1    4    4    0    0  0.25754229809E+02  0.42319661718E+02 -0.19386380438E+03  0.23597651763E+03  0.12509000000E+03 0.  0.
         25    1    3    3    0    0 -0.55445567845E+02 -0.94431952087E+02 -0.23375519819E+03  0.28684596101E+03  0.12509000000E+03 0.  0.
         25    1    4    4    0    0  0.29691338036E+02  0.52112290369E+02 -0.84438333695E+02  0.16240260669E+03  0.12509000000E+03 0.  0.
<mgrwt>
<rscale>  2 0.45533581E+03</rscale>
<asrwt>0</asrwt>
<pdfrwt beam="1">  1       21 0.12732922E-01 0.45533581E+03</pdfrwt>
<pdfrwt beam="2">  1       21 0.88035477E-01 0.45533581E+03</pdfrwt>
<totfact> 0.53570952E+04</totfact>
</mgrwt>
</event>
<event>
 7    0  0.4793433E-002  0.4552372E+03  0.7546771E-02  0.1026172E+00
         21   -1    0    0  502  501  0.00000000000E+00  0.00000000000E+00  0.62938911089E+03  0.62938911089E+03  0.00000000000E+00 0. -1.
         21   -1    0    0  501  502 -0.00000000000E+00 -0.00000000000E+00 -0.82318261385E+02  0.82318261385E+02  0.00000000000E+00 0. -1.
      99926    2    1    2    0    0  0.00000000000E+00  0.00000000000E+00  0.54707084951E+03  0.71170737228E+03  0.45523715729E+03 0.  0.
      99925    2    3    3    0    0 -0.49223831712E+02 -0.96003566930E+02  0.28895244323E+03  0.40525625018E+03  0.26286772985E+03 0.  0.
         25    1    4    4    0    0 -0.59211765895E+02 -0.64840138821E+02  0.13235702060E+03  0.20217854937E+03  0.12509000000E+03 0.  0.
         25    1    4    4    0    0  0.99879341837E+01 -0.31163428108E+02  0.15659542262E+03  0.20307770081E+03  0.12509000000E+03 0.  0.
         25    1    3    3    0    0  0.49223831712E+02  0.96003566930E+02  0.25811840628E+03  0.30645112209E+03  0.12509000000E+03 0.  0.
<mgrwt>
<rscale>  2 0.45523716E+03</rscale>
<asrwt>0</asrwt>
<pdfrwt beam="1">  1       21 0.92557220E-01 0.45523716E+03</pdfrwt>
<pdfrwt beam="2">  1       21 0.12105627E-01 0.45523716E+03</pdfrwt>
<totfact> 0.52174531E+04</totfact>
</mgrwt>
</event>
<event>
 7    0  0.4793433E-002  0.4554196E+03  0.7546771E-02  0.1026118E+00
         21   -1    0    0  502  501  0.00000000000E+00  0.00000000000E+00  0.30875715277E+02  0.30875715277E+02  0.00000000000E+00 0.  1.
         21   -1    0    0  501  502 -0.00000000000E+00 -0.00000000000E+00 -0.16793704413E+04  0.16793704413E+04  0.00000000000E+00 0.  1.
      99926    2    1    2    0    0  0.00000000000E+00  0.00000000000E+00 -0.16484947261E+04  0.17102461566E+04  0.45541964644E+03 0.  0.
      99925    2    3    3    0    0  0.98104806915E+02 -0.54563333973E+02 -0.97314793977E+03  0.10142989600E+04  0.26302805388E+03 0.  0.
         25    1    3    3    0    0 -0.98104806915E+02  0.54563333973E+02 -0.67534678630E+03  0.69594719658E+03  0.12509000000E+03 0.  0.
         25    1    4    4    0    0  0.47495112687E+02  0.26709358328E+01 -0.36575482941E+03  0.38947018238E+03  0.12509000000E+03 0.  0.
         25    1    4    4    0    0  0.50609694228E+02 -0.57234269805E+02 -0.60739311036E+03  0.62482877766E+03  0.12509000000E+03 0.  0.
<mgrwt>
<rscale>  2 0.45541965E+03</rscale>
<asrwt>0</asrwt>
<pdfrwt beam="1">  1       21 0.45405467E-02 0.45541965E+03</pdfrwt>
<pdfrwt beam="2">  1       21 0.24696622E+00 0.45541965E+03</pdfrwt>
<totfact> 0.18987533E+04</totfact>
</mgrwt>
</event>
<event>
 7    0  0.4793433E-002  0.4409426E+03  0.7546771E-02  0.1030458E+00
         21   -1    0    0  502  501  0.00000000000E+00  0.00000000000E+00  0.15129566216E+04  0.15129566216E+04  0.00000000000E+00 0. -1.
         21   -1    0    0  501  502 -0.00000000000E+00 -0.00000000000E+00 -0.32127553480E+02  0.32127553480E+02  0.00000000000E+00 0. -1.
      99926    2    1    2    0    0 -0.26645352591E-14  0.35527136788E-14  0.14808290681E+04  0.15450841751E+04  0.44094260294E+03 0.  0.
      99925    2    3    3    0    0 -0.23222795065E+01 -0.18565994092E+02  0.60214895575E+03  0.65734753784E+03  0.26300633353E+03 0.  0.
         25    1    4    4    0    0  0.20804708027E+02 -0.76418670809E+01  0.21544071271E+03  0.25010686276E+03  0.12509000000E+03 0.  0.
         25    1    3    3    0    0  0.23222795065E+01  0.18565994092E+02  0.87868011235E+03  0.88773663721E+03  0.12509000000E+03 0.  0.
         25    1    4    4    0    0 -0.23126987533E+02 -0.10924127011E+02  0.38670824304E+03  0.40724067508E+03  0.12509000000E+03 0.  0.
<mgrwt>
<rscale>  2 0.44094260E+03</rscale>
<asrwt>0</asrwt>
<pdfrwt beam="1">  1       21 0.22249357E+00 0.44094260E+03</pdfrwt>
<pdfrwt beam="2">  1       21 0.47246412E-02 0.44094260E+03</pdfrwt>
<totfact> 0.25352593E+04</totfact>
</mgrwt>
</event>
<event>
 7    0  0.4793433E-002  0.4570896E+03  0.7546771E-02  0.1025629E+00
         21   -1    0    0  502  501  0.00000000000E+00  0.00000000000E+00  0.24166140503E+03  0.24166140503E+03  0.00000000000E+00 0.  1.
         21   -1    0    0  501  502 -0.00000000000E+00 -0.00000000000E+00 -0.21614014713E+03  0.21614014713E+03  0.00000000000E+00 0.  1.
      99926    2    1    2    0    0  0.00000000000E+00  0.14210854715E-13  0.25521257899E+02  0.45780155215E+03  0.45708962639E+03 0.  0.
      99925    2    3    3    0    0 -0.62131390709E+02  0.69215962831E+02 -0.52265452043E+02  0.28359064674E+03  0.26275619539E+03 0.  0.
         25    1    3    3    0    0  0.62131390709E+02 -0.69215962831E+02  0.77786709942E+02  0.17421090542E+03  0.12509000000E+03 0.  0.
         25    1    4    4    0    0 -0.48327921575E+02 -0.17307486402E+01 -0.29824482487E+02  0.13738846877E+03  0.12509000000E+03 0.  0.
         25    1    4    4    0    0 -0.13803469133E+02  0.70946711471E+02 -0.22440969556E+02  0.14620217797E+03  0.12509000000E+03 0.  0.
<mgrwt>
<rscale>  2 0.45708963E+03</rscale>
<asrwt>0</asrwt>
<pdfrwt beam="1">  1       21 0.35538442E-01 0.45708963E+03</pdfrwt>
<pdfrwt beam="2">  1       21 0.31785316E-01 0.45708963E+03</pdfrwt>
<totfact> 0.67213426E+04</totfact>
</mgrwt>
</event>
<event>
 7    0  0.4793433E-002  0.4566140E+03  0.7546771E-02  0.1025768E+00
         21   -1    0    0  502  501  0.00000000000E+00  0.00000000000E+00  0.81399535756E+02  0.81399535756E+02  0.00000000000E+00 0. -1.
         21   -1    0    0  501  502 -0.00000000000E+00 -0.00000000000E+00 -0.64034878802E+03  0.64034878802E+03  0.00000000000E+00 0. -1.
      99926    2    1    2    0    0  0.00000000000E+00  0.00000000000E+00 -0.55894925227E+03  0.72174832378E+03  0.45661403424E+03 0.  0.
      99925    2    3    3    0    0 -0.99549156867E+02  0.37917158806E+02 -0.41837654337E+03  0.50551710459E+03  0.26298453458E+03 0.  0.
         25    1    3    3    0    0  0.99549156867E+02 -0.37917158806E+02 -0.14057270890E+03  0.21623121919E+03  0.12509000000E+03 0.  0.
         25    1    4    4    0    0 -0.85996655955E+02  0.22099598890E+02 -0.26811012862E+03  0.30889215962E+03  0.12509000000E+03 0.  0.
         25    1    4    4    0    0 -0.13552500913E+02  0.15817559917E+02 -0.15026641475E+03  0.19662494497E+03  0.12509000000E+03 0.  0.
<mgrwt>
<rscale>  2 0.45661403E+03</rscale>
<asrwt>0</asrwt>
<pdfrwt beam="1">  1       21 0.11970520E-01 0.45661403E+03</pdfrwt>
<pdfrwt beam="2">  1       21 0.94168936E-01 0.45661403E+03</pdfrwt>
<totfact> 0.51086438E+04</totfact>
</mgrwt>
</event>
<event>
 7    0  0.4793433E-002  0.4487240E+03  0.7546771E-02  0.1028103E+00
         21   -1    0    0  502  501  0.00000000000E+00  0.00000000000E+00  0.14525781380E+03  0.14525781380E+03  0.00000000000E+00 0.  1.
         21   -1    0    0  501  502 -0.00000000000E+00 -0.00000000000E+00 -0.34654457539E+03  0.34654457539E+03  0.00000000000E+00 0.  1.
      99926    2    1    2    0    0 -0.14210854715E-13  0.00000000000E+00 -0.20128676159E+03  0.49180238919E+03  0.44872400161E+03 0.  0.
      99925    2    3    3    0    0  0.77448482223E+02 -0.34560149530E+02 -0.56340682254E+02  0.28239955887E+03  0.26340570806E+03 0.  0.
         25    1    4    4    0    0 -0.14791726015E+01 -0.30411704503E+02 -0.27571248958E+02  0.13166146586E+03  0.12509000000E+03 0.  0.
         25    1    4    4    0    0  0.78927654824E+02 -0.41484450268E+01 -0.28769433296E+02  0.15073809301E+03  0.12509000000E+03 0.  0.
         25    1    3    3    0    0 -0.77448482223E+02  0.34560149530E+02 -0.14494607933E+03  0.20940283032E+03  0.12509000000E+03 0.  0.
<mgrwt>
<rscale>  2 0.44872400E+03</rscale>
<asrwt>0</asrwt>
<pdfrwt beam="1">  1       21 0.21361443E-01 0.44872400E+03</pdfrwt>
<pdfrwt beam="2">  1       21 0.50962437E-01 0.44872400E+03</pdfrwt>
<totfact> 0.69236210E+04</totfact>
</mgrwt>
</event>
<event>
 7    0  0.4793433E-002  0.4567485E+03  0.7546771E-02  0.1025728E+00
         21   -1    0    0  502  501  0.00000000000E+00  0.00000000000E+00  0.99986810865E+02  0.99986810865E+02  0.00000000000E+00 0. -1.
         21   -1    0    0  501  502 -0.00000000000E+00 -0.00000000000E+00 -0.52161679625E+03  0.52161679625E+03  0.00000000000E+00 0. -1.
      99926    2    1    2    0    0 -0.71054273576E-14  0.00000000000E+00 -0.42162998539E+03  0.62160360712E+03  0.45674850827E+03 0.  0.
      99925    2    3    3    0    0  0.49513060360E+02  0.74851366998E+02 -0.36234629497E+03  0.45662986879E+03  0.26298617702E+03 0.  0.
         25    1    4    4    0    0  0.60942891315E+02  0.19425739889E+02 -0.18895824934E+03  0.23546575858E+03  0.12509000000E+03 0.  0.
         25    1    3    3    0    0 -0.49513060360E+02 -0.74851366998E+02 -0.59283690414E+02  0.16497373832E+03  0.12509000000E+03 0.  0.
         25    1    4    4    0    0 -0.11429830956E+02  0.55425627109E+02 -0.17338804563E+03  0.22116411021E+03  0.12509000000E+03 0.  0.
<mgrwt>
<rscale>  2 0.45674851E+03</rscale>
<asrwt>0</asrwt>
<pdfrwt beam="1">  1       21 0.14703943E-01 0.45674851E+03</pdfrwt>
<pdfrwt beam="2">  1       21 0.76708352E-01 0.45674851E+03</pdfrwt>
<totfact> 0.56582562E+04</totfact>
</mgrwt>
</event>
<event>
 7    0  0.4793433E-002  0.4576632E+03  0.7546771E-02  0.1025461E+00
         21   -1    0    0  502  501  0.00000000000E+00  0.00000000000E+00  0.93949187616E+02  0.93949187616E+02  0.00000000000E+00 0.  1.
         21   -1    0    0  501  502 -0.00000000000E+00 -0.00000000000E+00 -0.55736403880E+03  0.55736403880E+03  0.00000000000E+00 0.  1.
      99926    2    1    2    0    0  0.00000000000E+00  0.14210854715E-13 -0.46341485119E+03  0.65131322642E+03  0.45766318904E+03 0.  0.
      99925    2    3    3    0    0  0.78717651798E+02  0.84602854075E+02 -0.29766454945E+03  0.41366899180E+03  0.26298999820E+03 0.  0.
         25    1    3    3    0    0 -0.78717651798E+02 -0.84602854075E+02 -0.16575030174E+03  0.23764423462E+03  0.12509000000E+03 0.  0.
         25    1    4    4    0    0  0.49251315585E+02  0.30693365727E+01 -0.15291512470E+03  0.20363117731E+03  0.12509000000E+03 0.  0.
         25    1    4    4    0    0  0.29466336214E+02  0.81533517502E+02 -0.14474942476E+03  0.21003781448E+03  0.12509000000E+03 0.  0.
<mgrwt>
<rscale>  2 0.45766319E+03</rscale>
<asrwt>0</asrwt>
<pdfrwt beam="1">  1       21 0.13816057E-01 0.45766319E+03</pdfrwt>
<pdfrwt beam="2">  1       21 0.81965299E-01 0.45766319E+03</pdfrwt>
<totfact> 0.54472417E+04</totfact>
</mgrwt>
</event>
<event>
 7    0  0.4793433E-002  0.4580926E+03  0.7546771E-02  0.1025336E+00
         21   -1    0    0  502  501  0.00000000000E+00  0.00000000000E+00  0.26445309655E+04  0.26445309655E+04  0.00000000000E+00 0. -1.
         21   -1    0    0  501  502 -0.00000000000E+00 -0.00000000000E+00 -0.19838001266E+02  0.19838001266E+02  0.00000000000E+00 0. -1.
      99926    2    1    2    0    0  0.00000000000E+00  0.00000000000E+00  0.26246929643E+04  0.26643689668E+04  0.45809260480E+03 0.  0.
      99925    2    3    3    0    0  0.48151489287E+02 -0.68715945151E+02  0.21134237911E+04  0.21313735423E+04  0.26296883630E+03 0.  0.
         25    1    3    3    0    0 -0.48151489287E+02  0.68715945151E+02  0.51126917317E+03  0.53299542453E+03  0.12509000000E+03 0.  0.
         25    1    4    4    0    0 -0.60886901929E+01 -0.46604673556E+02  0.85290158298E+03  0.86330625278E+03  0.12509000000E+03 0.  0.
         25    1    4    4    0    0  0.54240179480E+02 -0.22111271595E+02  0.12605222081E+04  0.12680672895E+04  0.12509000000E+03 0.  0.
<mgrwt>
<rscale>  2 0.45809260E+03</rscale>
<asrwt>0</asrwt>
<pdfrwt beam="1">  1       21 0.38890137E+00 0.45809260E+03</pdfrwt>
<pdfrwt beam="2">  1       21 0.29173550E-02 0.45809260E+03</pdfrwt>
<totfact> 0.54596552E+03</totfact>
</mgrwt>
</event>
<event>
 7    0  0.4793433E-002  0.4592067E+03  0.7546771E-02  0.1025012E+00
         21   -1    0    0  502  501  0.00000000000E+00  0.00000000000E+00  0.20048930699E+03  0.20048930699E+03  0.00000000000E+00 0. -1.
         21   -1    0    0  501  502 -0.00000000000E+00 -0.00000000000E+00 -0.26294522481E+03  0.26294522481E+03  0.00000000000E+00 0. -1.
      99926    2    1    2    0    0  0.14210854715E-13  0.00000000000E+00 -0.62455917816E+02  0.46343453180E+03  0.45920673296E+03 0.  0.
      99925    2    3    3    0    0 -0.75620170084E+02 -0.41455474278E+02  0.40545776858E+02  0.27987575735E+03  0.26315302214E+03 0.  0.
         25    1    3    3    0    0  0.75620170084E+02  0.41455474278E+02 -0.10300169467E+03  0.18355877445E+03  0.12509000000E+03 0.  0.
         25    1    4    4    0    0 -0.18014605586E+02  0.44490494070E+00 -0.11273205288E+02  0.12688308482E+03  0.12509000000E+03 0.  0.
         25    1    4    4    0    0 -0.57605564498E+02 -0.41900379219E+02  0.51818982146E+02  0.15299267254E+03  0.12509000000E+03 0.  0.
<mgrwt>
<rscale>  2 0.45920673E+03</rscale>
<asrwt>0</asrwt>
<pdfrwt beam="1">  1       21 0.29483722E-01 0.45920673E+03</pdfrwt>
<pdfrwt beam="2">  1       21 0.38668415E-01 0.45920673E+03</pdfrwt>
<totfact> 0.65699107E+04</totfact>
</mgrwt>
</event>
<event>
 7    0  0.4793433E-002  0.4586757E+03  0.7546771E-02  0.1025166E+00
         21   -1    0    0  502  501  0.00000000000E+00  0.00000000000E+00  0.18695821276E+03  0.18695821276E+03  0.00000000000E+00 0.  1.
         21   -1    0    0  501  502 -0.00000000000E+00 -0.00000000000E+00 -0.28132407518E+03  0.28132407518E+03  0.00000000000E+00 0.  1.
      99926    2    1    2    0    0  0.00000000000E+00  0.00000000000E+00 -0.94365862426E+02  0.46828228794E+03  0.45867568631E+03 0.  0.
      99925    2    3    3    0    0  0.28572198475E+02 -0.10407670510E+03 -0.10428650037E+03  0.30277017894E+03  0.26295584425E+03 0.  0.
         25    1    4    4    0    0 -0.24646811711E+02 -0.61770800271E+02 -0.57707965737E+02  0.15297324767E+03  0.12509000000E+03 0.  0.
         25    1    4    4    0    0  0.53219010187E+02 -0.42305904827E+02 -0.46578534634E+02  0.14979693127E+03  0.12509000000E+03 0.  0.
         25    1    3    3    0    0 -0.28572198475E+02  0.10407670510E+03  0.99206379444E+01  0.16551210900E+03  0.12509000000E+03 0.  0.
<mgrwt>
<rscale>  2 0.45867569E+03</rscale>
<asrwt>0</asrwt>
<pdfrwt beam="1">  1       21 0.27493855E-01 0.45867569E+03</pdfrwt>
<pdfrwt beam="2">  1       21 0.41371187E-01 0.45867569E+03</pdfrwt>
<totfact> 0.65628682E+04</totfact>
</mgrwt>
</event>
<event>
 7    0  0.4793433E-002  0.4480265E+03  0.7546771E-02  0.1028312E+00
         21   -1    0    0  502  501  0.00000000000E+00  0.00000000000E+00  0.30598865927E+03  0.30598865927E+03  0.00000000000E+00 0.  1.
         21   -1    0    0  501  502 -0.00000000000E+00 -0.00000000000E+00 -0.16399931803E+03  0.16399931803E+03  0.00000000000E+00 0.  1.
      99926    2    1    2    0    0 -0.35527136788E-14 -0.71054273576E-14  0.14198934124E+03  0.46998797730E+03  0.44802647888E+03 0.  0.
      99925    2    3    3    0    0 -0.20963461224E+02 -0.60087547393E+02  0.47679563850E+00  0.27068095605E+03  0.26309308728E+03 0.  0.
         25    1    4    4    0    0  0.87979820786E+01 -0.26322028545E+02  0.35966785448E+02  0.13308407655E+03  0.12509000000E+03 0.  0.
         25    1    4    4    0    0 -0.29761443303E+02 -0.33765518848E+02 -0.35489989809E+02  0.13759687950E+03  0.12509000000E+03 0.  0.
         25    1    3    3    0    0  0.20963461224E+02  0.60087547393E+02  0.14151254560E+03  0.19930702125E+03  0.12509000000E+03 0.  0.
<mgrwt>
<rscale>  2 0.44802648E+03</rscale>
<asrwt>0</asrwt>
<pdfrwt beam="1">  1       21 0.44998332E-01 0.44802648E+03</pdfrwt>
<pdfrwt beam="2">  1       21 0.24117547E-01 0.44802648E+03</pdfrwt>
<totfact> 0.71301177E+04</totfact>
</mgrwt>
</event>
<event>
 7    0  0.4793433E-002  0.4595351E+03  0.7546771E-02  0.1024916E+00
         21   -1    0    0  502  501  0.00000000000E+00  0.00000000000E+00  0.10614569240E+03  0.10614569240E+03  0.00000000000E+00 0. -1.
         21   -1    0    0  501  502 -0.00000000000E+00 -0.00000000000E+00 -0.49736472904E+03  0.49736472904E+03  0.00000000000E+00 0. -1.
      99926    2    1    2    0    0  0.14210854715E-13  0.00000000000E+00 -0.39121903663E+03  0.60351042144E+03  0.45953508480E+03 0.  0.
      99925    2    3    3    0    0  0.79681351993E+02  0.20164195320E+02 -0.13521240095E+03  0.30695921466E+03  0.26303203886E+03 0.  0.
         25    1    3    3    0    0 -0.79681351993E+02 -0.20164195320E+02 -0.25600663568E+03  0.29655120678E+03  0.12509000000E+03 0.  0.
         25    1    4    4    0    0  0.81795274180E+02  0.15812697439E+02 -0.69680881986E+02  0.16566062203E+03  0.12509000000E+03 0.  0.
         25    1    4    4    0    0 -0.21139221867E+01  0.43514978815E+01 -0.65531518968E+02  0.14129859263E+03  0.12509000000E+03 0.  0.
<mgrwt>
<rscale>  2 0.45953508E+03</rscale>
<asrwt>0</asrwt>
<pdfrwt beam="1">  1       21 0.15609661E-01 0.45953508E+03</pdfrwt>
<pdfrwt beam="2">  1       21 0.73141871E-01 0.45953508E+03</pdfrwt>
<totfact> 0.56414058E+04</totfact>
</mgrwt>
</event>
<event>
 7    0  0.4793433E-002  0.4540821E+03  0.7546771E-02  0.1026512E+00
         21   -1    0    0  502  501  0.00000000000E+00  0.00000000000E+00  0.68770021506E+02  0.68770021506E+02  0.00000000000E+00 0. -1.
         21   -1    0    0  501  502 -0.00000000000E+00 -0.00000000000E+00 -0.74956544439E+03  0.74956544439E+03  0.00000000000E+00 0. -1.
      99926    2    1    2    0    0  0.35527136788E-14  0.00000000000E+00 -0.68079542289E+03  0.81833546590E+03  0.45408207069E+03 0.  0.
      99925    2    3    3    0    0 -0.22464039908E+02  0.10912260573E+03 -0.40289345021E+03  0.49385219871E+03  0.26297240497E+03 0.  0.
         25    1    3    3    0    0  0.22464039908E+02 -0.10912260573E+03 -0.27790197267E+03  0.32448326719E+03  0.12509000000E+03 0.  0.
         25    1    4    4    0    0  0.13864228922E+02  0.61171483531E+02 -0.25602167333E+03  0.29176835427E+03  0.12509000000E+03 0.  0.
         25    1    4    4    0    0 -0.36328268831E+02  0.47951122200E+02 -0.14687177688E+03  0.20208384443E+03  0.12509000000E+03 0.  0.
<mgrwt>
<rscale>  2 0.45408207E+03</rscale>
<asrwt>0</asrwt>
<pdfrwt beam="1">  1       21 0.10113238E-01 0.45408207E+03</pdfrwt>
<pdfrwt beam="2">  1       21 0.11023022E+00 0.45408207E+03</pdfrwt>
<totfact> 0.47229972E+04</totfact>
</mgrwt>
</event>
<event>
 7    0  0.4793433E-002  0.4562716E+03  0.7546771E-02  0.1025868E+00
         21   -1    0    0  502  501  0.00000000000E+00  0.00000000000E+00  0.86125694058E+03  0.86125694058E+03  0.00000000000E+00 0. -1.
         21   -1    0    0  501  502 -0.00000000000E+00 -0.00000000000E+00 -0.60430215750E+02  0.60430215750E+02  0.00000000000E+00 0. -1.
      99926    2    1    2    0    0  0.00000000000E+00  0.00000000000E+00  0.80082672483E+03  0.92168715633E+03  0.45627159778E+03 0.  0.
      99925    2    3    3    0    0 -0.64264543371E+02  0.93773516375E+02  0.47730374987E+03  0.55666931110E+03  0.26294191065E+03 0.  0.
         25    1    4    4    0    0 -0.61754863906E+02  0.76549466015E+02  0.24232411598E+03  0.28989992971E+03  0.12509000000E+03 0.  0.
         25    1    3    3    0    0  0.64264543371E+02 -0.93773516375E+02  0.32352297495E+03  0.36501784522E+03  0.12509000000E+03 0.  0.
         25    1    4    4    0    0 -0.25096794643E+01  0.17224050360E+02  0.23497963390E+03  0.26676938139E+03  0.12509000000E+03 0.  0.
<mgrwt>
<rscale>  2 0.45627160E+03</rscale>
<asrwt>0</asrwt>
<pdfrwt beam="1">  1       21 0.12665542E+00 0.45627160E+03</pdfrwt>
<pdfrwt beam="2">  1       21 0.88867970E-02 0.45627160E+03</pdfrwt>
<totfact> 0.41890892E+04</totfact>
</mgrwt>
</event>
<event>
 7    0  0.4793433E-002  0.4579355E+03  0.7546771E-02  0.1025382E+00
         21   -1    0    0  502  501  0.00000000000E+00  0.00000000000E+00  0.72850394503E+03  0.72850394503E+03  0.00000000000E+00 0.  1.
         21   -1    0    0  501  502 -0.00000000000E+00 -0.00000000000E+00 -0.71964239155E+02  0.71964239155E+02  0.00000000000E+00 0.  1.
      99926    2    1    2    0    0  0.00000000000E+00  0.00000000000E+00  0.65653970587E+03  0.80046818419E+03  0.45793550693E+03 0.  0.
      99925    2    3    3    0    0  0.31439268764E+02  0.10186296198E+03  0.33348428849E+03  0.43800880516E+03  0.26320230258E+03 0.  0.
         25    1    4    4    0    0  0.31746728580E+02  0.20245767060E+02  0.19233891540E+03  0.23250701567E+03  0.12509000000E+03 0.  0.
         25    1    4    4    0    0 -0.30745981567E+00  0.81617194918E+02  0.14114537309E+03  0.20550178949E+03  0.12509000000E+03 0.  0.
         25    1    3    3    0    0 -0.31439268764E+02 -0.10186296198E+03  0.32305541738E+03  0.36245937902E+03  0.12509000000E+03 0.  0.
<mgrwt>
<rscale>  2 0.45793551E+03</rscale>
<asrwt>0</asrwt>
<pdfrwt beam="1">  1       21 0.10713293E+00 0.45793551E+03</pdfrwt>
<pdfrwt beam="2">  1       21 0.10582977E-01 0.45793551E+03</pdfrwt>
<totfact> 0.46657983E+04</totfact>
</mgrwt>
</event>
<event>
 7    0  0.4793433E-002  0.4579481E+03  0.7546771E-02  0.1025378E+00
         21   -1    0    0  502  501  0.00000000000E+00  0.00000000000E+00  0.28278741590E+03  0.28278741590E+03  0.00000000000E+00 0.  1.
         21   -1    0    0  501  502 -0.00000000000E+00 -0.00000000000E+00 -0.18540119403E+03  0.18540119403E+03  0.00000000000E+00 0.  1.
      99926    2    1    2    0    0  0.00000000000E+00  0.00000000000E+00  0.97386221871E+02  0.46818860993E+03  0.45794813926E+03 0.  0.
      99925    2    3    3    0    0  0.82938968182E+02  0.33682819633E+02  0.13632680699E+03  0.30951510221E+03  0.26306120088E+03 0.  0.
         25    1    4    4    0    0  0.27777737143E+02  0.41127081313E+02  0.10058586262E+03  0.16801209289E+03  0.12509000000E+03 0.  0.
         25    1    4    4    0    0  0.55161231039E+02 -0.74442616806E+01  0.35740944370E+02  0.14150300932E+03  0.12509000000E+03 0.  0.
         25    1    3    3    0    0 -0.82938968182E+02 -0.33682819633E+02 -0.38940585123E+02  0.15867350772E+03  0.12509000000E+03 0.  0.
<mgrwt>
<rscale>  2 0.45794814E+03</rscale>
<asrwt>0</asrwt>
<pdfrwt beam="1">  1       21 0.41586385E-01 0.45794814E+03</pdfrwt>
<pdfrwt beam="2">  1       21 0.27264881E-01 0.45794814E+03</pdfrwt>
<totfact> 0.66013640E+04</totfact>
</mgrwt>
</event>
<event>
 7    0  0.4793433E-002  0.4546223E+03  0.7546771E-02  0.1026353E+00
         21   -1    0    0  502  501  0.00000000000E+00  0.00000000000E+00  0.16153286365E+03  0.16153286365E+03  0.00000000000E+00 0. -1.
         21   -1    0    0  501  502 -0.00000000000E+00 -0.00000000000E+00 -0.31987525050E+03  0.31987525050E+03  0.00000000000E+00 0. -1.
      99926    2    1    2    0    0  0.35527136788E-14 -0.35527136788E-14 -0.15834238685E+03  0.48140811416E+03  0.45462232776E+03 0.  0.
      99925    2    3    3    0    0 -0.26759548859E+02  0.31288846297E+02 -0.21092191281E+03  0.33960832570E+03  0.26296519964E+03 0.  0.
         25    1    4    4    0    0 -0.25865580457E+02  0.15336548246E+02 -0.57247809457E+02  0.14081568717E+03  0.12509000000E+03 0.  0.
         25    1    3    3    0    0  0.26759548859E+02 -0.31288846297E+02  0.52579525957E+02  0.14179978846E+03  0.12509000000E+03 0.  0.
         25    1    4    4    0    0 -0.89396840144E+00  0.15952298051E+02 -0.15367410335E+03  0.19879263853E+03  0.12509000000E+03 0.  0.
<mgrwt>
<rscale>  2 0.45462233E+03</rscale>
<asrwt>0</asrwt>
<pdfrwt beam="1">  1       21 0.23754833E-01 0.45462233E+03</pdfrwt>
<pdfrwt beam="2">  1       21 0.47040478E-01 0.45462233E+03</pdfrwt>
<totfact> 0.66797770E+04</totfact>
</mgrwt>
</event>
<event>
 7    0  0.4793433E-002  0.4528281E+03  0.7546771E-02  0.1026882E+00
         21   -1    0    0  502  501  0.00000000000E+00  0.00000000000E+00  0.10914522608E+03  0.10914522608E+03  0.00000000000E+00 0. -1.
         21   -1    0    0  501  502 -0.00000000000E+00 -0.00000000000E+00 -0.46967985753E+03  0.46967985753E+03  0.00000000000E+00 0. -1.
      99926    2    1    2    0    0  0.00000000000E+00  0.00000000000E+00 -0.36053463146E+03  0.57882508361E+03  0.45282806554E+03 0.  0.
      99925    2    3    3    0    0  0.67598942183E+02  0.55269609709E+02 -0.13942350247E+03  0.31019525242E+03  0.26297877261E+03 0.  0.
         25    1    3    3    0    0 -0.67598942183E+02 -0.55269609709E+02 -0.22111112899E+03  0.26862983119E+03  0.12509000000E+03 0.  0.
         25    1    4    4    0    0 -0.45565423073E+01  0.24195147702E+02 -0.82702126957E+02  0.15196485499E+03  0.12509000000E+03 0.  0.
         25    1    4    4    0    0  0.72155484490E+02  0.31074462008E+02 -0.56721375510E+02  0.15823039743E+03  0.12509000000E+03 0.  0.
<mgrwt>
<rscale>  2 0.45282807E+03</rscale>
<asrwt>0</asrwt>
<pdfrwt beam="1">  1       21 0.16050768E-01 0.45282807E+03</pdfrwt>
<pdfrwt beam="2">  1       21 0.69070568E-01 0.45282807E+03</pdfrwt>
<totfact> 0.61042375E+04</totfact>
</mgrwt>
</event>
<event>
 7    0  0.4793433E-002  0.4564879E+03  0.7546771E-02  0.1025805E+00
         21   -1    0    0  502  501  0.00000000000E+00  0.00000000000E+00  0.33838510043E+02  0.33838510043E+02  0.00000000000E+00 0.  1.
         21   -1    0    0  501  502 -0.00000000000E+00 -0.00000000000E+00 -0.15395267537E+04  0.15395267537E+04  0.00000000000E+00 0.  1.
      99926    2    1    2    0    0  0.00000000000E+00  0.00000000000E+00 -0.15056882437E+04  0.15733652638E+04  0.45648785972E+03 0.  0.
      99925    2    3    3    0    0 -0.99586172200E+02  0.42973506205E+02 -0.10757532127E+04  0.11126530250E+04  0.26265500494E+03 0.  0.
         25    1    3    3    0    0  0.99586172200E+02 -0.42973506205E+02 -0.42993503101E+03  0.46071223874E+03  0.12509000000E+03 0.  0.
         25    1    4    4    0    0 -0.85834426692E+02  0.11622955663E+02 -0.50921787593E+03  0.53146307038E+03  0.12509000000E+03 0.  0.
         25    1    4    4    0    0 -0.13751745509E+02  0.31350550542E+02 -0.56653533675E+03  0.58118995467E+03  0.12509000000E+03 0.  0.
<mgrwt>
<rscale>  2 0.45648786E+03</rscale>
<asrwt>0</asrwt>
<pdfrwt beam="1">  1       21 0.49762510E-02 0.45648786E+03</pdfrwt>
<pdfrwt beam="2">  1       21 0.22640102E+00 0.45648786E+03</pdfrwt>
<totfact> 0.21784174E+04</totfact>
</mgrwt>
</event>
<event>
 7    0  0.4793433E-002  0.4422910E+03  0.7546771E-02  0.1030046E+00
         21   -1    0    0  502  501  0.00000000000E+00  0.00000000000E+00  0.80977401504E+03  0.80977401504E+03  0.00000000000E+00 0. -1.
         21   -1    0    0  501  502 -0.00000000000E+00 -0.00000000000E+00 -0.60393812187E+02  0.60393812187E+02  0.00000000000E+00 0. -1.
      99926    2    1    2    0    0  0.00000000000E+00  0.00000000000E+00  0.74938020285E+03  0.87016782723E+03  0.44229103440E+03 0.  0.
      99925    2    3    3    0    0 -0.59694968658E+02 -0.80663194846E+02  0.45928895908E+03  0.53870066732E+03  0.26302475311E+03 0.  0.
         25    1    3    3    0    0  0.59694968658E+02  0.80663194846E+02  0.29009124377E+03  0.33146715991E+03  0.12509000000E+03 0.  0.
         25    1    4    4    0    0  0.78291159825E+01 -0.53870331601E+02  0.23801450377E+03  0.27433869539E+03  0.12509000000E+03 0.  0.
         25    1    4    4    0    0 -0.67524084641E+02 -0.26792863245E+02  0.22127445531E+03  0.26436197193E+03  0.12509000000E+03 0.  0.
<mgrwt>
<rscale>  2 0.44229103E+03</rscale>
<asrwt>0</asrwt>
<pdfrwt beam="1">  1       21 0.11908441E+00 0.44229103E+03</pdfrwt>
<pdfrwt beam="2">  1       21 0.88814435E-02 0.44229103E+03</pdfrwt>
<totfact> 0.49273750E+04</totfact>
</mgrwt>
</event>
<event>
 7    0  0.4793433E-002  0.4531097E+03  0.7546771E-02  0.1026799E+00
         21   -1    0    0  502  501  0.00000000000E+00  0.00000000000E+00  0.54109467752E+02  0.54109467752E+02  0.00000000000E+00 0.  1.
         21   -1    0    0  501  502 -0.00000000000E+00 -0.00000000000E+00 -0.94857910221E+03  0.94857910221E+03  0.00000000000E+00 0.  1.
      99926    2    1    2    0    0  0.00000000000E+00 -0.35527136788E-14 -0.89446963446E+03  0.10026885700E+04  0.45310974539E+03 0.  0.
      99925    2    3    3    0    0  0.10512927368E+03  0.29980510073E+02 -0.61000176077E+03  0.67326411060E+03  0.26311864112E+03 0.  0.
         25    1    4    4    0    0  0.10613737160E+02  0.24130910097E+02 -0.26149469629E+03  0.29107032917E+03  0.12509000000E+03 0.  0.
         25    1    3    3    0    0 -0.10512927368E+03 -0.29980510073E+02 -0.28446787368E+03  0.32942445936E+03  0.12509000000E+03 0.  0.
         25    1    4    4    0    0  0.94515536521E+02  0.58495999759E+01 -0.34850706448E+03  0.38219378142E+03  0.12509000000E+03 0.  0.
<mgrwt>
<rscale>  2 0.45310975E+03</rscale>
<asrwt>0</asrwt>
<pdfrwt beam="1">  1       21 0.79572753E-02 0.45310975E+03</pdfrwt>
<pdfrwt beam="2">  1       21 0.13949692E+00 0.45310975E+03</pdfrwt>
<totfact> 0.39644389E+04</totfact>
</mgrwt>
</event>
<event>
 7    0  0.4793433E-002  0.4557427E+03  0.7546771E-02  0.1026023E+00
         21   -1    0    0  502  501  0.00000000000E+00  0.00000000000E+00  0.85256707369E+03  0.85256707369E+03  0.00000000000E+00 0.  1.
         21   -1    0    0  501  502 -0.00000000000E+00 -0.00000000000E+00 -0.60904714635E+02  0.60904714635E+02  0.00000000000E+00 0.  1.
      99926    2    1    2    0    0  0.00000000000E+00  0.00000000000E+00  0.79166235906E+03  0.91347178833E+03  0.45574270957E+03 0.  0.
      99925    2    3    3    0    0  0.91878353209E+02  0.67031821366E+02  0.48576817219E+03  0.56396691207E+03  0.26296970156E+03 0.  0.
         25    1    3    3    0    0 -0.91878353209E+02 -0.67031821366E+02  0.30589418687E+03  0.34950487626E+03  0.12509000000E+03 0.  0.
         25    1    4    4    0    0  0.48113648648E+02 -0.37501686381E+01  0.26403130412E+03  0.29612332668E+03  0.12509000000E+03 0.  0.
         25    1    4    4    0    0  0.43764704561E+02  0.70781990004E+02  0.22173686807E+03  0.26784358539E+03  0.12509000000E+03 0.  0.
<mgrwt>
<rscale>  2 0.45574271E+03</rscale>
<asrwt>0</asrwt>
<pdfrwt beam="1">  1       21 0.12537750E+00 0.45574271E+03</pdfrwt>
<pdfrwt beam="2">  1       21 0.89565762E-02 0.45574271E+03</pdfrwt>
<totfact> 0.42409322E+04</totfact>
</mgrwt>
</event>
<event>
 7    0  0.4793433E-002  0.4541687E+03  0.7546771E-02  0.1026486E+00
         21   -1    0    0  502  501  0.00000000000E+00  0.00000000000E+00  0.38424429924E+03  0.38424429924E+03  0.00000000000E+00 0.  1.
         21   -1    0    0  501  502 -0.00000000000E+00 -0.00000000000E+00 -0.13420446232E+03  0.13420446232E+03  0.00000000000E+00 0.  1.
      99926    2    1    2    0    0  0.00000000000E+00  0.00000000000E+00  0.25003983692E+03  0.51844876156E+03  0.45416868928E+03 0.  0.
      99925    2    3    3    0    0  0.42077579118E+02  0.97525565325E+02  0.11573155798E+03  0.30639221144E+03  0.26306013602E+03 0.  0.
         25    1    4    4    0    0  0.44644279048E+02  0.66407877059E+02  0.93726824329E+02  0.17559995298E+03  0.12509000000E+03 0.  0.
         25    1    4    4    0    0 -0.25666999296E+01  0.31117688266E+02  0.22004733649E+02  0.13079225847E+03  0.12509000000E+03 0.  0.
         25    1    3    3    0    0 -0.42077579118E+02 -0.97525565325E+02  0.13430827894E+03  0.21205655012E+03  0.12509000000E+03 0.  0.
<mgrwt>
<rscale>  2 0.45416869E+03</rscale>
<asrwt>0</asrwt>
<pdfrwt beam="1">  1       21 0.56506514E-01 0.45416869E+03</pdfrwt>
<pdfrwt beam="2">  1       21 0.19735950E-01 0.45416869E+03</pdfrwt>
<totfact> 0.64416908E+04</totfact>
</mgrwt>
</event>
<event>
 7    0  0.4793433E-002  0.4643562E+03  0.7546771E-02  0.1023525E+00
         21   -1    0    0  502  501  0.00000000000E+00  0.00000000000E+00  0.14056822558E+04  0.14056822558E+04  0.00000000000E+00 0.  1.
         21   -1    0    0  501  502 -0.00000000000E+00 -0.00000000000E+00 -0.38349115984E+02  0.38349115984E+02  0.00000000000E+00 0.  1.
      99926    2    1    2    0    0  0.00000000000E+00  0.35527136788E-14  0.13673331399E+04  0.14440313718E+04  0.46435620752E+03 0.  0.
      99925    2    3    3    0    0  0.96579038082E+02  0.24434084422E+02  0.63683636934E+03  0.69623622948E+03  0.26317254957E+03 0.  0.
         25    1    4    4    0    0  0.73455536816E+02 -0.79429932498E+01  0.26971655146E+03  0.30635491388E+03  0.12509000000E+03 0.  0.
         25    1    4    4    0    0  0.23123501266E+02  0.32377077672E+02  0.36711981788E+03  0.38988131560E+03  0.12509000000E+03 0.  0.
         25    1    3    3    0    0 -0.96579038082E+02 -0.24434084422E+02  0.73049677052E+03  0.74779514235E+03  0.12509000000E+03 0.  0.
<mgrwt>
<rscale>  2 0.46435621E+03</rscale>
<asrwt>0</asrwt>
<pdfrwt beam="1">  1       21 0.20671794E+00 0.46435621E+03</pdfrwt>
<pdfrwt beam="2">  1       21 0.56395768E-02 0.46435621E+03</pdfrwt>
<totfact> 0.23431706E+04</totfact>
</mgrwt>
</event>
<event>
 7    0  0.4793433E-002  0.4452927E+03  0.7546771E-02  0.1029135E+00
         21   -1    0    0  502  501  0.00000000000E+00  0.00000000000E+00  0.75508439103E+02  0.75508439103E+02  0.00000000000E+00 0. -1.
         21   -1    0    0  501  502 -0.00000000000E+00 -0.00000000000E+00 -0.65650139114E+03  0.65650139114E+03  0.00000000000E+00 0. -1.
      99926    2    1    2    0    0 -0.14210854715E-13 -0.35527136788E-14 -0.58099295204E+03  0.73200983025E+03  0.44529269167E+03 0.  0.
      99925    2    3    3    0    0  0.80072821880E+02  0.25486252191E+02 -0.26891434224E+03  0.38545280370E+03  0.26305462277E+03 0.  0.
         25    1    3    3    0    0 -0.80072821880E+02 -0.25486252191E+02 -0.31207860980E+03  0.34655702655E+03  0.12509000000E+03 0.  0.
         25    1    4    4    0    0  0.62669629713E+02 -0.19005345800E+02 -0.15479622454E+03  0.20951865046E+03  0.12509000000E+03 0.  0.
         25    1    4    4    0    0  0.17403192167E+02  0.44491597991E+02 -0.11411811770E+03  0.17593415324E+03  0.12509000000E+03 0.  0.
<mgrwt>
<rscale>  2 0.44529269E+03</rscale>
<asrwt>0</asrwt>
<pdfrwt beam="1">  1       21 0.11104182E-01 0.44529269E+03</pdfrwt>
<pdfrwt beam="2">  1       21 0.96544323E-01 0.44529269E+03</pdfrwt>
<totfact> 0.55300998E+04</totfact>
</mgrwt>
</event>
<event>
 7    0  0.4793433E-002  0.4529435E+03  0.7546771E-02  0.1026848E+00
         21   -1    0    0  502  501  0.00000000000E+00  0.00000000000E+00  0.57296472146E+03  0.57296472146E+03  0.00000000000E+00 0.  1.
         21   -1    0    0  501  502 -0.00000000000E+00 -0.00000000000E+00 -0.89515898685E+02  0.89515898685E+02  0.00000000000E+00 0.  1.
      99926    2    1    2    0    0  0.00000000000E+00  0.00000000000E+00  0.48344882278E+03  0.66248062015E+03  0.45294349297E+03 0.  0.
      99925    2    3    3    0    0 -0.65008922831E+02  0.52792425412E+02  0.41181247824E+03  0.49576987008E+03  0.26303050511E+03 0.  0.
         25    1    4    4    0    0 -0.60331079875E+02  0.45832435435E+02  0.17715663635E+03  0.22972251356E+03  0.12509000000E+03 0.  0.
         25    1    4    4    0    0 -0.46778429560E+01  0.69599899775E+01  0.23465584189E+03  0.26604735652E+03  0.12509000000E+03 0.  0.
         25    1    3    3    0    0  0.65008922831E+02 -0.52792425412E+02  0.71636344536E+02  0.16671075006E+03  0.12509000000E+03 0.  0.
<mgrwt>
<rscale>  2 0.45294349E+03</rscale>
<asrwt>0</asrwt>
<pdfrwt beam="1">  1       21 0.84259516E-01 0.45294349E+03</pdfrwt>
<pdfrwt beam="2">  1       21 0.13164103E-01 0.45294349E+03</pdfrwt>
<totfact> 0.55888192E+04</totfact>
</mgrwt>
</event>
<event>
 7    0  0.4793433E-002  0.4472701E+03  0.7546771E-02  0.1028539E+00
         21   -1    0    0  502  501  0.00000000000E+00  0.00000000000E+00  0.27331629176E+03  0.27331629176E+03  0.00000000000E+00 0.  1.
         21   -1    0    0  501  502 -0.00000000000E+00 -0.00000000000E+00 -0.18298443127E+03  0.18298443127E+03  0.00000000000E+00 0.  1.
      99926    2    1    2    0    0  0.00000000000E+00  0.14210854715E-13  0.90331860490E+02  0.45630072304E+03  0.44727005805E+03 0.  0.
      99925    2    3    3    0    0 -0.24679803385E+02 -0.10200893027E+03  0.46308840502E+02  0.28718405048E+03  0.26327790563E+03 0.  0.
         25    1    4    4    0    0  0.24017980183E+02 -0.70309781178E+02  0.22748568747E+02  0.14725941118E+03  0.12509000000E+03 0.  0.
         25    1    4    4    0    0 -0.48697783567E+02 -0.31699149090E+02  0.23560271755E+02  0.13992463930E+03  0.12509000000E+03 0.  0.
         25    1    3    3    0    0  0.24679803385E+02  0.10200893027E+03  0.44023019988E+02  0.16911667256E+03  0.12509000000E+03 0.  0.
<mgrwt>
<rscale>  2 0.44727006E+03</rscale>
<asrwt>0</asrwt>
<pdfrwt beam="1">  1       21 0.40193572E-01 0.44727006E+03</pdfrwt>
<pdfrwt beam="2">  1       21 0.26909475E-01 0.44727006E+03</pdfrwt>
<totfact> 0.72833288E+04</totfact>
</mgrwt>
</event>
<event>
 7    0  0.4793433E-002  0.4550181E+03  0.7546771E-02  0.1026236E+00
         21   -1    0    0  502  501  0.00000000000E+00  0.00000000000E+00  0.40908377793E+03  0.40908377793E+03  0.00000000000E+00 0.  1.
         21   -1    0    0  501  502 -0.00000000000E+00 -0.00000000000E+00 -0.12652753487E+03  0.12652753487E+03  0.00000000000E+00 0.  1.
      99926    2    1    2    0    0  0.00000000000E+00  0.00000000000E+00  0.28255624306E+03  0.53561131280E+03  0.45501807426E+03 0.  0.
      99925    2    3    3    0    0  0.78100125215E+02 -0.80304969979E+02  0.19786134821E+03  0.34754416767E+03  0.26284846891E+03 0.  0.
         25    1    4    4    0    0  0.95307746483E+01 -0.13989152798E+02  0.66946745151E+02  0.14288424283E+03  0.12509000000E+03 0.  0.
         25    1    3    3    0    0 -0.78100125215E+02  0.80304969979E+02  0.84694894856E+02  0.18806714513E+03  0.12509000000E+03 0.  0.
         25    1    4    4    0    0  0.68569350567E+02 -0.66315817181E+02  0.13091460305E+03  0.20465992485E+03  0.12509000000E+03 0.  0.
<mgrwt>
<rscale>  2 0.45501807E+03</rscale>
<asrwt>0</asrwt>
<pdfrwt beam="1">  1       21 0.60159379E-01 0.45501807E+03</pdfrwt>
<pdfrwt beam="2">  1       21 0.18606991E-01 0.45501807E+03</pdfrwt>
<totfact> 0.62818471E+04</totfact>
</mgrwt>
</event>
<event>
 7    0  0.4793433E-002  0.4667502E+03  0.7546771E-02  0.1022841E+00
         21   -1    0    0  502  501  0.00000000000E+00  0.00000000000E+00  0.39439535909E+03  0.39439535909E+03  0.00000000000E+00 0. -1.
         21   -1    0    0  501  502 -0.00000000000E+00 -0.00000000000E+00 -0.13809474289E+03  0.13809474289E+03  0.00000000000E+00 0. -1.
      99926    2    1    2    0    0  0.00000000000E+00  0.00000000000E+00  0.25630061620E+03  0.53249010197E+03  0.46675015033E+03 0.  0.
      99925    2    3    3    0    0  0.91601212996E+02 -0.56122303482E+02  0.23013011634E+03  0.36553831752E+03  0.26290282607E+03 0.  0.
         25    1    3    3    0    0 -0.91601212996E+02  0.56122303482E+02  0.26170499867E+02  0.16695178446E+03  0.12509000000E+03 0.  0.
         25    1    4    4    0    0  0.29388307217E+02  0.10956558715E+02  0.10059846436E+03  0.16355817898E+03  0.12509000000E+03 0.  0.
         25    1    4    4    0    0  0.62212905779E+02 -0.67078862197E+02  0.12953165198E+03  0.20198013854E+03  0.12509000000E+03 0.  0.
<mgrwt>
<rscale>  2 0.46675015E+03</rscale>
<asrwt>0</asrwt>
<pdfrwt beam="1">  1       21 0.57999317E-01 0.46675015E+03</pdfrwt>
<pdfrwt beam="2">  1       21 0.20308051E-01 0.46675015E+03</pdfrwt>
<totfact> 0.57493525E+04</totfact>
</mgrwt>
</event>
<event>
 7    0  0.4793433E-002  0.4557586E+03  0.7546771E-02  0.1026019E+00
         21   -1    0    0  502  501  0.00000000000E+00  0.00000000000E+00  0.40566595296E+03  0.40566595296E+03  0.00000000000E+00 0.  1.
         21   -1    0    0  501  502 -0.00000000000E+00 -0.00000000000E+00 -0.12800920903E+03  0.12800920903E+03  0.00000000000E+00 0.  1.
      99926    2    1    2    0    0 -0.71054273576E-14  0.35527136788E-14  0.27765674393E+03  0.53367516198E+03  0.45575861053E+03 0.  0.
      99925    2    3    3    0    0  0.38792657811E+02  0.11476242807E+02  0.29920060236E+03  0.40045271498E+03  0.26306805591E+03 0.  0.
         25    1    4    4    0    0  0.33958630684E+02 -0.32179293529E+02  0.15320933391E+03  0.20324690312E+03  0.12509000000E+03 0.  0.
         25    1    3    3    0    0 -0.38792657811E+02 -0.11476242807E+02 -0.21543858428E+02  0.13322244700E+03  0.12509000000E+03 0.  0.
         25    1    4    4    0    0  0.48340271266E+01  0.43655536336E+02  0.14599126844E+03  0.19720581186E+03  0.12509000000E+03 0.  0.
<mgrwt>
<rscale>  2 0.45575861E+03</rscale>
<asrwt>0</asrwt>
<pdfrwt beam="1">  1       21 0.59656758E-01 0.45575861E+03</pdfrwt>
<pdfrwt beam="2">  1       21 0.18824884E-01 0.45575861E+03</pdfrwt>
<totfact> 0.62581270E+04</totfact>
</mgrwt>
</event>
<event>
 7    0  0.4793433E-002  0.4626127E+03  0.7546771E-02  0.1024026E+00
         21   -1    0    0  502  501  0.00000000000E+00  0.00000000000E+00  0.68450033731E+02  0.68450033731E+02  0.00000000000E+00 0. -1.
         21   -1    0    0  501  502 -0.00000000000E+00 -0.00000000000E+00 -0.78163047530E+03  0.78163047530E+03  0.00000000000E+00 0. -1.
      99926    2    1    2    0    0 -0.14210854715E-13  0.00000000000E+00 -0.71318044157E+03  0.85008050903E+03  0.46261272096E+03 0.  0.
      99925    2    3    3    0    0  0.99806538722E+02  0.13341107336E+01 -0.32384864738E+03  0.42914122708E+03  0.26328904525E+03 0.  0.
         25    1    4    4    0    0  0.32432085310E+02 -0.13096164488E+02 -0.10133474948E+03  0.16474097619E+03  0.12509000000E+03 0.  0.
         25    1    4    4    0    0  0.67374453412E+02  0.14430275222E+02 -0.22251389789E+03  0.26440025089E+03  0.12509000000E+03 0.  0.
         25    1    3    3    0    0 -0.99806538722E+02 -0.13341107336E+01 -0.38933179419E+03  0.42093928195E+03  0.12509000000E+03 0.  0.
<mgrwt>
<rscale>  2 0.46261272E+03</rscale>
<asrwt>0</asrwt>
<pdfrwt beam="1">  1       21 0.10066182E-01 0.46261272E+03</pdfrwt>
<pdfrwt beam="2">  1       21 0.11494566E+00 0.46261272E+03</pdfrwt>
<totfact> 0.42820691E+04</totfact>
</mgrwt>
</event>
<event>
 7    0  0.4793433E-002  0.4563977E+03  0.7546771E-02  0.1025831E+00
         21   -1    0    0  502  501  0.00000000000E+00  0.00000000000E+00  0.10252950959E+03  0.10252950959E+03  0.00000000000E+00 0. -1.
         21   -1    0    0  501  502 -0.00000000000E+00 -0.00000000000E+00 -0.50789980177E+03  0.50789980177E+03  0.00000000000E+00 0. -1.
      99926    2    1    2    0    0  0.00000000000E+00  0.00000000000E+00 -0.40537029218E+03  0.61042931136E+03  0.45639771075E+03 0.  0.
      99925    2    3    3    0    0 -0.46008899249E+02 -0.47878118366E+02 -0.37956081582E+03  0.46647525550E+03  0.26291370838E+03 0.  0.
         25    1    4    4    0    0 -0.56232051862E+02 -0.30947886482E+02 -0.23891179807E+03  0.27721141876E+03  0.12509000000E+03 0.  0.
         25    1    3    3    0    0  0.46008899249E+02  0.47878118366E+02 -0.25809476359E+02  0.14395405586E+03  0.12509000000E+03 0.  0.
         25    1    4    4    0    0  0.10223152613E+02 -0.16930231885E+02 -0.14064901775E+03  0.18926383673E+03  0.12509000000E+03 0.  0.
<mgrwt>
<rscale>  2 0.45639771E+03</rscale>
<asrwt>0</asrwt>
<pdfrwt beam="1">  1       21 0.15077869E-01 0.45639771E+03</pdfrwt>
<pdfrwt beam="2">  1       21 0.74691148E-01 0.45639771E+03</pdfrwt>
<totfact> 0.57404471E+04</totfact>
</mgrwt>
</event>
<event>
 7    0  0.4793433E-002  0.4519381E+03  0.7546771E-02  0.1027146E+00
         21   -1    0    0  502  501  0.00000000000E+00  0.00000000000E+00  0.81914706739E+02  0.81914706739E+02  0.00000000000E+00 0. -1.
         21   -1    0    0  501  502 -0.00000000000E+00 -0.00000000000E+00 -0.62335586748E+03  0.62335586748E+03  0.00000000000E+00 0. -1.
      99926    2    1    2    0    0  0.00000000000E+00 -0.17763568394E-14 -0.54144116074E+03  0.70527057422E+03  0.45193810673E+03 0.  0.
      99925    2    3    3    0    0 -0.10961447489E+03  0.10252079096E+02 -0.33132903429E+03  0.43710075486E+03  0.26297852138E+03 0.  0.
         25    1    4    4    0    0 -0.80211433156E+02  0.29920974534E+02 -0.21217652595E+03  0.26075951562E+03  0.12509000000E+03 0.  0.
         25    1    3    3    0    0  0.10961447489E+03 -0.10252079096E+02 -0.21011212645E+03  0.26816981936E+03  0.12509000000E+03 0.  0.
         25    1    4    4    0    0 -0.29403041738E+02 -0.19668895437E+02 -0.11915250834E+03  0.17634123924E+03  0.12509000000E+03 0.  0.
<mgrwt>
<rscale>  2 0.45193811E+03</rscale>
<asrwt>0</asrwt>
<pdfrwt beam="1">  1       21 0.12046280E-01 0.45193811E+03</pdfrwt>
<pdfrwt beam="2">  1       21 0.91669982E-01 0.45193811E+03</pdfrwt>
<totfact> 0.53904757E+04</totfact>
</mgrwt>
</event>
<event>
 7    0  0.4793433E-002  0.4556365E+03  0.7546771E-02  0.1026054E+00
         21   -1    0    0  502  501  0.00000000000E+00  0.00000000000E+00  0.15849211388E+03  0.15849211388E+03  0.00000000000E+00 0. -1.
         21   -1    0    0  501  502 -0.00000000000E+00 -0.00000000000E+00 -0.32746838260E+03  0.32746838260E+03  0.00000000000E+00 0. -1.
      99926    2    1    2    0    0  0.00000000000E+00  0.00000000000E+00 -0.16897626873E+03  0.48596049648E+03  0.45563650506E+03 0.  0.
      99925    2    3    3    0    0 -0.94969803802E+02 -0.68695194773E+01 -0.17261972903E+03  0.32871153199E+03  0.26303468683E+03 0.  0.
         25    1    4    4    0    0 -0.26698487253E+02  0.28817912062E+02 -0.99617342741E+02  0.16466452062E+03  0.12509000000E+03 0.  0.
         25    1    4    4    0    0 -0.68271316549E+02 -0.35687431540E+02 -0.73002386288E+02  0.16404701136E+03  0.12509000000E+03 0.  0.
         25    1    3    3    0    0  0.94969803802E+02  0.68695194773E+01  0.36434602999E+01  0.15724896450E+03  0.12509000000E+03 0.  0.
<mgrwt>
<rscale>  2 0.45563651E+03</rscale>
<asrwt>0</asrwt>
<pdfrwt beam="1">  1       21 0.23307664E-01 0.45563651E+03</pdfrwt>
<pdfrwt beam="2">  1       21 0.48157115E-01 0.45563651E+03</pdfrwt>
<totfact> 0.65934927E+04</totfact>
</mgrwt>
</event>
<event>
 7    0  0.4793433E-002  0.4529032E+03  0.7546771E-02  0.1026860E+00
         21   -1    0    0  502  501  0.00000000000E+00  0.00000000000E+00  0.73580872702E+02  0.73580872702E+02  0.00000000000E+00 0.  1.
         21   -1    0    0  501  502 -0.00000000000E+00 -0.00000000000E+00 -0.69692469999E+03  0.69692469999E+03  0.00000000000E+00 0.  1.
      99926    2    1    2    0    0  0.00000000000E+00 -0.14210854715E-13 -0.62334382729E+03  0.77050557269E+03  0.45290320217E+03 0.  0.
      99925    2    3    3    0    0  0.71424250653E+02  0.65213209982E+02 -0.29991230017E+03  0.41049217409E+03  0.26306320697E+03 0.  0.
         25    1    3    3    0    0 -0.71424250653E+02 -0.65213209982E+02 -0.32343152712E+03  0.36001339860E+03  0.12509000000E+03 0.  0.
         25    1    4    4    0    0  0.75652231460E+02  0.25781376413E+02 -0.14564135432E+03  0.20795877400E+03  0.12509000000E+03 0.  0.
         25    1    4    4    0    0 -0.42279808067E+01  0.39431833569E+02 -0.15427094585E+03  0.20253340009E+03  0.12509000000E+03 0.  0.
<mgrwt>
<rscale>  2 0.45290320E+03</rscale>
<asrwt>0</asrwt>
<pdfrwt beam="1">  1       21 0.10820716E-01 0.45290320E+03</pdfrwt>
<pdfrwt beam="2">  1       21 0.10248893E+00 0.45290320E+03</pdfrwt>
<totfact> 0.50043106E+04</totfact>
</mgrwt>
</event>
<event>
 7    0  0.4793433E-002  0.4873451E+03  0.7546771E-02  0.1017136E+00
         21   -1    0    0  502  501  0.00000000000E+00  0.00000000000E+00  0.12545762109E+03  0.12545762109E+03  0.00000000000E+00 0.  1.
         21   -1    0    0  501  502 -0.00000000000E+00 -0.00000000000E+00 -0.47327786280E+03  0.47327786280E+03  0.00000000000E+00 0.  1.
      99926    2    1    2    0    0  0.00000000000E+00  0.00000000000E+00 -0.34782024170E+03  0.59873548389E+03  0.48734511296E+03 0.  0.
      99925    2    3    3    0    0 -0.68471524264E+02 -0.39447713600E+02 -0.35701367585E+03  0.45049075692E+03  0.26313244875E+03 0.  0.
         25    1    4    4    0    0 -0.88790741565E+01 -0.43919754841E+02 -0.20927627079E+03  0.24789483342E+03  0.12509000000E+03 0.  0.
         25    1    4    4    0    0 -0.59592450108E+02  0.44720412407E+01 -0.14773740506E+03  0.20259592349E+03  0.12509000000E+03 0.  0.
         25    1    3    3    0    0  0.68471524264E+02  0.39447713600E+02  0.91934341447E+01  0.14824472697E+03  0.12509000000E+03 0.  0.
<mgrwt>
<rscale>  2 0.48734511E+03</rscale>
<asrwt>0</asrwt>
<pdfrwt beam="1">  1       21 0.18449650E-01 0.48734511E+03</pdfrwt>
<pdfrwt beam="2">  1       21 0.69599685E-01 0.48734511E+03</pdfrwt>
<totfact> 0.45860096E+04</totfact>
</mgrwt>
</event>
<event>
 7    0  0.4793433E-002  0.4573109E+03  0.7546771E-02  0.1025564E+00
         21   -1    0    0  502  501  0.00000000000E+00  0.00000000000E+00  0.56674157596E+02  0.56674157596E+02  0.00000000000E+00 0. -1.
         21   -1    0    0  501  502 -0.00000000000E+00 -0.00000000000E+00 -0.92252465775E+03  0.92252465775E+03  0.00000000000E+00 0. -1.
      99926    2    1    2    0    0  0.00000000000E+00  0.00000000000E+00 -0.86585050015E+03  0.97919881535E+03  0.45731086950E+03 0.  0.
      99925    2    3    3    0    0  0.88902240956E+02  0.73007393039E+02 -0.56005533447E+03  0.62935330753E+03  0.26303976913E+03 0.  0.
         25    1    3    3    0    0 -0.88902240956E+02 -0.73007393039E+02 -0.30579516568E+03  0.34984550782E+03  0.12509000000E+03 0.  0.
         25    1    4    4    0    0  0.36783831141E+02  0.23221137290E+02 -0.18539472165E+03  0.22783981734E+03  0.12509000000E+03 0.  0.
         25    1    4    4    0    0  0.52118409814E+02  0.49786255749E+02 -0.37466061282E+03  0.40151349019E+03  0.12509000000E+03 0.  0.
<mgrwt>
<rscale>  2 0.45731087E+03</rscale>
<asrwt>0</asrwt>
<pdfrwt beam="1">  1       21 0.83344351E-02 0.45731087E+03</pdfrwt>
<pdfrwt beam="2">  1       21 0.13566539E+00 0.45731087E+03</pdfrwt>
<totfact> 0.39266294E+04</totfact>
</mgrwt>
</event>
<event>
 7    0  0.4793433E-002  0.4613005E+03  0.7546771E-02  0.1024405E+00
         21   -1    0    0  502  501  0.00000000000E+00  0.00000000000E+00  0.20379512020E+03  0.20379512020E+03  0.00000000000E+00 0. -1.
         21   -1    0    0  501  502 -0.00000000000E+00 -0.00000000000E+00 -0.26104420055E+03  0.26104420055E+03  0.00000000000E+00 0. -1.
      99926    2    1    2    0    0  0.00000000000E+00  0.17763568394E-14 -0.57249080351E+02  0.46483932076E+03  0.46130048441E+03 0.  0.
      99925    2    3    3    0    0 -0.44056476448E+01 -0.13945973517E+02 -0.15481977034E+03  0.30552376108E+03  0.26298613536E+03 0.  0.
         25    1    4    4    0    0  0.37003111339E+02 -0.11439132562E+02 -0.66403754149E+02  0.14682319526E+03  0.12509000000E+03 0.  0.
         25    1    4    4    0    0 -0.41408758984E+02 -0.25068409546E+01 -0.88416016192E+02  0.15870056582E+03  0.12509000000E+03 0.  0.
         25    1    3    3    0    0  0.44056476448E+01  0.13945973517E+02  0.97570689990E+02  0.15931555967E+03  0.12509000000E+03 0.  0.
<mgrwt>
<rscale>  2 0.46130048E+03</rscale>
<asrwt>0</asrwt>
<pdfrwt beam="1">  1       21 0.29969871E-01 0.46130048E+03</pdfrwt>
<pdfrwt beam="2">  1       21 0.38388853E-01 0.46130048E+03</pdfrwt>
<totfact> 0.64525680E+04</totfact>
</mgrwt>
</event>
<event>
 7    0  0.4793433E-002  0.4522140E+03  0.7546771E-02  0.1027064E+00
         21   -1    0    0  502  501  0.00000000000E+00  0.00000000000E+00  0.21700370418E+03  0.21700370418E+03  0.00000000000E+00 0. -1.
         21   -1    0    0  501  502 -0.00000000000E+00 -0.00000000000E+00 -0.23559221997E+03  0.23559221997E+03  0.00000000000E+00 0. -1.
      99926    2    1    2    0    0  0.00000000000E+00  0.00000000000E+00 -0.18588515789E+02  0.45259592415E+03  0.45221403963E+03 0.  0.
      99925    2    3    3    0    0  0.10746074637E+03 -0.20694303729E+02 -0.24738732312E+02  0.28627875883E+03  0.26337702380E+03 0.  0.
         25    1    3    3    0    0 -0.10746074637E+03  0.20694303729E+02  0.61502165223E+01  0.16631716532E+03  0.12509000000E+03 0.  0.
         25    1    4    4    0    0  0.75317319287E+02  0.11270747279E+02  0.15524768231E+02  0.14726932762E+03  0.12509000000E+03 0.  0.
         25    1    4    4    0    0  0.32143427081E+02 -0.31965051007E+02 -0.40263500542E+02  0.13900943121E+03  0.12509000000E+03 0.  0.
<mgrwt>
<rscale>  2 0.45221404E+03</rscale>
<asrwt>0</asrwt>
<pdfrwt beam="1">  1       21 0.31912310E-01 0.45221404E+03</pdfrwt>
<pdfrwt beam="2">  1       21 0.34645915E-01 0.45221404E+03</pdfrwt>
<totfact> 0.70271404E+04</totfact>
</mgrwt>
</event>
<event>
 7    0  0.4793433E-002  0.4560871E+03  0.7546771E-02  0.1025922E+00
         21   -1    0    0  502  501  0.00000000000E+00  0.00000000000E+00  0.63687777023E+03  0.63687777023E+03  0.00000000000E+00 0.  1.
         21   -1    0    0  501  502 -0.00000000000E+00 -0.00000000000E+00 -0.81654397574E+02  0.81654397574E+02  0.00000000000E+00 0.  1.
      99926    2    1    2    0    0  0.00000000000E+00  0.00000000000E+00  0.55522337266E+03  0.71853216781E+03  0.45608714368E+03 0.  0.
      99925    2    3    3    0    0  0.11010497729E+03  0.28770488527E+02  0.36478012552E+03  0.46384218859E+03  0.26293381088E+03 0.  0.
         25    1    4    4    0    0  0.60584877193E+02  0.43954946101E+02  0.23342218462E+03  0.27520172420E+03  0.12509000000E+03 0.  0.
         25    1    3    3    0    0 -0.11010497729E+03 -0.28770488527E+02  0.19044324714E+03  0.25468997922E+03  0.12509000000E+03 0.  0.
         25    1    4    4    0    0  0.49520100099E+02 -0.15184457575E+02  0.13135794090E+03  0.18864046439E+03  0.12509000000E+03 0.  0.
<mgrwt>
<rscale>  2 0.45608714E+03</rscale>
<asrwt>0</asrwt>
<pdfrwt beam="1">  1       21 0.93658493E-01 0.45608714E+03</pdfrwt>
<pdfrwt beam="2">  1       21 0.12008000E-01 0.45608714E+03</pdfrwt>
<totfact> 0.51466816E+04</totfact>
</mgrwt>
</event>
<event>
 7    0  0.4793433E-002  0.4567311E+03  0.7546771E-02  0.1025734E+00
         21   -1    0    0  502  501  0.00000000000E+00  0.00000000000E+00  0.22780002608E+03  0.22780002608E+03  0.00000000000E+00 0. -1.
         21   -1    0    0  501  502 -0.00000000000E+00 -0.00000000000E+00 -0.22893245676E+03  0.22893245676E+03  0.00000000000E+00 0. -1.
      99926    2    1    2    0    0 -0.14210854715E-13  0.00000000000E+00 -0.11324306792E+01  0.45673248284E+03  0.45673107895E+03 0.  0.
      99925    2    3    3    0    0  0.84522124455E+02  0.63234829037E+02 -0.45985968499E+02  0.28702101864E+03  0.26291390742E+03 0.  0.
         25    1    3    3    0    0 -0.84522124455E+02 -0.63234829037E+02  0.44853537820E+02  0.16971146420E+03  0.12509000000E+03 0.  0.
         25    1    4    4    0    0  0.72424414045E+02  0.75530613043E+01 -0.10861139530E+02  0.14514756952E+03  0.12509000000E+03 0.  0.
         25    1    4    4    0    0  0.12097710410E+02  0.55681767732E+02 -0.35124828969E+02  0.14187344912E+03  0.12509000000E+03 0.  0.
<mgrwt>
<rscale>  2 0.45673108E+03</rscale>
<asrwt>0</asrwt>
<pdfrwt beam="1">  1       21 0.33500004E-01 0.45673108E+03</pdfrwt>
<pdfrwt beam="2">  1       21 0.33666538E-01 0.45673108E+03</pdfrwt>
<totfact> 0.67482150E+04</totfact>
</mgrwt>
</event>
<event>
 7    0  0.4793433E-002  0.4654554E+03  0.7546771E-02  0.1023211E+00
         21   -1    0    0  502  501  0.00000000000E+00  0.00000000000E+00  0.73762743487E+03  0.73762743487E+03  0.00000000000E+00 0.  1.
         21   -1    0    0  501  502 -0.00000000000E+00 -0.00000000000E+00 -0.73427574534E+02  0.73427574534E+02  0.00000000000E+00 0.  1.
      99926    2    1    2    0    0  0.00000000000E+00  0.00000000000E+00  0.66419986034E+03  0.81105500941E+03  0.46545544772E+03 0.  0.
      99925    2    3    3    0    0  0.11007370086E+03 -0.47225295179E+02  0.45048930525E+03  0.53598018762E+03  0.26455188386E+03 0.  0.
         25    1    4    4    0    0  0.34988328571E+02  0.15857334387E+02  0.18637481289E+03  0.22772509121E+03  0.12509000000E+03 0.  0.
         25    1    3    3    0    0 -0.11007370086E+03  0.47225295179E+02  0.21371055509E+03  0.27507482179E+03  0.12509000000E+03 0.  0.
         25    1    4    4    0    0  0.75085372284E+02 -0.63082629565E+02  0.26411449237E+03  0.30825509641E+03  0.12509000000E+03 0.  0.
<mgrwt>
<rscale>  2 0.46545545E+03</rscale>
<asrwt>0</asrwt>
<pdfrwt beam="1">  1       21 0.10847462E+00 0.46545545E+03</pdfrwt>
<pdfrwt beam="2">  1       21 0.10798173E-01 0.46545545E+03</pdfrwt>
<totfact> 0.43550177E+04</totfact>
</mgrwt>
</event>
<event>
 7    0  0.4793433E-002  0.4531677E+03  0.7546771E-02  0.1026782E+00
         21   -1    0    0  502  501  0.00000000000E+00  0.00000000000E+00  0.22689066623E+03  0.22689066623E+03  0.00000000000E+00 0.  1.
         21   -1    0    0  501  502 -0.00000000000E+00 -0.00000000000E+00 -0.22627749446E+03  0.22627749446E+03  0.00000000000E+00 0.  1.
      99926    2    1    2    0    0  0.35527136788E-14  0.00000000000E+00  0.61317177550E+00  0.45316816069E+03  0.45316774585E+03 0.  0.
      99925    2    3    3    0    0 -0.16136782289E+02 -0.54780420703E+02 -0.95308603269E+02  0.28550843009E+03  0.26300198395E+03 0.  0.
         25    1    4    4    0    0 -0.17381142133E+02 -0.39102535545E+02 -0.85831816765E+01  0.13248506141E+03  0.12509000000E+03 0.  0.
         25    1    3    3    0    0  0.16136782289E+02  0.54780420703E+02  0.95921775045E+02  0.16765973059E+03  0.12509000000E+03 0.  0.
         25    1    4    4    0    0  0.12443598439E+01 -0.15677885158E+02 -0.86725421593E+02  0.15302336869E+03  0.12509000000E+03 0.  0.
<mgrwt>
<rscale>  2 0.45316775E+03</rscale>
<asrwt>0</asrwt>
<pdfrwt beam="1">  1       21 0.33366274E-01 0.45316775E+03</pdfrwt>
<pdfrwt beam="2">  1       21 0.33276102E-01 0.45316775E+03</pdfrwt>
<totfact> 0.69693521E+04</totfact>
</mgrwt>
</event>
<event>
 7    0  0.4793433E-002  0.4534918E+03  0.7546771E-02  0.1026686E+00
         21   -1    0    0  502  501  0.00000000000E+00  0.00000000000E+00  0.30866694600E+03  0.30866694600E+03  0.00000000000E+00 0. -1.
         21   -1    0    0  501  502 -0.00000000000E+00 -0.00000000000E+00 -0.16656694457E+03  0.16656694457E+03  0.00000000000E+00 0. -1.
      99926    2    1    2    0    0  0.00000000000E+00  0.00000000000E+00  0.14210000143E+03  0.47523389057E+03  0.45349183051E+03 0.  0.
      99925    2    3    3    0    0 -0.10431093449E+02  0.33385260868E+02  0.20075191525E+03  0.33271744082E+03  0.26301365098E+03 0.  0.
         25    1    3    3    0    0  0.10431093449E+02 -0.33385260868E+02 -0.58651913816E+02  0.14251644975E+03  0.12509000000E+03 0.  0.
         25    1    4    4    0    0 -0.66978959923E+01  0.22561975339E+02  0.50654913300E+02  0.13699391550E+03  0.12509000000E+03 0.  0.
         25    1    4    4    0    0 -0.37331974564E+01  0.10823285529E+02  0.15009700195E+03  0.19572352533E+03  0.12509000000E+03 0.  0.
<mgrwt>
<rscale>  2 0.45349183E+03</rscale>
<asrwt>0</asrwt>
<pdfrwt beam="1">  1       21 0.45392198E-01 0.45349183E+03</pdfrwt>
<pdfrwt beam="2">  1       21 0.24495139E-01 0.45349183E+03</pdfrwt>
<totfact> 0.67857274E+04</totfact>
</mgrwt>
</event>
<event>
 7    0  0.4793433E-002  0.4308956E+03  0.7546771E-02  0.1033577E+00
         21   -1    0    0  502  501  0.00000000000E+00  0.00000000000E+00  0.57669525977E+03  0.57669525977E+03  0.00000000000E+00 0. -1.
         21   -1    0    0  501  502 -0.00000000000E+00 -0.00000000000E+00 -0.80489242452E+02  0.80489242452E+02  0.00000000000E+00 0. -1.
      99926    2    1    2    0    0 -0.71054273576E-14 -0.39968028887E-14  0.49620601732E+03  0.65718450223E+03  0.43089564669E+03 0.  0.
      99925    2    3    3    0    0  0.31939884544E+02 -0.35977787940E+01  0.19359062604E+03  0.32816066817E+03  0.26301899818E+03 0.  0.
         25    1    3    3    0    0 -0.31939884544E+02  0.35977787940E+01  0.30261539128E+03  0.32902383406E+03  0.12509000000E+03 0.  0.
         25    1    4    4    0    0 -0.96750343407E+01 -0.33362418955E+02  0.95641785396E+02  0.16124985737E+03  0.12509000000E+03 0.  0.
         25    1    4    4    0    0  0.41614918885E+02  0.29764640161E+02  0.97948840641E+02  0.16691081080E+03  0.12509000000E+03 0.  0.
<mgrwt>
<rscale>  2 0.43089565E+03</rscale>
<asrwt>0</asrwt>
<pdfrwt beam="1">  1       21 0.84808125E-01 0.43089565E+03</pdfrwt>
<pdfrwt beam="2">  1       21 0.11836654E-01 0.43089565E+03</pdfrwt>
<totfact> 0.67168126E+04</totfact>
</mgrwt>
</event>
<event>
 7    0  0.4793433E-002  0.4548556E+03  0.7546771E-02  0.1026284E+00
         21   -1    0    0  502  501  0.00000000000E+00  0.00000000000E+00  0.29075125402E+02  0.29075125402E+02  0.00000000000E+00 0.  1.
         21   -1    0    0  501  502 -0.00000000000E+00 -0.00000000000E+00 -0.17789573209E+04  0.17789573209E+04  0.00000000000E+00 0.  1.
      99926    2    1    2    0    0  0.00000000000E+00  0.00000000000E+00 -0.17498821955E+04  0.18080324463E+04  0.45485561309E+03 0.  0.
      99925    2    3    3    0    0  0.10098796778E+03  0.24953578056E+02 -0.92620435773E+03  0.96844091512E+03  0.26306281212E+03 0.  0.
         25    1    4    4    0    0  0.14641203073E+02  0.23444567570E+02 -0.35699160150E+03  0.37928158961E+03  0.12509000000E+03 0.  0.
         25    1    4    4    0    0  0.86346764702E+02  0.15090104857E+01 -0.56921275623E+03  0.58915932552E+03  0.12509000000E+03 0.  0.
         25    1    3    3    0    0 -0.10098796778E+03 -0.24953578056E+02 -0.82367783778E+03  0.83959153119E+03  0.12509000000E+03 0.  0.
<mgrwt>
<rscale>  2 0.45485561E+03</rscale>
<asrwt>0</asrwt>
<pdfrwt beam="1">  1       21 0.42757555E-02 0.45485561E+03</pdfrwt>
<pdfrwt beam="2">  1       21 0.26161126E+00 0.45485561E+03</pdfrwt>
<totfact> 0.17124831E+04</totfact>
</mgrwt>
</event>
<event>
 7    0  0.4793433E-002  0.4543146E+03  0.7546771E-02  0.1026443E+00
         21   -1    0    0  502  501  0.00000000000E+00  0.00000000000E+00  0.10728750849E+03  0.10728750849E+03  0.00000000000E+00 0. -1.
         21   -1    0    0  501  502 -0.00000000000E+00 -0.00000000000E+00 -0.48095471515E+03  0.48095471515E+03  0.00000000000E+00 0. -1.
      99926    2    1    2    0    0  0.00000000000E+00 -0.17763568394E-14 -0.37366720666E+03  0.58824222364E+03  0.45431457421E+03 0.  0.
      99925    2    3    3    0    0 -0.75138949715E+02 -0.15645892412E+02 -0.12863634853E+03  0.30262309744E+03  0.26295013449E+03 0.  0.
         25    1    4    4    0    0 -0.50340113959E+02 -0.30094505204E+02 -0.10152952196E+03  0.17145132909E+03  0.12509000000E+03 0.  0.
         25    1    4    4    0    0 -0.24798835756E+02  0.14448612792E+02 -0.27106826572E+02  0.13117176835E+03  0.12509000000E+03 0.  0.
         25    1    3    3    0    0  0.75138949715E+02  0.15645892412E+02 -0.24503085813E+03  0.28561912620E+03  0.12509000000E+03 0.  0.
<mgrwt>
<rscale>  2 0.45431457E+03</rscale>
<asrwt>0</asrwt>
<pdfrwt beam="1">  1       21 0.15777575E-01 0.45431457E+03</pdfrwt>
<pdfrwt beam="2">  1       21 0.70728635E-01 0.45431457E+03</pdfrwt>
<totfact> 0.59730823E+04</totfact>
</mgrwt>
</event>
<event>
 7    0  0.4793433E-002  0.4347393E+03  0.7546771E-02  0.1032373E+00
         21   -1    0    0  502  501  0.00000000000E+00  0.00000000000E+00  0.80553656456E+02  0.80553656456E+02  0.00000000000E+00 0. -1.
         21   -1    0    0  501  502 -0.00000000000E+00 -0.00000000000E+00 -0.58656025357E+03  0.58656025357E+03  0.00000000000E+00 0. -1.
      99926    2    1    2    0    0  0.00000000000E+00  0.00000000000E+00 -0.50600659711E+03  0.66711391002E+03  0.43473933871E+03 0.  0.
      99925    2    3    3    0    0 -0.84469103995E+02  0.38078353744E+02 -0.31297761104E+03  0.41913671729E+03  0.26293651746E+03 0.  0.
         25    1    4    4    0    0 -0.65110367353E+02  0.54391362891E+02 -0.17159773045E+03  0.22867240649E+03  0.12509000000E+03 0.  0.
         25    1    4    4    0    0 -0.19358736642E+02 -0.16313009147E+02 -0.14137988060E+03  0.19046431080E+03  0.12509000000E+03 0.  0.
         25    1    3    3    0    0  0.84469103995E+02 -0.38078353744E+02 -0.19302898607E+03  0.24797719274E+03  0.12509000000E+03 0.  0.
<mgrwt>
<rscale>  2 0.43473934E+03</rscale>
<asrwt>0</asrwt>
<pdfrwt beam="1">  1       21 0.11846126E-01 0.43473934E+03</pdfrwt>
<pdfrwt beam="2">  1       21 0.86258862E-01 0.43473934E+03</pdfrwt>
<totfact> 0.64405526E+04</totfact>
</mgrwt>
</event>
<event>
 7    0  0.4793433E-002  0.4588799E+03  0.7546771E-02  0.1025107E+00
         21   -1    0    0  502  501  0.00000000000E+00  0.00000000000E+00  0.46920263107E+03  0.46920263107E+03  0.00000000000E+00 0. -1.
         21   -1    0    0  501  502 -0.00000000000E+00 -0.00000000000E+00 -0.11219605682E+03  0.11219605682E+03  0.00000000000E+00 0. -1.
      99926    2    1    2    0    0  0.00000000000E+00  0.00000000000E+00  0.35700657426E+03  0.58139868789E+03  0.45887987559E+03 0.  0.
      99925    2    3    3    0    0 -0.44202583869E+02  0.42875978206E+02  0.97911628778E+02  0.28717102638E+03  0.26284652064E+03 0.  0.
         25    1    4    4    0    0 -0.14340575447E+02  0.52168910698E+02  0.23502428222E+02  0.13830083000E+03  0.12509000000E+03 0.  0.
         25    1    4    4    0    0 -0.29862008422E+02 -0.92929324926E+01  0.74409200556E+02  0.14887019637E+03  0.12509000000E+03 0.  0.
         25    1    3    3    0    0  0.44202583869E+02 -0.42875978206E+02  0.25909494548E+03  0.29422766151E+03  0.12509000000E+03 0.  0.
<mgrwt>
<rscale>  2 0.45887988E+03</rscale>
<asrwt>0</asrwt>
<pdfrwt beam="1">  1       21 0.69000386E-01 0.45887988E+03</pdfrwt>
<pdfrwt beam="2">  1       21 0.16499420E-01 0.45887988E+03</pdfrwt>
<totfact> 0.58037352E+04</totfact>
</mgrwt>
</event>
<event>
 7    0  0.4793433E-002  0.4431986E+03  0.7546771E-02  0.1029770E+00
         21   -1    0    0  502  501  0.00000000000E+00  0.00000000000E+00  0.34955745506E+03  0.34955745506E+03  0.00000000000E+00 0. -1.
         21   -1    0    0  501  502 -0.00000000000E+00 -0.00000000000E+00 -0.14048119881E+03  0.14048119881E+03  0.00000000000E+00 0. -1.
      99926    2    1    2    0    0 -0.71054273576E-14  0.00000000000E+00  0.20907625625E+03  0.49003865387E+03  0.44319860261E+03 0.  0.
      99925    2    3    3    0    0 -0.62905606445E+02 -0.69651961059E+02  0.89728836170E+02  0.29331594094E+03  0.26301039175E+03 0.  0.
         25    1    4    4    0    0 -0.30090320202E+01 -0.49545404106E+02  0.17665922936E+02  0.13573280471E+03  0.12509000000E+03 0.  0.
         25    1    4    4    0    0 -0.59896574424E+02 -0.20106556953E+02  0.72062913234E+02  0.15758313623E+03  0.12509000000E+03 0.  0.
         25    1    3    3    0    0  0.62905606445E+02  0.69651961059E+02  0.11934742008E+03  0.19672271293E+03  0.12509000000E+03 0.  0.
<mgrwt>
<rscale>  2 0.44319860E+03</rscale>
<asrwt>0</asrwt>
<pdfrwt beam="1">  1       21 0.51405508E-01 0.44319860E+03</pdfrwt>
<pdfrwt beam="2">  1       21 0.20659000E-01 0.44319860E+03</pdfrwt>
<totfact> 0.72537373E+04</totfact>
</mgrwt>
</event>
<event>
 7    0  0.4793433E-002  0.4233639E+03  0.7546771E-02  0.1035977E+00
         21   -1    0    0  502  501  0.00000000000E+00  0.00000000000E+00  0.29070541286E+02  0.29070541286E+02  0.00000000000E+00 0.  1.
         21   -1    0    0  501  502 -0.00000000000E+00 -0.00000000000E+00 -0.15413967645E+04  0.15413967645E+04  0.00000000000E+00 0.  1.
      99926    2    1    2    0    0  0.00000000000E+00 -0.35527136788E-14 -0.15123262233E+04  0.15704673058E+04  0.42336385430E+03 0.  0.
      99925    2    3    3    0    0 -0.74089303346E+02 -0.22465296668E+02 -0.90807256187E+03  0.94856384884E+03  0.26302791348E+03 0.  0.
         25    1    4    4    0    0 -0.62115637942E+02 -0.37554847392E+02 -0.41384140257E+03  0.43838445869E+03  0.12509000000E+03 0.  0.
         25    1    3    3    0    0  0.74089303346E+02  0.22465296668E+02 -0.60425366138E+03  0.62190345699E+03  0.12509000000E+03 0.  0.
         25    1    4    4    0    0 -0.11973665404E+02  0.15089550724E+02 -0.49423115930E+03  0.51017939015E+03  0.12509000000E+03 0.  0.
<mgrwt>
<rscale>  2 0.42336385E+03</rscale>
<asrwt>0</asrwt>
<pdfrwt beam="1">  1       21 0.42750799E-02 0.42336385E+03</pdfrwt>
<pdfrwt beam="2">  1       21 0.22667598E+00 0.42336385E+03</pdfrwt>
<totfact> 0.28486095E+04</totfact>
</mgrwt>
</event>
<event>
 7    0  0.4793433E-002  0.4465521E+03  0.7546771E-02  0.1028755E+00
         21   -1    0    0  502  501  0.00000000000E+00  0.00000000000E+00  0.16744171637E+03  0.16744171637E+03  0.00000000000E+00 0. -1.
         21   -1    0    0  501  502 -0.00000000000E+00 -0.00000000000E+00 -0.29772858526E+03  0.29772858526E+03  0.00000000000E+00 0. -1.
      99926    2    1    2    0    0  0.88817841970E-15 -0.71054273576E-14 -0.13028686889E+03  0.46517030163E+03  0.44655205891E+03 0.  0.
      99925    2    3    3    0    0 -0.36612991821E+01  0.60345326259E+02 -0.17209571168E+03  0.32008256629E+03  0.26302272098E+03 0.  0.
         25    1    3    3    0    0  0.36612991821E+01 -0.60345326259E+02  0.41808842787E+02  0.14508773535E+03  0.12509000000E+03 0.  0.
         25    1    4    4    0    0  0.17486823467E+02  0.49548551313E+02 -0.52753891409E+02  0.14557241872E+03  0.12509000000E+03 0.  0.
         25    1    4    4    0    0 -0.21148122649E+02  0.10796774946E+02 -0.11934182027E+03  0.17451014757E+03  0.12509000000E+03 0.  0.
<mgrwt>
<rscale>  2 0.44655206E+03</rscale>
<asrwt>0</asrwt>
<pdfrwt beam="1">  1       21 0.24623782E-01 0.44655206E+03</pdfrwt>
<pdfrwt beam="2">  1       21 0.43783615E-01 0.44655206E+03</pdfrwt>
<totfact> 0.72537687E+04</totfact>
</mgrwt>
</event>
<event>
 7    0  0.4793433E-002  0.4745369E+03  0.7546771E-02  0.1020647E+00
         21   -1    0    0  502  501  0.00000000000E+00  0.00000000000E+00  0.24635972057E+03  0.24635972057E+03  0.00000000000E+00 0. -1.
         21   -1    0    0  501  502 -0.00000000000E+00 -0.00000000000E+00 -0.22851263741E+03  0.22851263741E+03  0.00000000000E+00 0. -1.
      99926    2    1    2    0    0  0.00000000000E+00  0.00000000000E+00  0.17847083157E+02  0.47487235799E+03  0.47453686685E+03 0.  0.
      99925    2    3    3    0    0  0.29726908017E+02  0.12361881116E+03 -0.19578680729E+02  0.29262665725E+03  0.26283404700E+03 0.  0.
         25    1    3    3    0    0 -0.29726908017E+02 -0.12361881116E+03  0.37425763886E+02  0.18224570073E+03  0.12509000000E+03 0.  0.
         25    1    4    4    0    0  0.19584396506E+02  0.49066121111E+02 -0.47787022685E+02  0.14395186857E+03  0.12509000000E+03 0.  0.
         25    1    4    4    0    0  0.10142511511E+02  0.74552690053E+02  0.28208341956E+02  0.14867478868E+03  0.12509000000E+03 0.  0.
<mgrwt>
<rscale>  2 0.47453687E+03</rscale>
<asrwt>0</asrwt>
<pdfrwt beam="1">  1       21 0.36229371E-01 0.47453687E+03</pdfrwt>
<pdfrwt beam="2">  1       21 0.33604800E-01 0.47453687E+03</pdfrwt>
<totfact> 0.57597919E+04</totfact>
</mgrwt>
</event>
<event>
 7    0  0.4793433E-002  0.4516297E+03  0.7546771E-02  0.1027237E+00
         21   -1    0    0  502  501  0.00000000000E+00  0.00000000000E+00  0.11249821293E+03  0.11249821293E+03  0.00000000000E+00 0.  1.
         21   -1    0    0  501  502 -0.00000000000E+00 -0.00000000000E+00 -0.45327241640E+03  0.45327241640E+03  0.00000000000E+00 0.  1.
      99926    2    1    2    0    0  0.00000000000E+00 -0.35527136788E-14 -0.34077420347E+03  0.56577062933E+03  0.45162965720E+03 0.  0.
      99925    2    3    3    0    0  0.10815801003E+03 -0.10439947460E+02 -0.23685268471E+03  0.37018346769E+03  0.26292481409E+03 0.  0.
         25    1    3    3    0    0 -0.10815801003E+03  0.10439947460E+02 -0.10392151876E+03  0.19558716164E+03  0.12509000000E+03 0.  0.
         25    1    4    4    0    0  0.24823963742E+02 -0.30287678171E+02 -0.13069863850E+03  0.18510325451E+03  0.12509000000E+03 0.  0.
         25    1    4    4    0    0  0.83334046283E+02  0.19847730711E+02 -0.10615404621E+03  0.18508021318E+03  0.12509000000E+03 0.  0.
<mgrwt>
<rscale>  2 0.45162966E+03</rscale>
<asrwt>0</asrwt>
<pdfrwt beam="1">  1       21 0.16543855E-01 0.45162966E+03</pdfrwt>
<pdfrwt beam="2">  1       21 0.66657710E-01 0.45162966E+03</pdfrwt>
<totfact> 0.62485199E+04</totfact>
</mgrwt>
</event>
<event>
 7    0  0.4793433E-002  0.4345218E+03  0.7546771E-02  0.1032441E+00
         21   -1    0    0  502  501  0.00000000000E+00  0.00000000000E+00  0.34120507089E+02  0.34120507089E+02  0.00000000000E+00 0. -1.
         21   -1    0    0  501  502 -0.00000000000E+00 -0.00000000000E+00 -0.13833998571E+04  0.13833998571E+04  0.00000000000E+00 0. -1.
      99926    2    1    2    0    0  0.00000000000E+00  0.00000000000E+00 -0.13492793501E+04  0.14175203642E+04  0.43452182745E+03 0.  0.
      99925    2    3    3    0    0 -0.36743656685E+02  0.82752870499E+02 -0.79957068272E+03  0.84653414643E+03  0.26288524211E+03 0.  0.
         25    1    3    3    0    0  0.36743656685E+02 -0.82752870499E+02 -0.54970866734E+03  0.57098621781E+03  0.12509000000E+03 0.  0.
         25    1    4    4    0    0 -0.50859625488E+02  0.63220084730E+02 -0.47532283090E+03  0.49815939447E+03  0.12509000000E+03 0.  0.
         25    1    4    4    0    0  0.14115968803E+02  0.19532785768E+02 -0.32424785182E+03  0.34837475196E+03  0.12509000000E+03 0.  0.
<mgrwt>
<rscale>  2 0.43452183E+03</rscale>
<asrwt>0</asrwt>
<pdfrwt beam="1">  1       21 0.50177208E-02 0.43452183E+03</pdfrwt>
<pdfrwt beam="2">  1       21 0.20344119E+00 0.43452183E+03</pdfrwt>
<totfact> 0.30430951E+04</totfact>
</mgrwt>
</event>
<event>
 7    0  0.4793433E-002  0.4494880E+03  0.7546771E-02  0.1027875E+00
         21   -1    0    0  502  501  0.00000000000E+00  0.00000000000E+00  0.55425440922E+03  0.55425440922E+03  0.00000000000E+00 0. -1.
         21   -1    0    0  501  502 -0.00000000000E+00 -0.00000000000E+00 -0.91131177258E+02  0.91131177258E+02  0.00000000000E+00 0. -1.
      99926    2    1    2    0    0  0.00000000000E+00 -0.71054273576E-14  0.46312323196E+03  0.64538558648E+03  0.44948796119E+03 0.  0.
      99925    2    3    3    0    0 -0.35513687666E+02 -0.31498690389E+02  0.15386344691E+03  0.30842488809E+03  0.26305619512E+03 0.  0.
         25    1    4    4    0    0 -0.11927042508E+02  0.24622372530E+02  0.78759947705E+02  0.15033014679E+03  0.12509000000E+03 0.  0.
         25    1    3    3    0    0  0.35513687666E+02  0.31498690389E+02  0.30925978505E+03  0.33696069839E+03  0.12509000000E+03 0.  0.
         25    1    4    4    0    0 -0.23586645159E+02 -0.56121062919E+02  0.75103499204E+02  0.15809474130E+03  0.12509000000E+03 0.  0.
<mgrwt>
<rscale>  2 0.44948796E+03</rscale>
<asrwt>0</asrwt>
<pdfrwt beam="1">  1       21 0.81507999E-01 0.44948796E+03</pdfrwt>
<pdfrwt beam="2">  1       21 0.13401644E-01 0.44948796E+03</pdfrwt>
<totfact> 0.58469702E+04</totfact>
</mgrwt>
</event>
<event>
 7    0  0.4793433E-002  0.4555951E+03  0.7546771E-02  0.1026067E+00
         21   -1    0    0  502  501  0.00000000000E+00  0.00000000000E+00  0.16705374227E+03  0.16705374227E+03  0.00000000000E+00 0.  1.
         21   -1    0    0  501  502 -0.00000000000E+00 -0.00000000000E+00 -0.31062885385E+03  0.31062885385E+03  0.00000000000E+00 0.  1.
      99926    2    1    2    0    0  0.00000000000E+00  0.00000000000E+00 -0.14357511158E+03  0.47768259612E+03  0.45559505043E+03 0.  0.
      99925    2    3    3    0    0  0.67120529014E+02 -0.45910675234E+02 -0.70091906789E+01  0.27541862413E+03  0.26304625876E+03 0.  0.
         25    1    3    3    0    0 -0.67120529014E+02  0.45910675234E+02 -0.13656592090E+03  0.20226397200E+03  0.12509000000E+03 0.  0.
         25    1    4    4    0    0  0.34590583124E+02  0.15621203787E+02 -0.17487723791E+02  0.13188578025E+03  0.12509000000E+03 0.  0.
         25    1    4    4    0    0  0.32529945890E+02 -0.61531879020E+02  0.10478533112E+02  0.14353284388E+03  0.12509000000E+03 0.  0.
<mgrwt>
<rscale>  2 0.45559505E+03</rscale>
<asrwt>0</asrwt>
<pdfrwt beam="1">  1       21 0.24566727E-01 0.45559505E+03</pdfrwt>
<pdfrwt beam="2">  1       21 0.45680713E-01 0.45559505E+03</pdfrwt>
<totfact> 0.66554302E+04</totfact>
</mgrwt>
</event>
<event>
 7    0  0.4793433E-002  0.4553017E+03  0.7546771E-02  0.1026153E+00
         21   -1    0    0  502  501  0.00000000000E+00  0.00000000000E+00  0.89756983954E+03  0.89756983954E+03  0.00000000000E+00 0. -1.
         21   -1    0    0  501  502 -0.00000000000E+00 -0.00000000000E+00 -0.57739142937E+02  0.57739142937E+02  0.00000000000E+00 0. -1.
      99926    2    1    2    0    0  0.00000000000E+00  0.00000000000E+00  0.83983069661E+03  0.95530898248E+03  0.45530171650E+03 0.  0.
      99925    2    3    3    0    0  0.58062504933E+02 -0.89302957416E+02  0.60971696434E+03  0.67256155002E+03  0.26313112565E+03 0.  0.
         25    1    3    3    0    0 -0.58062504933E+02  0.89302957416E+02  0.23011373227E+03  0.28274743246E+03  0.12509000000E+03 0.  0.
         25    1    4    4    0    0 -0.24186241587E+01 -0.31786311589E+02  0.34120975441E+03  0.36481203921E+03  0.12509000000E+03 0.  0.
         25    1    4    4    0    0  0.60481129091E+02 -0.57516645827E+02  0.26850720993E+03  0.30774951081E+03  0.12509000000E+03 0.  0.
<mgrwt>
<rscale>  2 0.45530172E+03</rscale>
<asrwt>0</asrwt>
<pdfrwt beam="1">  1       21 0.13199556E+00 0.45530172E+03</pdfrwt>
<pdfrwt beam="2">  1       21 0.84910510E-02 0.45530172E+03</pdfrwt>
<totfact> 0.40830179E+04</totfact>
</mgrwt>
</event>
<event>
 7    0  0.4793433E-002  0.4574471E+03  0.7546771E-02  0.1025524E+00
         21   -1    0    0  502  501  0.00000000000E+00  0.00000000000E+00  0.12242692151E+03  0.12242692151E+03  0.00000000000E+00 0.  1.
         21   -1    0    0  501  502 -0.00000000000E+00 -0.00000000000E+00 -0.42731168341E+03  0.42731168341E+03  0.00000000000E+00 0.  1.
      99926    2    1    2    0    0  0.00000000000E+00 -0.17763568394E-14 -0.30488476190E+03  0.54973860491E+03  0.45744706327E+03 0.  0.
      99925    2    3    3    0    0 -0.91761553459E+02  0.12371135360E+02 -0.27418922309E+03  0.39111025976E+03  0.26308606490E+03 0.  0.
         25    1    3    3    0    0  0.91761553459E+02 -0.12371135360E+02 -0.30695538808E+02  0.15862834515E+03  0.12509000000E+03 0.  0.
         25    1    4    4    0    0 -0.58220651411E+02 -0.32649495787E+02 -0.14085632625E+03  0.19985906677E+03  0.12509000000E+03 0.  0.
         25    1    4    4    0    0 -0.33540902048E+02  0.45020631147E+02 -0.13333289684E+03  0.19125119299E+03  0.12509000000E+03 0.  0.
<mgrwt>
<rscale>  2 0.45744706E+03</rscale>
<asrwt>0</asrwt>
<pdfrwt beam="1">  1       21 0.18003959E-01 0.45744706E+03</pdfrwt>
<pdfrwt beam="2">  1       21 0.62839953E-01 0.45744706E+03</pdfrwt>
<totfact> 0.60700001E+04</totfact>
</mgrwt>
</event>
<event>
 7    0  0.4793433E-002  0.4314012E+03  0.7546771E-02  0.1033418E+00
         21   -1    0    0  502  501  0.00000000000E+00  0.00000000000E+00  0.30981614715E+02  0.30981614715E+02  0.00000000000E+00 0.  1.
         21   -1    0    0  501  502 -0.00000000000E+00 -0.00000000000E+00 -0.15017536188E+04  0.15017536188E+04  0.00000000000E+00 0.  1.
      99926    2    1    2    0    0  0.00000000000E+00  0.00000000000E+00 -0.14707720041E+04  0.15327352335E+04  0.43140121472E+03 0.  0.
      99925    2    3    3    0    0 -0.59738352636E+02 -0.63969479855E+02 -0.88335688975E+03  0.92580460340E+03  0.26293345902E+03 0.  0.
         25    1    3    3    0    0  0.59738352636E+02  0.63969479855E+02 -0.58741511432E+03  0.60693063010E+03  0.12509000000E+03 0.  0.
         25    1    4    4    0    0  0.20509582138E+01 -0.33556042695E+02 -0.33526077109E+03  0.35941272537E+03  0.12509000000E+03 0.  0.
         25    1    4    4    0    0 -0.61789310850E+02 -0.30413437160E+02 -0.54809611867E+03  0.56639187802E+03  0.12509000000E+03 0.  0.
<mgrwt>
<rscale>  2 0.43140121E+03</rscale>
<asrwt>0</asrwt>
<pdfrwt beam="1">  1       21 0.45561198E-02 0.43140121E+03</pdfrwt>
<pdfrwt beam="2">  1       21 0.22084612E+00 0.43140121E+03</pdfrwt>
<totfact> 0.27733841E+04</totfact>
</mgrwt>
</event>
<event>
 7    0  0.4793433E-002  0.4548903E+03  0.7546771E-02  0.1026274E+00
         21   -1    0    0  502  501  0.00000000000E+00  0.00000000000E+00  0.34916769323E+02  0.34916769323E+02  0.00000000000E+00 0. -1.
         21   -1    0    0  501  502 -0.00000000000E+00 -0.00000000000E+00 -0.14815602539E+04  0.14815602539E+04  0.00000000000E+00 0. -1.
      99926    2    1    2    0    0  0.71054273576E-14  0.14210854715E-13 -0.14466434846E+04  0.15164770232E+04  0.45489030600E+03 0.  0.
      99925    2    3    3    0    0  0.36552622618E+02  0.75657718382E+02 -0.11645243772E+04  0.11966350569E+04  0.26221794321E+03 0.  0.
         25    1    3    3    0    0 -0.36552622618E+02 -0.75657718382E+02 -0.28211910734E+03  0.31984196629E+03  0.12509000000E+03 0.  0.
         25    1    4    4    0    0  0.46232663216E+02  0.67300591064E+02 -0.60786570502E+03  0.62595131771E+03  0.12509000000E+03 0.  0.
         25    1    4    4    0    0 -0.96800405978E+01  0.83571273181E+01 -0.55665867220E+03  0.57068373921E+03  0.12509000000E+03 0.  0.
<mgrwt>
<rscale>  2 0.45489031E+03</rscale>
<asrwt>0</asrwt>
<pdfrwt beam="1">  1       21 0.51348195E-02 0.45489031E+03</pdfrwt>
<pdfrwt beam="2">  1       21 0.21787649E+00 0.45489031E+03</pdfrwt>
<totfact> 0.23398096E+04</totfact>
</mgrwt>
</event>
<event>
 7    0  0.4793433E-002  0.4636114E+03  0.7546771E-02  0.1023739E+00
         21   -1    0    0  502  501  0.00000000000E+00  0.00000000000E+00  0.22629055753E+03  0.22629055753E+03  0.00000000000E+00 0.  1.
         21   -1    0    0  501  502 -0.00000000000E+00 -0.00000000000E+00 -0.23745525357E+03  0.23745525357E+03  0.00000000000E+00 0.  1.
      99926    2    1    2    0    0  0.00000000000E+00 -0.71054273576E-14 -0.11164696044E+02  0.46374581110E+03  0.46361139640E+03 0.  0.
      99925    2    3    3    0    0  0.96179504304E+02 -0.51686041664E+02  0.45350961046E+02  0.28835062432E+03  0.26299701315E+03 0.  0.
         25    1    3    3    0    0 -0.96179504304E+02  0.51686041664E+02 -0.56515657090E+02  0.17539518679E+03  0.12509000000E+03 0.  0.
         25    1    4    4    0    0  0.73619976034E+02  0.57880333452E+01  0.22546200654E+02  0.14700082131E+03  0.12509000000E+03 0.  0.
         25    1    4    4    0    0  0.22559528270E+02 -0.57474075009E+02  0.22804760392E+02  0.14134980301E+03  0.12509000000E+03 0.  0.
<mgrwt>
<rscale>  2 0.46361140E+03</rscale>
<asrwt>0</asrwt>
<pdfrwt beam="1">  1       21 0.33278023E-01 0.46361140E+03</pdfrwt>
<pdfrwt beam="2">  1       21 0.34919890E-01 0.46361140E+03</pdfrwt>
<totfact> 0.63437653E+04</totfact>
</mgrwt>
</event>
<event>
 7    0  0.4793433E-002  0.4462270E+03  0.7546771E-02  0.1028853E+00
         21   -1    0    0  502  501  0.00000000000E+00  0.00000000000E+00  0.62015074289E+02  0.62015074289E+02  0.00000000000E+00 0. -1.
         21   -1    0    0  501  502 -0.00000000000E+00 -0.00000000000E+00 -0.80270210596E+03  0.80270210596E+03  0.00000000000E+00 0. -1.
      99926    2    1    2    0    0  0.71054273576E-14  0.00000000000E+00 -0.74068703167E+03  0.86471718025E+03  0.44622698589E+03 0.  0.
      99925    2    3    3    0    0  0.58443164831E+02  0.33766737927E+02 -0.62498830219E+03  0.68144279521E+03  0.26305533481E+03 0.  0.
         25    1    4    4    0    0  0.58980983829E+02  0.75676393006E+01 -0.25784189547E+03  0.29268750704E+03  0.12509000000E+03 0.  0.
         25    1    4    4    0    0 -0.53781899788E+00  0.26199098626E+02 -0.36714640672E+03  0.38875528818E+03  0.12509000000E+03 0.  0.
         25    1    3    3    0    0 -0.58443164831E+02 -0.33766737927E+02 -0.11569872949E+03  0.18327438504E+03  0.12509000000E+03 0.  0.
<mgrwt>
<rscale>  2 0.44622699E+03</rscale>
<asrwt>0</asrwt>
<pdfrwt beam="1">  1       21 0.91198648E-02 0.44622699E+03</pdfrwt>
<pdfrwt beam="2">  1       21 0.11804442E+00 0.44622699E+03</pdfrwt>
<totfact> 0.48006772E+04</totfact>
</mgrwt>
</event>
<event>
 7    0  0.4793433E-002  0.4540218E+03  0.7546771E-02  0.1026529E+00
         21   -1    0    0  502  501  0.00000000000E+00  0.00000000000E+00  0.16027984751E+03  0.16027984751E+03  0.00000000000E+00 0.  1.
         21   -1    0    0  501  502 -0.00000000000E+00 -0.00000000000E+00 -0.32152478288E+03  0.32152478288E+03  0.00000000000E+00 0.  1.
      99926    2    1    2    0    0  0.00000000000E+00  0.00000000000E+00 -0.16124493538E+03  0.48180463039E+03  0.45402177556E+03 0.  0.
      99925    2    3    3    0    0 -0.31739338454E+02  0.94010335212E+02 -0.15758403354E+03  0.32209790219E+03  0.26280982142E+03 0.  0.
         25    1    3    3    0    0  0.31739338454E+02 -0.94010335212E+02 -0.36609018401E+01  0.15970672821E+03  0.12509000000E+03 0.  0.
         25    1    4    4    0    0 -0.21066289678E+02  0.77284474982E+01 -0.55221281764E+02  0.13856556398E+03  0.12509000000E+03 0.  0.
         25    1    4    4    0    0 -0.10673048776E+02  0.86281887714E+02 -0.10236275177E+03  0.18353233821E+03  0.12509000000E+03 0.  0.
<mgrwt>
<rscale>  2 0.45402178E+03</rscale>
<asrwt>0</asrwt>
<pdfrwt beam="1">  1       21 0.23570566E-01 0.45402178E+03</pdfrwt>
<pdfrwt beam="2">  1       21 0.47283055E-01 0.45402178E+03</pdfrwt>
<totfact> 0.67088408E+04</totfact>
</mgrwt>
</event>
<event>
 7    0  0.4793433E-002  0.4567449E+03  0.7546771E-02  0.1025730E+00
         21   -1    0    0  502  501  0.00000000000E+00  0.00000000000E+00  0.16049796046E+03  0.16049796046E+03  0.00000000000E+00 0. -1.
         21   -1    0    0  501  502 -0.00000000000E+00 -0.00000000000E+00 -0.32495095563E+03  0.32495095563E+03  0.00000000000E+00 0. -1.
      99926    2    1    2    0    0  0.53290705182E-14 -0.14210854715E-13 -0.16445299517E+03  0.48544891608E+03  0.45674485493E+03 0.  0.
      99925    2    3    3    0    0 -0.13302191854E+02 -0.10295463693E+03 -0.50880749041E+02  0.28714922177E+03  0.26284828203E+03 0.  0.
         25    1    3    3    0    0  0.13302191854E+02  0.10295463693E+03 -0.11357224613E+03  0.19829969431E+03  0.12509000000E+03 0.  0.
         25    1    4    4    0    0 -0.46662681180E+02 -0.55245687237E+02 -0.21451802130E+02  0.14607251517E+03  0.12509000000E+03 0.  0.
         25    1    4    4    0    0  0.33360489326E+02 -0.47708949693E+02 -0.29428946911E+02  0.14107670660E+03  0.12509000000E+03 0.  0.
<mgrwt>
<rscale>  2 0.45674485E+03</rscale>
<asrwt>0</asrwt>
<pdfrwt beam="1">  1       21 0.23602641E-01 0.45674485E+03</pdfrwt>
<pdfrwt beam="2">  1       21 0.47786905E-01 0.45674485E+03</pdfrwt>
<totfact> 0.65395049E+04</totfact>
</mgrwt>
</event>
<event>
 7    0  0.4793433E-002  0.4592972E+03  0.7546771E-02  0.1024985E+00
         21   -1    0    0  502  501  0.00000000000E+00  0.00000000000E+00  0.31121127829E+03  0.31121127829E+03  0.00000000000E+00 0. -1.
         21   -1    0    0  501  502 -0.00000000000E+00 -0.00000000000E+00 -0.16946195170E+03  0.16946195170E+03  0.00000000000E+00 0. -1.
      99926    2    1    2    0    0  0.00000000000E+00  0.00000000000E+00  0.14174932659E+03  0.48067322999E+03  0.45929716136E+03 0.  0.
      99925    2    3    3    0    0 -0.79046059124E+02  0.62864580870E+02  0.15118640119E+03  0.31962416458E+03  0.26287267581E+03 0.  0.
         25    1    3    3    0    0  0.79046059124E+02 -0.62864580870E+02 -0.94370745951E+01  0.16104906541E+03  0.12509000000E+03 0.  0.
         25    1    4    4    0    0 -0.63426049174E+01  0.18294118439E+02  0.94509957262E+02  0.15797007162E+03  0.12509000000E+03 0.  0.
         25    1    4    4    0    0 -0.72703454206E+02  0.44570462431E+02  0.56676443927E+02  0.16165409296E+03  0.12509000000E+03 0.  0.
<mgrwt>
<rscale>  2 0.45929716E+03</rscale>
<asrwt>0</asrwt>
<pdfrwt beam="1">  1       21 0.45766364E-01 0.45929716E+03</pdfrwt>
<pdfrwt beam="2">  1       21 0.24920875E-01 0.45929716E+03</pdfrwt>
<totfact> 0.64425608E+04</totfact>
</mgrwt>
</event>
<event>
 6    0  0.4793433E-002  0.4535611E+03  0.7546771E-02  0.1026665E+00
         21   -1    0    0  502  501  0.00000000000E+00  0.00000000000E+00  0.30726764590E+03  0.30726764590E+03  0.00000000000E+00 0.  1.
         21   -1    0    0  501  502 -0.00000000000E+00 -0.00000000000E+00 -0.16737658152E+03  0.16737658152E+03  0.00000000000E+00 0.  1.
      99926    2    1    2    0    0 -0.44408920985E-15 -0.35527136788E-14  0.13989106438E+03  0.47464422742E+03  0.45356105733E+03 0.  0.
         25    1    3    3    0    0 -0.10231227723E+02  0.49884931239E+02  0.13446994147E+03  0.19058556515E+03  0.12509000000E+03 0.  0.
         25    1    3    3    0    0  0.33885727046E+01 -0.30185908131E+02 -0.59247553911E+02  0.14170551231E+03  0.12509000000E+03 0.  0.
         25    1    3    3    0    0  0.68426550184E+01 -0.19699023108E+02  0.64668676823E+02  0.14235314995E+03  0.12509000000E+03 0.  0.
<mgrwt>
<rscale>  2 0.45356106E+03</rscale>
<asrwt>0</asrwt>
<pdfrwt beam="1">  1       21 0.45186419E-01 0.45356106E+03</pdfrwt>
<pdfrwt beam="2">  1       21 0.24614203E-01 0.45356106E+03</pdfrwt>
<totfact> 0.67863741E+04</totfact>
</mgrwt>
</event>
<event>
 7    0  0.4793433E-002  0.4568900E+03  0.7546771E-02  0.1025687E+00
         21   -1    0    0  502  501  0.00000000000E+00  0.00000000000E+00  0.10769382052E+04  0.10769382052E+04  0.00000000000E+00 0.  1.
         21   -1    0    0  501  502 -0.00000000000E+00 -0.00000000000E+00 -0.48458785162E+02  0.48458785162E+02  0.00000000000E+00 0.  1.
      99926    2    1    2    0    0  0.00000000000E+00  0.00000000000E+00  0.10284794200E+04  0.11253969903E+04  0.45688999602E+03 0.  0.
      99925    2    3    3    0    0  0.31588428579E+02  0.10420999129E+03  0.55502940823E+03  0.62373976387E+03  0.26293744110E+03 0.  0.
         25    1    4    4    0    0  0.40740642946E+02  0.53158380620E+02  0.35376785744E+03  0.38116245680E+03  0.12509000000E+03 0.  0.
         25    1    4    4    0    0 -0.91522143666E+01  0.51051610669E+02  0.20126155079E+03  0.24257730707E+03  0.12509000000E+03 0.  0.
         25    1    3    3    0    0 -0.31588428579E+02 -0.10420999129E+03  0.47345001177E+03  0.50165722645E+03  0.12509000000E+03 0.  0.
<mgrwt>
<rscale>  2 0.45689000E+03</rscale>
<asrwt>0</asrwt>
<pdfrwt beam="1">  1       21 0.15837325E+00 0.45689000E+03</pdfrwt>
<pdfrwt beam="2">  1       21 0.71262926E-02 0.45689000E+03</pdfrwt>
<totfact> 0.34109170E+04</totfact>
</mgrwt>
</event>
<event>
 6    0  0.5257380E-002  0.4495414E+03  0.7546771E-02  0.1027859E+00
         21   -1    0    0  502  501  0.00000000000E+00  0.00000000000E+00  0.13508241277E+03  0.13508241277E+03  0.00000000000E+00 0. -1.
         21   -1    0    0  501  502 -0.00000000000E+00 -0.00000000000E+00 -0.37400770272E+03  0.37400770272E+03  0.00000000000E+00 0. -1.
      99926    2    1    2    0    0  0.00000000000E+00 -0.71054273576E-14 -0.23892528996E+03  0.50909011549E+03  0.44954137908E+03 0.  0.
         25    1    3    3    0    0 -0.48099550050E+02  0.11532956017E+01 -0.81046468298E+02  0.15662354526E+03  0.12509000000E+03 0.  0.
         25    1    3    3    0    0  0.39983839906E+02 -0.48397994006E+02 -0.16736161547E+03  0.21817078565E+03  0.12509000000E+03 0.  0.
         25    1    3    3    0    0  0.81157101439E+01  0.47244698404E+02  0.94827938078E+01  0.13429578458E+03  0.12509000000E+03 0.  0.
<mgrwt>
<rscale>  2 0.44954138E+03</rscale>
<asrwt>0</asrwt>
<pdfrwt beam="1">  1       21 0.19865061E-01 0.44954138E+03</pdfrwt>
<pdfrwt beam="2">  1       21 0.55001132E-01 0.44954138E+03</pdfrwt>
<totfact> 0.67514196E+04</totfact>
</mgrwt>
</event>
<event>
 7    0  0.4793433E-002  0.4513546E+03  0.7546771E-02  0.1027319E+00
         21   -1    0    0  502  501  0.00000000000E+00  0.00000000000E+00  0.38383208459E+03  0.38383208459E+03  0.00000000000E+00 0. -1.
         21   -1    0    0  501  502 -0.00000000000E+00 -0.00000000000E+00 -0.13268888448E+03  0.13268888448E+03  0.00000000000E+00 0. -1.
      99926    2    1    2    0    0  0.00000000000E+00  0.35527136788E-14  0.25114320011E+03  0.51652096908E+03  0.45135463278E+03 0.  0.
      99925    2    3    3    0    0  0.77467759013E+02  0.25154961144E+02  0.24303850969E+03  0.36703110366E+03  0.26269771240E+03 0.  0.
         25    1    3    3    0    0 -0.77467759013E+02 -0.25154961144E+02  0.81046904195E+01  0.14948986542E+03  0.12509000000E+03 0.  0.
         25    1    4    4    0    0  0.47051555633E+02  0.23374320389E+02  0.17493246971E+03  0.22137995573E+03  0.12509000000E+03 0.  0.
         25    1    4    4    0    0  0.30416203380E+02  0.17806407550E+01  0.68106039979E+02  0.14565114792E+03  0.12509000000E+03 0.  0.
<mgrwt>
<rscale>  2 0.45135463E+03</rscale>
<asrwt>0</asrwt>
<pdfrwt beam="1">  1       21 0.56445895E-01 0.45135463E+03</pdfrwt>
<pdfrwt beam="2">  1       21 0.19513071E-01 0.45135463E+03</pdfrwt>
<totfact> 0.66013656E+04</totfact>
</mgrwt>
</event>
<event>
 7    0  0.4793433E-002  0.4237324E+03  0.7546771E-02  0.1035858E+00
         21   -1    0    0  502  501  0.00000000000E+00  0.00000000000E+00  0.40912414849E+03  0.40912414849E+03  0.00000000000E+00 0. -1.
         21   -1    0    0  501  502 -0.00000000000E+00 -0.00000000000E+00 -0.10971555476E+03  0.10971555476E+03  0.00000000000E+00 0. -1.
      99926    2    1    2    0    0  0.00000000000E+00  0.00000000000E+00  0.29940859374E+03  0.51883970325E+03  0.42373238213E+03 0.  0.
      99925    2    3    3    0    0 -0.71738066070E+02 -0.38988952689E+02  0.19900540626E+03  0.33885415741E+03  0.26182532292E+03 0.  0.
         25    1    4    4    0    0 -0.44730489040E+02  0.15580354468E+02  0.11455064069E+03  0.17610485933E+03  0.12509000000E+03 0.  0.
         25    1    3    3    0    0  0.71738066070E+02  0.38988952689E+02  0.10040318748E+03  0.17998554584E+03  0.12509000000E+03 0.  0.
         25    1    4    4    0    0 -0.27007577029E+02 -0.54569307157E+02  0.84454765562E+02  0.16274929808E+03  0.12509000000E+03 0.  0.
<mgrwt>
<rscale>  2 0.42373238E+03</rscale>
<asrwt>0</asrwt>
<pdfrwt beam="1">  1       21 0.60165316E-01 0.42373238E+03</pdfrwt>
<pdfrwt beam="2">  1       21 0.16134640E-01 0.42373238E+03</pdfrwt>
<totfact> 0.82602763E+04</totfact>
</mgrwt>
</event>
<event>
 7    0  0.4793433E-002  0.4563715E+03  0.7546771E-02  0.1025839E+00
         21   -1    0    0  502  501  0.00000000000E+00  0.00000000000E+00  0.38383138703E+02  0.38383138703E+02  0.00000000000E+00 0.  1.
         21   -1    0    0  501  502 -0.00000000000E+00 -0.00000000000E+00 -0.13565524436E+04  0.13565524436E+04  0.00000000000E+00 0.  1.
      99926    2    1    2    0    0 -0.17763568394E-14  0.00000000000E+00 -0.13181693049E+04  0.13949355823E+04  0.45637151796E+03 0.  0.
      99925    2    3    3    0    0 -0.79049825727E+01  0.76011991837E+02 -0.56762102029E+03  0.63020651441E+03  0.26291884010E+03 0.  0.
         25    1    3    3    0    0  0.79049825727E+01 -0.76011991837E+02 -0.75054828463E+03  0.76472906792E+03  0.12509000000E+03 0.  0.
         25    1    4    4    0    0  0.22424929447E+02  0.65838121766E+02 -0.33177831413E+03  0.36133349355E+03  0.12509000000E+03 0.  0.
         25    1    4    4    0    0 -0.30329912020E+02  0.10173870071E+02 -0.23584270616E+03  0.26887302086E+03  0.12509000000E+03 0.  0.
<mgrwt>
<rscale>  2 0.45637152E+03</rscale>
<asrwt>0</asrwt>
<pdfrwt beam="1">  1       21 0.56445784E-02 0.45637152E+03</pdfrwt>
<pdfrwt beam="2">  1       21 0.19949304E+00 0.45637152E+03</pdfrwt>
<totfact> 0.26187033E+04</totfact>
</mgrwt>
</event>
<event>
 7    0  0.4793433E-002  0.4599521E+03  0.7546771E-02  0.1024795E+00
         21   -1    0    0  502  501  0.00000000000E+00  0.00000000000E+00  0.39635991365E+03  0.39635991365E+03  0.00000000000E+00 0. -1.
         21   -1    0    0  501  502 -0.00000000000E+00 -0.00000000000E+00 -0.13343674556E+03  0.13343674556E+03  0.00000000000E+00 0. -1.
      99926    2    1    2    0    0 -0.17763568394E-14  0.00000000000E+00  0.26292316808E+03  0.52979665921E+03  0.45995207119E+03 0.  0.
      99925    2    3    3    0    0 -0.13219699140E+02  0.95437858855E+02  0.24261513725E+03  0.37060159156E+03  0.26305947901E+03 0.  0.
         25    1    4    4    0    0  0.34453395073E+01  0.84572774470E+02  0.15613296845E+03  0.21723129720E+03  0.12509000000E+03 0.  0.
         25    1    3    3    0    0  0.13219699140E+02 -0.95437858855E+02  0.20308030834E+02  0.15919506765E+03  0.12509000000E+03 0.  0.
         25    1    4    4    0    0 -0.16665038647E+02  0.10865084385E+02  0.86482168797E+02  0.15337029436E+03  0.12509000000E+03 0.  0.
<mgrwt>
<rscale>  2 0.45995207E+03</rscale>
<asrwt>0</asrwt>
<pdfrwt beam="1">  1       21 0.58288222E-01 0.45995207E+03</pdfrwt>
<pdfrwt beam="2">  1       21 0.19623051E-01 0.45995207E+03</pdfrwt>
<totfact> 0.60798442E+04</totfact>
</mgrwt>
</event>
<event>
 7    0  0.4793433E-002  0.4752451E+03  0.7546771E-02  0.1020450E+00
         21   -1    0    0  502  501  0.00000000000E+00  0.00000000000E+00  0.10793290109E+03  0.10793290109E+03  0.00000000000E+00 0. -1.
         21   -1    0    0  501  502 -0.00000000000E+00 -0.00000000000E+00 -0.52314414019E+03  0.52314414019E+03  0.00000000000E+00 0. -1.
      99926    2    1    2    0    0  0.14210854715E-13 -0.35527136788E-14 -0.41521123910E+03  0.63107704127E+03  0.47524505147E+03 0.  0.
      99925    2    3    3    0    0 -0.12797502307E+03  0.27832347448E+02 -0.26483496223E+03  0.39567785088E+03  0.26319414576E+03 0.  0.
         25    1    4    4    0    0 -0.33278027694E+02 -0.15515870844E+02 -0.13272718726E+03  0.18604349952E+03  0.12509000000E+03 0.  0.
         25    1    4    4    0    0 -0.94696995373E+02  0.43348218292E+02 -0.13210777497E+03  0.20963435136E+03  0.12509000000E+03 0.  0.
         25    1    3    3    0    0  0.12797502307E+03 -0.27832347448E+02 -0.15037627687E+03  0.23539919039E+03  0.12509000000E+03 0.  0.
<mgrwt>
<rscale>  2 0.47524505E+03</rscale>
<asrwt>0</asrwt>
<pdfrwt beam="1">  1       21 0.15872486E-01 0.47524505E+03</pdfrwt>
<pdfrwt beam="2">  1       21 0.76932961E-01 0.47524505E+03</pdfrwt>
<totfact> 0.48564680E+04</totfact>
</mgrwt>
</event>
<event>
 7    0  0.4793433E-002  0.4524271E+03  0.7546771E-02  0.1027001E+00
         21   -1    0    0  502  501  0.00000000000E+00  0.00000000000E+00  0.68661876160E+02  0.68661876160E+02  0.00000000000E+00 0.  1.
         21   -1    0    0  501  502 -0.00000000000E+00 -0.00000000000E+00 -0.74528354596E+03  0.74528354596E+03  0.00000000000E+00 0.  1.
      99926    2    1    2    0    0 -0.14210854715E-13  0.00000000000E+00 -0.67662166980E+03  0.81394542212E+03  0.45242708379E+03 0.  0.
      99925    2    3    3    0    0 -0.76311263142E+02  0.78286066142E+02 -0.39778498152E+03  0.48936950825E+03  0.26324419660E+03 0.  0.
         25    1    4    4    0    0 -0.66726123175E+02  0.12833420228E+02 -0.17719189241E+03  0.22729176629E+03  0.12509000000E+03 0.  0.
         25    1    4    4    0    0 -0.95851399662E+01  0.65452645914E+02 -0.22059308911E+03  0.26207774195E+03  0.12509000000E+03 0.  0.
         25    1    3    3    0    0  0.76311263142E+02 -0.78286066142E+02 -0.27883668828E+03  0.32457591387E+03  0.12509000000E+03 0.  0.
<mgrwt>
<rscale>  2 0.45242708E+03</rscale>
<asrwt>0</asrwt>
<pdfrwt beam="1">  1       21 0.10097335E-01 0.45242708E+03</pdfrwt>
<pdfrwt beam="2">  1       21 0.10960052E+00 0.45242708E+03</pdfrwt>
<totfact> 0.48060683E+04</totfact>
</mgrwt>
</event>
<event>
 7    0  0.4793433E-002  0.4966954E+03  0.7546771E-02  0.1014645E+00
         21   -1    0    0  502  501  0.00000000000E+00  0.00000000000E+00  0.42233568199E+02  0.42233568199E+02  0.00000000000E+00 0. -1.
         21   -1    0    0  501  502 -0.00000000000E+00 -0.00000000000E+00 -0.14603683831E+04  0.14603683831E+04  0.00000000000E+00 0. -1.
      99926    2    1    2    0    0  0.00000000000E+00 -0.35527136788E-14 -0.14181348149E+04  0.15026019513E+04  0.49669535010E+03 0.  0.
      99925    2    3    3    0    0 -0.14591260475E+03 -0.23749944108E+02 -0.92525056528E+03  0.97303898083E+03  0.26241513217E+03 0.  0.
         25    1    4    4    0    0 -0.47359345197E+02 -0.24332825992E+02 -0.52381379873E+03  0.54116854846E+03  0.12509000000E+03 0.  0.
         25    1    4    4    0    0 -0.98553259550E+02  0.58288188428E+00 -0.40143676655E+03  0.43187043237E+03  0.12509000000E+03 0.  0.
         25    1    3    3    0    0  0.14591260475E+03  0.23749944108E+02 -0.49288424963E+03  0.52956297048E+03  0.12509000000E+03 0.  0.
<mgrwt>
<rscale>  2 0.49669535E+03</rscale>
<asrwt>0</asrwt>
<pdfrwt beam="1">  1       21 0.62108196E-02 0.49669535E+03</pdfrwt>
<pdfrwt beam="2">  1       21 0.21476003E+00 0.49669535E+03</pdfrwt>
<totfact> 0.17371548E+04</totfact>
</mgrwt>
</event>
<event>
 7    0  0.4793433E-002  0.4475475E+03  0.7546771E-02  0.1028456E+00
         21   -1    0    0  502  501  0.00000000000E+00  0.00000000000E+00  0.57456838984E+02  0.57456838984E+02  0.00000000000E+00 0. -1.
         21   -1    0    0  501  502 -0.00000000000E+00 -0.00000000000E+00 -0.87151851153E+03  0.87151851153E+03  0.00000000000E+00 0. -1.
      99926    2    1    2    0    0 -0.55511151231E-16  0.00000000000E+00 -0.81406167254E+03  0.92897535051E+03  0.44754753396E+03 0.  0.
      99925    2    3    3    0    0 -0.35244395550E+00  0.10282414367E+03 -0.56941719710E+03  0.63559614845E+03  0.26300872767E+03 0.  0.
         25    1    4    4    0    0  0.18613099498E+01  0.25316161520E+02 -0.19257417516E+03  0.23103396622E+03  0.12509000000E+03 0.  0.
         25    1    3    3    0    0  0.35244395550E+00 -0.10282414367E+03 -0.24464447544E+03  0.29337920206E+03  0.12509000000E+03 0.  0.
         25    1    4    4    0    0 -0.22137539053E+01  0.77507982154E+02 -0.37684302194E+03  0.40456218222E+03  0.12509000000E+03 0.  0.
<mgrwt>
<rscale>  2 0.44754753E+03</rscale>
<asrwt>0</asrwt>
<pdfrwt beam="1">  1       21 0.84495355E-02 0.44754753E+03</pdfrwt>
<pdfrwt beam="2">  1       21 0.12816448E+00 0.44754753E+03</pdfrwt>
<totfact> 0.44544462E+04</totfact>
</mgrwt>
</event>
<event>
 7    0  0.4793433E-002  0.4098853E+03  0.7546771E-02  0.1040409E+00
         21   -1    0    0  502  501  0.00000000000E+00  0.00000000000E+00  0.27571745116E+03  0.27571745116E+03  0.00000000000E+00 0.  1.
         21   -1    0    0  501  502 -0.00000000000E+00 -0.00000000000E+00 -0.15233529375E+03  0.15233529375E+03  0.00000000000E+00 0.  1.
      99926    2    1    2    0    0 -0.71054273576E-14 -0.35527136788E-14  0.12338215740E+03  0.42805274491E+03  0.40988534453E+03 0.  0.
      99925    2    3    3    0    0  0.51991090624E+02  0.28157424624E+02  0.61661994925E+02  0.27655092769E+03  0.26302528381E+03 0.  0.
         25    1    4    4    0    0  0.17525745202E+01 -0.18323557952E+02  0.37894847178E+02  0.13199375681E+03  0.12509000000E+03 0.  0.
         25    1    4    4    0    0  0.50238516103E+02  0.46480982575E+02  0.23767147746E+02  0.14455717088E+03  0.12509000000E+03 0.  0.
         25    1    3    3    0    0 -0.51991090624E+02 -0.28157424624E+02  0.61720162479E+02  0.15150181722E+03  0.12509000000E+03 0.  0.
<mgrwt>
<rscale>  2 0.40988534E+03</rscale>
<asrwt>0</asrwt>
<pdfrwt beam="1">  1       21 0.40546684E-01 0.40988534E+03</pdfrwt>
<pdfrwt beam="2">  1       21 0.22402249E-01 0.40988534E+03</pdfrwt>
<totfact> 0.10285496E+05</totfact>
</mgrwt>
</event>
<event>
 7    0  0.4793433E-002  0.4530807E+03  0.7546771E-02  0.1026807E+00
         21   -1    0    0  502  501  0.00000000000E+00  0.00000000000E+00  0.79987965754E+02  0.79987965754E+02  0.00000000000E+00 0. -1.
         21   -1    0    0  501  502 -0.00000000000E+00 -0.00000000000E+00 -0.64160324696E+03  0.64160324696E+03  0.00000000000E+00 0. -1.
      99926    2    1    2    0    0  0.00000000000E+00  0.17763568394E-14 -0.56161528121E+03  0.72159121271E+03  0.45308073694E+03 0.  0.
      99925    2    3    3    0    0  0.76315090180E+01 -0.96767626105E+01 -0.53025408817E+03  0.59204233316E+03  0.26304533178E+03 0.  0.
         25    1    3    3    0    0 -0.76315090180E+01  0.96767626105E+01 -0.31361193037E+02  0.12954887955E+03  0.12509000000E+03 0.  0.
         25    1    4    4    0    0 -0.12388917136E+02  0.23208245492E+02 -0.31734875945E+03  0.34212549035E+03  0.12509000000E+03 0.  0.
         25    1    4    4    0    0  0.20020426154E+02 -0.32885008103E+02 -0.21290532872E+03  0.24991684281E+03  0.12509000000E+03 0.  0.
<mgrwt>
<rscale>  2 0.45308074E+03</rscale>
<asrwt>0</asrwt>
<pdfrwt beam="1">  1       21 0.11762936E-01 0.45308074E+03</pdfrwt>
<pdfrwt beam="2">  1       21 0.94353417E-01 0.45308074E+03</pdfrwt>
<totfact> 0.52534923E+04</totfact>
</mgrwt>
</event>
<event>
 7    0  0.4793433E-002  0.4566374E+03  0.7546771E-02  0.1025761E+00
         21   -1    0    0  502  501  0.00000000000E+00  0.00000000000E+00  0.19355570621E+04  0.19355570621E+04  0.00000000000E+00 0. -1.
         21   -1    0    0  501  502 -0.00000000000E+00 -0.00000000000E+00 -0.26932515853E+02  0.26932515853E+02  0.00000000000E+00 0. -1.
      99926    2    1    2    0    0 -0.17763568394E-14  0.14210854715E-13  0.19086245463E+04  0.19624895780E+04  0.45663736711E+03 0.  0.
      99925    2    3    3    0    0 -0.13870369848E+02 -0.87275847414E+02  0.15135323195E+04  0.15387504643E+04  0.26298944564E+03 0.  0.
         25    1    3    3    0    0  0.13870369848E+02  0.87275847414E+02  0.39509222676E+03  0.42373911366E+03  0.12509000000E+03 0.  0.
         25    1    4    4    0    0  0.27826279494E+02 -0.64027894592E+02  0.74671548327E+03  0.76033242347E+03  0.12509000000E+03 0.  0.
         25    1    4    4    0    0 -0.41696649343E+02 -0.23247952822E+02  0.76681683623E+03  0.77841804084E+03  0.12509000000E+03 0.  0.
<mgrwt>
<rscale>  2 0.45663737E+03</rscale>
<asrwt>0</asrwt>
<pdfrwt beam="1">  1       21 0.28464065E+00 0.45663737E+03</pdfrwt>
<pdfrwt beam="2">  1       21 0.39606654E-02 0.45663737E+03</pdfrwt>
<totfact> 0.14151422E+04</totfact>
</mgrwt>
</event>
<event>
 7    0  0.4793433E-002  0.4404894E+03  0.7546771E-02  0.1030597E+00
         21   -1    0    0  502  501  0.00000000000E+00  0.00000000000E+00  0.15067769552E+04  0.15067769552E+04  0.00000000000E+00 0.  1.
         21   -1    0    0  501  502 -0.00000000000E+00 -0.00000000000E+00 -0.32193044748E+02  0.32193044748E+02  0.00000000000E+00 0.  1.
      99926    2    1    2    0    0  0.00000000000E+00  0.00000000000E+00  0.14745839105E+04  0.15389699999E+04  0.44048944570E+03 0.  0.
      99925    2    3    3    0    0  0.49890883856E+02 -0.75828629059E+02  0.80308670222E+03  0.84991623569E+03  0.26300242418E+03 0.  0.
         25    1    3    3    0    0 -0.49890883856E+02  0.75828629059E+02  0.67149720823E+03  0.68905376426E+03  0.12509000000E+03 0.  0.
         25    1    4    4    0    0  0.51473244926E+02 -0.36214615024E+02  0.50843187899E+03  0.52736275652E+03  0.12509000000E+03 0.  0.
         25    1    4    4    0    0 -0.15823610694E+01 -0.39614014035E+02  0.29465482323E+03  0.32255347918E+03  0.12509000000E+03 0.  0.
<mgrwt>
<rscale>  2 0.44048945E+03</rscale>
<asrwt>0</asrwt>
<pdfrwt beam="1">  1       21 0.22158480E+00 0.44048945E+03</pdfrwt>
<pdfrwt beam="2">  1       21 0.47342723E-02 0.44048945E+03</pdfrwt>
<totfact> 0.25606592E+04</totfact>
</mgrwt>
</event>
<event>
 7    0  0.4793433E-002  0.4508928E+03  0.7546771E-02  0.1027456E+00
         21   -1    0    0  502  501  0.00000000000E+00  0.00000000000E+00  0.39226099000E+03  0.39226099000E+03  0.00000000000E+00 0. -1.
         21   -1    0    0  501  502 -0.00000000000E+00 -0.00000000000E+00 -0.12957211237E+03  0.12957211237E+03  0.00000000000E+00 0. -1.
      99926    2    1    2    0    0  0.35527136788E-14  0.00000000000E+00  0.26268887764E+03  0.52183310237E+03  0.45089282573E+03 0.  0.
      99925    2    3    3    0    0 -0.73615976704E+01 -0.21368301859E+02  0.28963900698E+03  0.39189228886E+03  0.26301713682E+03 0.  0.
         25    1    3    3    0    0  0.73615976704E+01  0.21368301859E+02 -0.26950129338E+02  0.12994081351E+03  0.12509000000E+03 0.  0.
         25    1    4    4    0    0  0.34014885515E+02 -0.25473031969E+02  0.14900179653E+03  0.19913545958E+03  0.12509000000E+03 0.  0.
         25    1    4    4    0    0 -0.41376483185E+02  0.41047301099E+01  0.14063721045E+03  0.19275682927E+03  0.12509000000E+03 0.  0.
<mgrwt>
<rscale>  2 0.45089283E+03</rscale>
<asrwt>0</asrwt>
<pdfrwt beam="1">  1       21 0.57685439E-01 0.45089283E+03</pdfrwt>
<pdfrwt beam="2">  1       21 0.19054723E-01 0.45089283E+03</pdfrwt>
<totfact> 0.65881818E+04</totfact>
</mgrwt>
</event>
<event>
 7    0  0.4793433E-002  0.4544673E+03  0.7546771E-02  0.1026398E+00
         21   -1    0    0  502  501  0.00000000000E+00  0.00000000000E+00  0.43995640854E+02  0.43995640854E+02  0.00000000000E+00 0.  1.
         21   -1    0    0  501  502 -0.00000000000E+00 -0.00000000000E+00 -0.11736419955E+04  0.11736419955E+04  0.00000000000E+00 0.  1.
      99926    2    1    2    0    0  0.14210854715E-13  0.00000000000E+00 -0.11296463546E+04  0.12176376363E+04  0.45446730014E+03 0.  0.
      99925    2    3    3    0    0  0.78389079883E+02 -0.30630024229E+02 -0.91187575726E+03  0.95277052360E+03  0.26300423522E+03 0.  0.
         25    1    4    4    0    0  0.68882339854E+02  0.12429517661E+02 -0.45713077844E+03  0.47907757864E+03  0.12509000000E+03 0.  0.
         25    1    3    3    0    0 -0.78389079883E+02  0.30630024229E+02 -0.21777059738E+03  0.26486711274E+03  0.12509000000E+03 0.  0.
         25    1    4    4    0    0  0.95067400294E+01 -0.43059541890E+02 -0.45474497882E+03  0.47369294497E+03  0.12509000000E+03 0.  0.
<mgrwt>
<rscale>  2 0.45446730E+03</rscale>
<asrwt>0</asrwt>
<pdfrwt beam="1">  1       21 0.64699480E-02 0.45446730E+03</pdfrwt>
<pdfrwt beam="2">  1       21 0.17259439E+00 0.45446730E+03</pdfrwt>
<totfact> 0.31733331E+04</totfact>
</mgrwt>
</event>
<event>
 7    0  0.4793433E-002  0.4526365E+03  0.7546771E-02  0.1026939E+00
         21   -1    0    0  502  501  0.00000000000E+00  0.00000000000E+00  0.21498745023E+04  0.21498745023E+04  0.00000000000E+00 0.  1.
         21   -1    0    0  501  502 -0.00000000000E+00 -0.00000000000E+00 -0.23824622073E+02  0.23824622073E+02  0.00000000000E+00 0.  1.
      99926    2    1    2    0    0  0.00000000000E+00  0.00000000000E+00  0.21260498802E+04  0.21736991244E+04  0.45263648779E+03 0.  0.
      99925    2    3    3    0    0  0.58714636693E+02  0.67637729982E+02  0.10268632525E+04  0.10637977676E+04  0.26304995713E+03 0.  0.
         25    1    3    3    0    0 -0.58714636693E+02 -0.67637729982E+02  0.10991866277E+04  0.11099013568E+04  0.12509000000E+03 0.  0.
         25    1    4    4    0    0  0.65828707462E+02  0.56023230185E+02  0.56228208797E+03  0.58247804731E+03  0.12509000000E+03 0.  0.
         25    1    4    4    0    0 -0.71140707696E+01  0.11614499797E+02  0.46458116452E+03  0.48131972029E+03  0.12509000000E+03 0.  0.
<mgrwt>
<rscale>  2 0.45263649E+03</rscale>
<asrwt>0</asrwt>
<pdfrwt beam="1">  1       21 0.31615788E+00 0.45263649E+03</pdfrwt>
<pdfrwt beam="2">  1       21 0.35036224E-02 0.45263649E+03</pdfrwt>
<totfact> 0.11281256E+04</totfact>
</mgrwt>
</event>
<event>
 7    0  0.4793433E-002  0.4518677E+03  0.7546771E-02  0.1027167E+00
         21   -1    0    0  502  501  0.00000000000E+00  0.00000000000E+00  0.76099953680E+03  0.76099953680E+03  0.00000000000E+00 0.  1.
         21   -1    0    0  501  502 -0.00000000000E+00 -0.00000000000E+00 -0.67077697645E+02  0.67077697645E+02  0.00000000000E+00 0.  1.
      99926    2    1    2    0    0  0.00000000000E+00  0.00000000000E+00  0.69392183915E+03  0.82807723444E+03  0.45186766575E+03 0.  0.
      99925    2    3    3    0    0  0.22719287495E+02 -0.93884269108E+02  0.53365602811E+03  0.60299267189E+03  0.26359245817E+03 0.  0.
         25    1    4    4    0    0  0.33704204353E+02 -0.45132923767E+02  0.34418904666E+03  0.37052201303E+03  0.12509000000E+03 0.  0.
         25    1    4    4    0    0 -0.10984916859E+02 -0.48751345341E+02  0.18946698144E+03  0.23247065885E+03  0.12509000000E+03 0.  0.
         25    1    3    3    0    0 -0.22719287495E+02  0.93884269108E+02  0.16026581105E+03  0.22508456256E+03  0.12509000000E+03 0.  0.
<mgrwt>
<rscale>  2 0.45186767E+03</rscale>
<asrwt>0</asrwt>
<pdfrwt beam="1">  1       21 0.11191169E+00 0.45186767E+03</pdfrwt>
<pdfrwt beam="2">  1       21 0.98643678E-02 0.45186767E+03</pdfrwt>
<totfact> 0.47595556E+04</totfact>
</mgrwt>
</event>
<event>
 7    0  0.4793433E-002  0.4539043E+03  0.7546771E-02  0.1026564E+00
         21   -1    0    0  502  501  0.00000000000E+00  0.00000000000E+00  0.79523467290E+02  0.79523467290E+02  0.00000000000E+00 0.  1.
         21   -1    0    0  501  502 -0.00000000000E+00 -0.00000000000E+00 -0.64769917000E+03  0.64769917000E+03  0.00000000000E+00 0.  1.
      99926    2    1    2    0    0 -0.14210854715E-13  0.00000000000E+00 -0.56817570271E+03  0.72722263729E+03  0.45390432366E+03 0.  0.
      99925    2    3    3    0    0 -0.99614527198E+02  0.29555214246E+02 -0.29034314687E+03  0.40529873029E+03  0.26300447357E+03 0.  0.
         25    1    3    3    0    0  0.99614527198E+02 -0.29555214246E+02 -0.27783255584E+03  0.32192390700E+03  0.12509000000E+03 0.  0.
         25    1    4    4    0    0 -0.22059853386E+02  0.11071200818E+02 -0.90217170529E+02  0.15619172378E+03  0.12509000000E+03 0.  0.
         25    1    4    4    0    0 -0.77554673812E+02  0.18484013429E+02 -0.20012597635E+03  0.24910700651E+03  0.12509000000E+03 0.  0.
<mgrwt>
<rscale>  2 0.45390432E+03</rscale>
<asrwt>0</asrwt>
<pdfrwt beam="1">  1       21 0.11694628E-01 0.45390432E+03</pdfrwt>
<pdfrwt beam="2">  1       21 0.95249877E-01 0.45390432E+03</pdfrwt>
<totfact> 0.51895496E+04</totfact>
</mgrwt>
</event>
<event>
 7    0  0.4793433E-002  0.4532520E+03  0.7546771E-02  0.1026757E+00
         21   -1    0    0  502  501  0.00000000000E+00  0.00000000000E+00  0.10380019592E+04  0.10380019592E+04  0.00000000000E+00 0.  1.
         21   -1    0    0  501  502 -0.00000000000E+00 -0.00000000000E+00 -0.49479035078E+02  0.49479035078E+02  0.00000000000E+00 0.  1.
      99926    2    1    2    0    0  0.00000000000E+00  0.00000000000E+00  0.98852292417E+03  0.10874809943E+04  0.45325196239E+03 0.  0.
      99925    2    3    3    0    0  0.25450514473E+02  0.73409264268E+02  0.43133502075E+03  0.51116292539E+03  0.26306080552E+03 0.  0.
         25    1    4    4    0    0  0.28721488199E+02  0.15883900017E+01  0.23125903990E+03  0.26449139589E+03  0.12509000000E+03 0.  0.
         25    1    4    4    0    0 -0.32709737258E+01  0.71820874267E+02  0.20007598086E+03  0.24667152950E+03  0.12509000000E+03 0.  0.
         25    1    3    3    0    0 -0.25450514473E+02 -0.73409264268E+02  0.55718790341E+03  0.57631806893E+03  0.12509000000E+03 0.  0.
<mgrwt>
<rscale>  2 0.45325196E+03</rscale>
<asrwt>0</asrwt>
<pdfrwt beam="1">  1       21 0.15264733E+00 0.45325196E+03</pdfrwt>
<pdfrwt beam="2">  1       21 0.72763293E-02 0.45325196E+03</pdfrwt>
<totfact> 0.36425642E+04</totfact>
</mgrwt>
</event>
<event>
 7    0  0.4793433E-002  0.4621039E+03  0.7546771E-02  0.1024173E+00
         21   -1    0    0  502  501  0.00000000000E+00  0.00000000000E+00  0.29154396629E+03  0.29154396629E+03  0.00000000000E+00 0.  1.
         21   -1    0    0  501  502 -0.00000000000E+00 -0.00000000000E+00 -0.18311136025E+03  0.18311136025E+03  0.00000000000E+00 0.  1.
      99926    2    1    2    0    0 -0.14210854715E-13  0.00000000000E+00  0.10843260604E+03  0.47465532654E+03  0.46210393739E+03 0.  0.
      99925    2    3    3    0    0  0.11052747151E+03 -0.31035725446E+02  0.10260851413E+03  0.30477017016E+03  0.26301484983E+03 0.  0.
         25    1    4    4    0    0  0.51413419105E+02 -0.12102895210E+02  0.93434583821E+02  0.16482520830E+03  0.12509000000E+03 0.  0.
         25    1    4    4    0    0  0.59114052402E+02 -0.18932830236E+02  0.91739303068E+01  0.13994496186E+03  0.12509000000E+03 0.  0.
         25    1    3    3    0    0 -0.11052747151E+03  0.31035725446E+02  0.58240919126E+01  0.16988515638E+03  0.12509000000E+03 0.  0.
<mgrwt>
<rscale>  2 0.46210394E+03</rscale>
<asrwt>0</asrwt>
<pdfrwt beam="1">  1       21 0.42874113E-01 0.46210394E+03</pdfrwt>
<pdfrwt beam="2">  1       21 0.26928141E-01 0.46210394E+03</pdfrwt>
<totfact> 0.63439895E+04</totfact>
</mgrwt>
</event>
<event>
 7    0  0.4793433E-002  0.4438724E+03  0.7546771E-02  0.1029565E+00
         21   -1    0    0  502  501  0.00000000000E+00  0.00000000000E+00  0.86459738764E+02  0.86459738764E+02  0.00000000000E+00 0.  1.
         21   -1    0    0  501  502 -0.00000000000E+00 -0.00000000000E+00 -0.56969492102E+03  0.56969492102E+03  0.00000000000E+00 0.  1.
      99926    2    1    2    0    0 -0.71054273576E-14  0.00000000000E+00 -0.48323518225E+03  0.65615465978E+03  0.44387238728E+03 0.  0.
      99925    2    3    3    0    0  0.47887731935E+02  0.41784994238E+02 -0.18862230629E+03  0.32983660114E+03  0.26301062413E+03 0.  0.
         25    1    4    4    0    0  0.49066089205E+02  0.13292869474E+02 -0.58666835087E+02  0.14721918057E+03  0.12509000000E+03 0.  0.
         25    1    4    4    0    0 -0.11783572697E+01  0.28492124763E+02 -0.12995547120E+03  0.18261742057E+03  0.12509000000E+03 0.  0.
         25    1    3    3    0    0 -0.47887731935E+02 -0.41784994238E+02 -0.29461287596E+03  0.32631805864E+03  0.12509000000E+03 0.  0.
<mgrwt>
<rscale>  2 0.44387239E+03</rscale>
<asrwt>0</asrwt>
<pdfrwt beam="1">  1       21 0.12714667E-01 0.44387239E+03</pdfrwt>
<pdfrwt beam="2">  1       21 0.83778665E-01 0.44387239E+03</pdfrwt>
<totfact> 0.60482413E+04</totfact>
</mgrwt>
</event>
<event>
 7    0  0.4793433E-002  0.4879635E+03  0.7546771E-02  0.1016969E+00
         21   -1    0    0  502  501  0.00000000000E+00  0.00000000000E+00  0.52528761818E+02  0.52528761818E+02  0.00000000000E+00 0. -1.
         21   -1    0    0  501  502 -0.00000000000E+00 -0.00000000000E+00 -0.11332287987E+04  0.11332287987E+04  0.00000000000E+00 0. -1.
      99926    2    1    2    0    0  0.00000000000E+00  0.14210854715E-13 -0.10807000369E+04  0.11857575605E+04  0.48796354639E+03 0.  0.
      99925    2    3    3    0    0 -0.70416509273E+02 -0.12285971472E+03 -0.64472919061E+03  0.71060381574E+03  0.26311415666E+03 0.  0.
         25    1    4    4    0    0 -0.32360284616E+02 -0.99347308707E+02 -0.30487010016E+03  0.34570270731E+03  0.12509000000E+03 0.  0.
         25    1    4    4    0    0 -0.38056224657E+02 -0.23512406015E+02 -0.33985909045E+03  0.36490110843E+03  0.12509000000E+03 0.  0.
         25    1    3    3    0    0  0.70416509273E+02  0.12285971472E+03 -0.43597084625E+03  0.47515374476E+03  0.12509000000E+03 0.  0.
<mgrwt>
<rscale>  2 0.48796355E+03</rscale>
<asrwt>0</asrwt>
<pdfrwt beam="1">  1       21 0.77248189E-02 0.48796355E+03</pdfrwt>
<pdfrwt beam="2">  1       21 0.16665127E+00 0.48796355E+03</pdfrwt>
<totfact> 0.25425520E+04</totfact>
</mgrwt>
</event>
<event>
 7    0  0.4793433E-002  0.4500781E+03  0.7546771E-02  0.1027699E+00
         21   -1    0    0  502  501  0.00000000000E+00  0.00000000000E+00  0.32846837266E+03  0.32846837266E+03  0.00000000000E+00 0.  1.
         21   -1    0    0  501  502 -0.00000000000E+00 -0.00000000000E+00 -0.15417793978E+03  0.15417793978E+03  0.00000000000E+00 0.  1.
      99926    2    1    2    0    0  0.00000000000E+00  0.14210854715E-13  0.17429043288E+03  0.48264631245E+03  0.45007811313E+03 0.  0.
      99925    2    3    3    0    0 -0.48308737427E+02 -0.86188625288E+02  0.15664948541E+03  0.32226886899E+03  0.26373461927E+03 0.  0.
         25    1    4    4    0    0 -0.16289846697E+02 -0.83731357003E+02  0.70421877045E+02  0.16698217904E+03  0.12509000000E+03 0.  0.
         25    1    3    3    0    0  0.48308737427E+02  0.86188625288E+02  0.17640947469E+02  0.16037744345E+03  0.12509000000E+03 0.  0.
         25    1    4    4    0    0 -0.32018890731E+02 -0.24572682845E+01  0.86227608369E+02  0.15528668995E+03  0.12509000000E+03 0.  0.
<mgrwt>
<rscale>  2 0.45007811E+03</rscale>
<asrwt>0</asrwt>
<pdfrwt beam="1">  1       21 0.48304172E-01 0.45007811E+03</pdfrwt>
<pdfrwt beam="2">  1       21 0.22673227E-01 0.45007811E+03</pdfrwt>
<totfact> 0.69171377E+04</totfact>
</mgrwt>
</event>
<event>
 7    0  0.4793433E-002  0.4753557E+03  0.7546771E-02  0.1020419E+00
         21   -1    0    0  502  501  0.00000000000E+00  0.00000000000E+00  0.93725864319E+03  0.93725864319E+03  0.00000000000E+00 0.  1.
         21   -1    0    0  501  502 -0.00000000000E+00 -0.00000000000E+00 -0.60272338996E+02  0.60272338996E+02  0.00000000000E+00 0.  1.
      99926    2    1    2    0    0  0.44408920985E-15  0.00000000000E+00  0.87698630420E+03  0.99753098219E+03  0.47535574329E+03 0.  0.
      99925    2    3    3    0    0  0.36516158311E+01 -0.38847287840E+02  0.80470484779E+03  0.84788285119E+03  0.26425932569E+03 0.  0.
         25    1    3    3    0    0 -0.36516158311E+01  0.38847287840E+02  0.72281456405E+02  0.14964813100E+03  0.12509000000E+03 0.  0.
         25    1    4    4    0    0 -0.91702132207E+01  0.18997739721E+02  0.43490667879E+03  0.45303016928E+03  0.12509000000E+03 0.  0.
         25    1    4    4    0    0  0.12821829052E+02 -0.57845027562E+02  0.36979816900E+03  0.39485268191E+03  0.12509000000E+03 0.  0.
<mgrwt>
<rscale>  2 0.47535574E+03</rscale>
<asrwt>0</asrwt>
<pdfrwt beam="1">  1       21 0.13783214E+00 0.47535574E+03</pdfrwt>
<pdfrwt beam="2">  1       21 0.88635798E-02 0.47535574E+03</pdfrwt>
<totfact> 0.33595327E+04</totfact>
</mgrwt>
</event>
<event>
 7    0  0.4793433E-002  0.4599626E+03  0.7546771E-02  0.1024792E+00
         21   -1    0    0  502  501  0.00000000000E+00  0.00000000000E+00  0.43106440617E+03  0.43106440617E+03  0.00000000000E+00 0.  1.
         21   -1    0    0  501  502 -0.00000000000E+00 -0.00000000000E+00 -0.12269954249E+03  0.12269954249E+03  0.00000000000E+00 0.  1.
      99926    2    1    2    0    0  0.00000000000E+00  0.00000000000E+00  0.30836486368E+03  0.55376394866E+03  0.45996263075E+03 0.  0.
      99925    2    3    3    0    0  0.83108918556E+02  0.59787959307E+02  0.26336688512E+03  0.38597235592E+03  0.26292746326E+03 0.  0.
         25    1    3    3    0    0 -0.83108918556E+02 -0.59787959307E+02  0.44997978554E+02  0.16779159274E+03  0.12509000000E+03 0.  0.
         25    1    4    4    0    0  0.24464990004E+02  0.17701680039E+02  0.76160918034E+02  0.14953219970E+03  0.12509000000E+03 0.  0.
         25    1    4    4    0    0  0.58643928552E+02  0.42086279268E+02  0.18720596709E+03  0.23644015622E+03  0.12509000000E+03 0.  0.
<mgrwt>
<rscale>  2 0.45996263E+03</rscale>
<asrwt>0</asrwt>
<pdfrwt beam="1">  1       21 0.63391824E-01 0.45996263E+03</pdfrwt>
<pdfrwt beam="2">  1       21 0.18044050E-01 0.45996263E+03</pdfrwt>
<totfact> 0.59257493E+04</totfact>
</mgrwt>
</event>
<event>
 7    0  0.4793433E-002  0.4553939E+03  0.7546771E-02  0.1026126E+00
         21   -1    0    0  502  501  0.00000000000E+00  0.00000000000E+00  0.51729473964E+03  0.51729473964E+03  0.00000000000E+00 0.  1.
         21   -1    0    0  501  502 -0.00000000000E+00 -0.00000000000E+00 -0.10022505077E+03  0.10022505077E+03  0.00000000000E+00 0.  1.
      99926    2    1    2    0    0 -0.14210854715E-13  0.00000000000E+00  0.41706968887E+03  0.61751979041E+03  0.45539385830E+03 0.  0.
      99925    2    3    3    0    0 -0.86104012040E+02  0.73640997207E+02  0.25299492582E+03  0.38213726488E+03  0.26303147978E+03 0.  0.
         25    1    4    4    0    0 -0.19230776467E+02  0.69065052570E+02  0.13624407783E+03  0.19836774207E+03  0.12509000000E+03 0.  0.
         25    1    4    4    0    0 -0.66873235573E+02  0.45759446373E+01  0.11675084800E+03  0.18376952281E+03  0.12509000000E+03 0.  0.
         25    1    3    3    0    0  0.86104012040E+02 -0.73640997207E+02  0.16407476305E+03  0.23538252554E+03  0.12509000000E+03 0.  0.
<mgrwt>
<rscale>  2 0.45539386E+03</rscale>
<asrwt>0</asrwt>
<pdfrwt beam="1">  1       21 0.76072755E-01 0.45539386E+03</pdfrwt>
<pdfrwt beam="2">  1       21 0.14738978E-01 0.45539386E+03</pdfrwt>
<totfact> 0.57433787E+04</totfact>
</mgrwt>
</event>
<event>
 7    0  0.4793433E-002  0.4525010E+03  0.7546771E-02  0.1026979E+00
         21   -1    0    0  502  501  0.00000000000E+00  0.00000000000E+00  0.77493618866E+02  0.77493618866E+02  0.00000000000E+00 0. -1.
         21   -1    0    0  501  502 -0.00000000000E+00 -0.00000000000E+00 -0.66056145728E+03  0.66056145728E+03  0.00000000000E+00 0. -1.
      99926    2    1    2    0    0  0.00000000000E+00  0.00000000000E+00 -0.58306783842E+03  0.73805507615E+03  0.45250104003E+03 0.  0.
      99925    2    3    3    0    0  0.71159531996E+02  0.73471330111E+02 -0.43729610463E+03  0.52043471448E+03  0.26298801031E+03 0.  0.
         25    1    4    4    0    0  0.42736340347E+02  0.64002739532E+02 -0.28862403714E+03  0.32384269078E+03  0.12509000000E+03 0.  0.
         25    1    3    3    0    0 -0.71159531996E+02 -0.73471330111E+02 -0.14577173378E+03  0.21762036167E+03  0.12509000000E+03 0.  0.
         25    1    4    4    0    0  0.28423191649E+02  0.94685905791E+01 -0.14867206749E+03  0.19659202370E+03  0.12509000000E+03 0.  0.
<mgrwt>
<rscale>  2 0.45250104E+03</rscale>
<asrwt>0</asrwt>
<pdfrwt beam="1">  1       21 0.11396120E-01 0.45250104E+03</pdfrwt>
<pdfrwt beam="2">  1       21 0.97141395E-01 0.45250104E+03</pdfrwt>
<totfact> 0.51897149E+04</totfact>
</mgrwt>
</event>
<event>
 7    0  0.4793433E-002  0.4482997E+03  0.7546771E-02  0.1028230E+00
         21   -1    0    0  502  501  0.00000000000E+00  0.00000000000E+00  0.10709256513E+04  0.10709256513E+04  0.00000000000E+00 0. -1.
         21   -1    0    0  501  502 -0.00000000000E+00 -0.00000000000E+00 -0.46915627298E+02  0.46915627298E+02  0.00000000000E+00 0. -1.
      99926    2    1    2    0    0  0.00000000000E+00  0.35527136788E-14  0.10240100240E+04  0.11178412786E+04  0.44829967085E+03 0.  0.
      99925    2    3    3    0    0 -0.10332603220E+03  0.24133637424E+02  0.67746814869E+03  0.73443877361E+03  0.26301809502E+03 0.  0.
         25    1    3    3    0    0  0.10332603220E+03 -0.24133637424E+02  0.34654187532E+03  0.38340250500E+03  0.12509000000E+03 0.  0.
         25    1    4    4    0    0 -0.22863381689E+02  0.14457737044E+02  0.39261071994E+03  0.41294363525E+03  0.12509000000E+03 0.  0.
         25    1    4    4    0    0 -0.80462650511E+02  0.96759003806E+01  0.28485742875E+03  0.32149513836E+03  0.12509000000E+03 0.  0.
<mgrwt>
<rscale>  2 0.44829967E+03</rscale>
<asrwt>0</asrwt>
<pdfrwt beam="1">  1       21 0.15748905E+00 0.44829967E+03</pdfrwt>
<pdfrwt beam="2">  1       21 0.68993577E-02 0.44829967E+03</pdfrwt>
<totfact> 0.36757294E+04</totfact>
</mgrwt>
</event>
<event>
 6    0  0.4793433E-002  0.4483056E+03  0.7546771E-02  0.1028229E+00
         21   -1    0    0  502  501  0.00000000000E+00  0.00000000000E+00  0.83163048246E+03  0.83163048246E+03  0.00000000000E+00 0.  1.
         21   -1    0    0  501  502 -0.00000000000E+00 -0.00000000000E+00 -0.60416833924E+02  0.60416833924E+02  0.00000000000E+00 0.  1.
      99926    2    1    2    0    0  0.14210854715E-13 -0.48849813084E-14  0.77121364854E+03  0.89204731639E+03  0.44830561337E+03 0.  0.
         25    1    3    3    0    0 -0.66048795917E+01 -0.43216341040E+02  0.25767215193E+03  0.28974768774E+03  0.12509000000E+03 0.  0.
         25    1    3    3    0    0 -0.74031444670E+02  0.46288468107E+02  0.34626652172E+03  0.37837982140E+03  0.12509000000E+03 0.  0.
         25    1    3    3    0    0  0.80636324262E+02 -0.30721270673E+01  0.16727497488E+03  0.22391980725E+03  0.12509000000E+03 0.  0.
<mgrwt>
<rscale>  2 0.44830561E+03</rscale>
<asrwt>0</asrwt>
<pdfrwt beam="1">  1       21 0.12229859E+00 0.44830561E+03</pdfrwt>
<pdfrwt beam="2">  1       21 0.88848290E-02 0.44830561E+03</pdfrwt>
<totfact> 0.45940470E+04</totfact>
</mgrwt>
</event>
<event>
 7    0  0.4793433E-002  0.4504436E+03  0.7546771E-02  0.1027590E+00
         21   -1    0    0  502  501  0.00000000000E+00  0.00000000000E+00  0.32556992047E+03  0.32556992047E+03  0.00000000000E+00 0.  1.
         21   -1    0    0  501  502 -0.00000000000E+00 -0.00000000000E+00 -0.15580328919E+03  0.15580328919E+03  0.00000000000E+00 0.  1.
      99926    2    1    2    0    0  0.00000000000E+00 -0.71054273576E-14  0.16976663128E+03  0.48137320966E+03  0.45044362342E+03 0.  0.
      99925    2    3    3    0    0  0.94050598169E+02 -0.52626217805E+02  0.91759736513E+02  0.29875990908E+03  0.26310188182E+03 0.  0.
         25    1    4    4    0    0  0.33141251543E+02  0.46332164933E+01  0.16506860267E+02  0.13053656110E+03  0.12509000000E+03 0.  0.
         25    1    3    3    0    0 -0.94050598169E+02  0.52626217805E+02  0.78006894763E+02  0.18261330058E+03  0.12509000000E+03 0.  0.
         25    1    4    4    0    0  0.60909346627E+02 -0.57259434298E+02  0.75252876246E+02  0.16822334798E+03  0.12509000000E+03 0.  0.
<mgrwt>
<rscale>  2 0.45044362E+03</rscale>
<asrwt>0</asrwt>
<pdfrwt beam="1">  1       21 0.47877930E-01 0.45044362E+03</pdfrwt>
<pdfrwt beam="2">  1       21 0.22912248E-01 0.45044362E+03</pdfrwt>
<totfact> 0.69064713E+04</totfact>
</mgrwt>
</event>
<event>
 7    0  0.4793433E-002  0.4568047E+03  0.7546771E-02  0.1025712E+00
         21   -1    0    0  502  501  0.00000000000E+00  0.00000000000E+00  0.14257034544E+04  0.14257034544E+04  0.00000000000E+00 0. -1.
         21   -1    0    0  501  502 -0.00000000000E+00 -0.00000000000E+00 -0.36590803203E+02  0.36590803203E+02  0.00000000000E+00 0. -1.
      99926    2    1    2    0    0  0.71054273576E-14  0.35527136788E-14  0.13891126512E+04  0.14622942576E+04  0.45680470455E+03 0.  0.
      99925    2    3    3    0    0 -0.40613126557E+02 -0.28050666976E+02  0.54068695853E+03  0.60327741839E+03  0.26299237718E+03 0.  0.
         25    1    4    4    0    0 -0.45258604608E+02  0.93919512550E+01  0.32214829414E+03  0.34865969305E+03  0.12509000000E+03 0.  0.
         25    1    4    4    0    0  0.46454780511E+01 -0.37442618231E+02  0.21853866438E+03  0.25461772534E+03  0.12509000000E+03 0.  0.
         25    1    3    3    0    0  0.40613126557E+02  0.28050666976E+02  0.84842569264E+03  0.85901683919E+03  0.12509000000E+03 0.  0.
<mgrwt>
<rscale>  2 0.45680470E+03</rscale>
<asrwt>0</asrwt>
<pdfrwt beam="1">  1       21 0.20966224E+00 0.45680470E+03</pdfrwt>
<pdfrwt beam="2">  1       21 0.53810014E-02 0.45680470E+03</pdfrwt>
<totfact> 0.24374531E+04</totfact>
</mgrwt>
</event>
<event>
 7    0  0.4793433E-002  0.4517537E+03  0.7546771E-02  0.1027200E+00
         21   -1    0    0  502  501  0.00000000000E+00  0.00000000000E+00  0.17106331979E+03  0.17106331979E+03  0.00000000000E+00 0.  1.
         21   -1    0    0  501  502 -0.00000000000E+00 -0.00000000000E+00 -0.29825415753E+03  0.29825415753E+03  0.00000000000E+00 0.  1.
      99926    2    1    2    0    0  0.00000000000E+00  0.00000000000E+00 -0.12719083774E+03  0.46931747732E+03  0.45175367770E+03 0.  0.
      99925    2    3    3    0    0  0.48371869855E+02  0.87357036887E+02 -0.13003925064E+03  0.30923402645E+03  0.26219150772E+03 0.  0.
         25    1    4    4    0    0  0.56913053310E+02  0.50412326679E+02 -0.92806618999E+02  0.17332361336E+03  0.12509000000E+03 0.  0.
         25    1    4    4    0    0 -0.85411834542E+01  0.36944710208E+02 -0.37232631641E+02  0.13591041309E+03  0.12509000000E+03 0.  0.
         25    1    3    3    0    0 -0.48371869855E+02 -0.87357036887E+02  0.28484128970E+01  0.16008345087E+03  0.12509000000E+03 0.  0.
<mgrwt>
<rscale>  2 0.45175368E+03</rscale>
<asrwt>0</asrwt>
<pdfrwt beam="1">  1       21 0.25156371E-01 0.45175368E+03</pdfrwt>
<pdfrwt beam="2">  1       21 0.43860905E-01 0.45175368E+03</pdfrwt>
<totfact> 0.69253023E+04</totfact>
</mgrwt>
</event>
<event>
 6    0  0.4793433E-002  0.4341170E+03  0.7546771E-02  0.1032567E+00
         21   -1    0    0  502  501  0.00000000000E+00  0.00000000000E+00  0.10773785554E+03  0.10773785554E+03  0.00000000000E+00 0.  1.
         21   -1    0    0  501  502 -0.00000000000E+00 -0.00000000000E+00 -0.43730579446E+03  0.43730579446E+03  0.00000000000E+00 0.  1.
      99926    2    1    2    0    0  0.17763568394E-14  0.00000000000E+00 -0.32956793892E+03  0.54504364999E+03  0.43411698197E+03 0.  0.
         25    1    3    3    0    0 -0.20523988895E+02 -0.71491006227E+02 -0.11545329302E+03  0.18576643685E+03  0.12509000000E+03 0.  0.
         25    1    3    3    0    0  0.15513576810E+02  0.72839236680E+02 -0.17599896537E+03  0.22840615004E+03  0.12509000000E+03 0.  0.
         25    1    3    3    0    0  0.50104120850E+01 -0.13482304529E+01 -0.38115680531E+02  0.13087106310E+03  0.12509000000E+03 0.  0.
<mgrwt>
<rscale>  2 0.43411698E+03</rscale>
<asrwt>0</asrwt>
<pdfrwt beam="1">  1       21 0.15843802E-01 0.43411698E+03</pdfrwt>
<pdfrwt beam="2">  1       21 0.64309675E-01 0.43411698E+03</pdfrwt>
<totfact> 0.73628119E+04</totfact>
</mgrwt>
</event>
<event>
 7    0  0.4793433E-002  0.4350255E+03  0.7546771E-02  0.1032284E+00
         21   -1    0    0  502  501  0.00000000000E+00  0.00000000000E+00  0.39859594777E+02  0.39859594777E+02  0.00000000000E+00 0. -1.
         21   -1    0    0  501  502 -0.00000000000E+00 -0.00000000000E+00 -0.11869611677E+04  0.11869611677E+04  0.00000000000E+00 0. -1.
      99926    2    1    2    0    0 -0.42188474936E-14  0.00000000000E+00 -0.11471015729E+04  0.12268207625E+04  0.43502547585E+03 0.  0.
      99925    2    3    3    0    0 -0.17553814297E+01  0.92783789701E+02 -0.71182209894E+03  0.76451389300E+03  0.26301878080E+03 0.  0.
         25    1    4    4    0    0  0.31580367129E+02  0.61449618758E+02 -0.31403933199E+03  0.34502403593E+03  0.12509000000E+03 0.  0.
         25    1    3    3    0    0  0.17553814297E+01 -0.92783789701E+02 -0.43527947396E+03  0.46230686946E+03  0.12509000000E+03 0.  0.
         25    1    4    4    0    0 -0.33335748559E+02  0.31334170943E+02 -0.39778276695E+03  0.41948985707E+03  0.12509000000E+03 0.  0.
<mgrwt>
<rscale>  2 0.43502548E+03</rscale>
<asrwt>0</asrwt>
<pdfrwt beam="1">  1       21 0.58617050E-02 0.43502548E+03</pdfrwt>
<pdfrwt beam="2">  1       21 0.17455312E+00 0.43502548E+03</pdfrwt>
<totfact> 0.36698847E+04</totfact>
</mgrwt>
</event>
<event>
 7    0  0.4793433E-002  0.4539178E+03  0.7546771E-02  0.1026560E+00
         21   -1    0    0  502  501  0.00000000000E+00  0.00000000000E+00  0.34353121249E+03  0.34353121249E+03  0.00000000000E+00 0. -1.
         21   -1    0    0  501  502 -0.00000000000E+00 -0.00000000000E+00 -0.14994372466E+03  0.14994372466E+03  0.00000000000E+00 0. -1.
      99926    2    1    2    0    0 -0.71054273576E-14  0.00000000000E+00  0.19358748783E+03  0.49347493715E+03  0.45391783194E+03 0.  0.
      99925    2    3    3    0    0 -0.17496051911E+02  0.64316194697E+02  0.21998106685E+03  0.34929860815E+03  0.26301171675E+03 0.  0.
         25    1    4    4    0    0  0.23494073006E+02  0.20838623963E+02  0.77306060926E+02  0.15036606955E+03  0.12509000000E+03 0.  0.
         25    1    3    3    0    0  0.17496051911E+02 -0.64316194697E+02 -0.26393579017E+02  0.14417632901E+03  0.12509000000E+03 0.  0.
         25    1    4    4    0    0 -0.40990124917E+02  0.43477570733E+02  0.14267500592E+03  0.19893253860E+03  0.12509000000E+03 0.  0.
<mgrwt>
<rscale>  2 0.45391783E+03</rscale>
<asrwt>0</asrwt>
<pdfrwt beam="1">  1       21 0.50519296E-01 0.45391783E+03</pdfrwt>
<pdfrwt beam="2">  1       21 0.22050548E-01 0.45391783E+03</pdfrwt>
<totfact> 0.66299277E+04</totfact>
</mgrwt>
</event>
<event>
 7    0  0.4793433E-002  0.4511879E+03  0.7546771E-02  0.1027368E+00
         21   -1    0    0  502  501  0.00000000000E+00  0.00000000000E+00  0.38809397385E+03  0.38809397385E+03  0.00000000000E+00 0. -1.
         21   -1    0    0  501  502 -0.00000000000E+00 -0.00000000000E+00 -0.13113479210E+03  0.13113479210E+03  0.00000000000E+00 0. -1.
      99926    2    1    2    0    0  0.00000000000E+00  0.00000000000E+00  0.25695918175E+03  0.51922876595E+03  0.45118786587E+03 0.  0.
      99925    2    3    3    0    0 -0.45913042808E+02 -0.25637309337E+02  0.27290065005E+03  0.38260183727E+03  0.26295269909E+03 0.  0.
         25    1    3    3    0    0  0.45913042808E+02  0.25637309337E+02 -0.15941468296E+02  0.13662692868E+03  0.12509000000E+03 0.  0.
         25    1    4    4    0    0 -0.38025331032E+02  0.68945693776E+01  0.18279958572E+03  0.22484807655E+03  0.12509000000E+03 0.  0.
         25    1    4    4    0    0 -0.78877117767E+01 -0.32531878714E+02  0.90101064323E+02  0.15775376072E+03  0.12509000000E+03 0.  0.
<mgrwt>
<rscale>  2 0.45118787E+03</rscale>
<asrwt>0</asrwt>
<pdfrwt beam="1">  1       21 0.57072643E-01 0.45118787E+03</pdfrwt>
<pdfrwt beam="2">  1       21 0.19284528E-01 0.45118787E+03</pdfrwt>
<totfact> 0.65910730E+04</totfact>
</mgrwt>
</event>
<event>
 7    0  0.4793433E-002  0.4526598E+03  0.7546771E-02  0.1026932E+00
         21   -1    0    0  502  501  0.00000000000E+00  0.00000000000E+00  0.32981945905E+03  0.32981945905E+03  0.00000000000E+00 0.  1.
         21   -1    0    0  501  502 -0.00000000000E+00 -0.00000000000E+00 -0.15531293756E+03  0.15531293756E+03  0.00000000000E+00 0.  1.
      99926    2    1    2    0    0  0.00000000000E+00 -0.14210854715E-13  0.17450652149E+03  0.48513239662E+03  0.45265982393E+03 0.  0.
      99925    2    3    3    0    0 -0.43067040269E+02  0.93619984053E+02  0.68173932971E+02  0.29129329104E+03  0.26378897796E+03 0.  0.
         25    1    3    3    0    0  0.43067040269E+02 -0.93619984053E+02  0.10633258852E+03  0.19383910558E+03  0.12509000000E+03 0.  0.
         25    1    4    4    0    0 -0.12746785212E+02  0.86107181798E+02  0.20211976309E+02  0.15373015116E+03  0.12509000000E+03 0.  0.
         25    1    4    4    0    0 -0.30320255057E+02  0.75128022549E+01  0.47961956662E+02  0.13756313987E+03  0.12509000000E+03 0.  0.
<mgrwt>
<rscale>  2 0.45265982E+03</rscale>
<asrwt>0</asrwt>
<pdfrwt beam="1">  1       21 0.48502862E-01 0.45265982E+03</pdfrwt>
<pdfrwt beam="2">  1       21 0.22840138E-01 0.45265982E+03</pdfrwt>
<totfact> 0.67575036E+04</totfact>
</mgrwt>
</event>
<event>
 7    0  0.4793433E-002  0.4646425E+03  0.7546771E-02  0.1023443E+00
         21   -1    0    0  502  501  0.00000000000E+00  0.00000000000E+00  0.21361332408E+04  0.21361332408E+04  0.00000000000E+00 0.  1.
         21   -1    0    0  501  502 -0.00000000000E+00 -0.00000000000E+00 -0.25266753322E+02  0.25266753322E+02  0.00000000000E+00 0.  1.
      99926    2    1    2    0    0 -0.35527136788E-14  0.00000000000E+00  0.21108664875E+04  0.21613999941E+04  0.46464245031E+03 0.  0.
      99925    2    3    3    0    0  0.10287100175E+02  0.11283643991E+03  0.15271912667E+04  0.15538128333E+04  0.26302712615E+03 0.  0.
         25    1    3    3    0    0 -0.10287100175E+02 -0.11283643991E+03  0.58367522073E+03  0.60758716082E+03  0.12509000000E+03 0.  0.
         25    1    4    4    0    0 -0.18066855263E+02  0.36024284764E+02  0.56552559292E+03  0.58059526755E+03  0.12509000000E+03 0.  0.
         25    1    4    4    0    0  0.28353955438E+02  0.76812155151E+02  0.96166567381E+03  0.97321756573E+03  0.12509000000E+03 0.  0.
<mgrwt>
<rscale>  2 0.46464245E+03</rscale>
<asrwt>0</asrwt>
<pdfrwt beam="1">  1       21 0.31413712E+00 0.46464245E+03</pdfrwt>
<pdfrwt beam="2">  1       21 0.37157005E-02 0.46464245E+03</pdfrwt>
<totfact> 0.10444901E+04</totfact>
</mgrwt>
</event>
<event>
 7    0  0.4793433E-002  0.4550240E+03  0.7546771E-02  0.1026234E+00
         21   -1    0    0  502  501  0.00000000000E+00  0.00000000000E+00  0.34648774935E+03  0.34648774935E+03  0.00000000000E+00 0. -1.
         21   -1    0    0  501  502 -0.00000000000E+00 -0.00000000000E+00 -0.14938970296E+03  0.14938970296E+03  0.00000000000E+00 0. -1.
      99926    2    1    2    0    0  0.35527136788E-14  0.00000000000E+00  0.19709804640E+03  0.49587745231E+03  0.45502396400E+03 0.  0.
      99925    2    3    3    0    0 -0.10566647373E+02  0.72796770897E+02  0.21796791964E+03  0.34926884547E+03  0.26280732208E+03 0.  0.
         25    1    4    4    0    0 -0.36095658208E+02  0.30357840200E+02  0.76432833015E+02  0.15399344488E+03  0.12509000000E+03 0.  0.
         25    1    3    3    0    0  0.10566647373E+02 -0.72796770897E+02 -0.20869873237E+02  0.14660860684E+03  0.12509000000E+03 0.  0.
         25    1    4    4    0    0  0.25529010835E+02  0.42438930698E+02  0.14153508662E+03  0.19527540060E+03  0.12509000000E+03 0.  0.
<mgrwt>
<rscale>  2 0.45502396E+03</rscale>
<asrwt>0</asrwt>
<pdfrwt beam="1">  1       21 0.50954081E-01 0.45502396E+03</pdfrwt>
<pdfrwt beam="2">  1       21 0.21969074E-01 0.45502396E+03</pdfrwt>
<totfact> 0.65548789E+04</totfact>
</mgrwt>
</event>
<event>
 7    0  0.4793433E-002  0.4549264E+03  0.7546771E-02  0.1026263E+00
         21   -1    0    0  502  501  0.00000000000E+00  0.00000000000E+00  0.32639549055E+03  0.32639549055E+03  0.00000000000E+00 0.  1.
         21   -1    0    0  501  502 -0.00000000000E+00 -0.00000000000E+00 -0.15851786507E+03  0.15851786507E+03  0.00000000000E+00 0.  1.
      99926    2    1    2    0    0  0.00000000000E+00  0.00000000000E+00  0.16787762548E+03  0.48491335562E+03  0.45492643947E+03 0.  0.
      99925    2    3    3    0    0  0.65339145523E+02  0.88053576532E+02  0.75693134757E+02  0.29473416458E+03  0.26289948810E+03 0.  0.
         25    1    3    3    0    0 -0.65339145523E+02 -0.88053576532E+02  0.92184490719E+02  0.19017919105E+03  0.12509000000E+03 0.  0.
         25    1    4    4    0    0 -0.39303997519E+01  0.55202134023E+02  0.22215326577E+02  0.13857760453E+03  0.12509000000E+03 0.  0.
         25    1    4    4    0    0  0.69269545275E+02  0.32851442509E+02  0.53477808180E+02  0.15615656005E+03  0.12509000000E+03 0.  0.
<mgrwt>
<rscale>  2 0.45492644E+03</rscale>
<asrwt>0</asrwt>
<pdfrwt beam="1">  1       21 0.47999337E-01 0.45492644E+03</pdfrwt>
<pdfrwt beam="2">  1       21 0.23311451E-01 0.45492644E+03</pdfrwt>
<totfact> 0.66382906E+04</totfact>
</mgrwt>
</event>
<event>
 7    0  0.4793433E-002  0.4177458E+03  0.7546771E-02  0.1037802E+00
         21   -1    0    0  502  501  0.00000000000E+00  0.00000000000E+00  0.19348409911E+03  0.19348409911E+03  0.00000000000E+00 0. -1.
         21   -1    0    0  501  502 -0.00000000000E+00 -0.00000000000E+00 -0.22548561510E+03  0.22548561510E+03  0.00000000000E+00 0. -1.
      99926    2    1    2    0    0 -0.35527136788E-14  0.00000000000E+00 -0.32001515981E+02  0.41896971421E+03  0.41774576527E+03 0.  0.
      99925    2    3    3    0    0  0.16870214836E+02  0.71061779816E+02 -0.22283358929E+02  0.27379281737E+03  0.26292884600E+03 0.  0.
         25    1    3    3    0    0 -0.16870214836E+02 -0.71061779816E+02 -0.97181570518E+01  0.14517689684E+03  0.12509000000E+03 0.  0.
         25    1    4    4    0    0  0.29247441754E+01 -0.58546168129E+01 -0.62369979567E+01  0.12541626254E+03  0.12509000000E+03 0.  0.
         25    1    4    4    0    0  0.13945470661E+02  0.76916396629E+02 -0.16046360973E+02  0.14837655483E+03  0.12509000000E+03 0.  0.
<mgrwt>
<rscale>  2 0.41774577E+03</rscale>
<asrwt>0</asrwt>
<pdfrwt beam="1">  1       21 0.28453544E-01 0.41774577E+03</pdfrwt>
<pdfrwt beam="2">  1       21 0.33159649E-01 0.41774577E+03</pdfrwt>
<totfact> 0.97071166E+04</totfact>
</mgrwt>
</event>
<event>
 7    0  0.4793433E-002  0.4460373E+03  0.7546771E-02  0.1028910E+00
         21   -1    0    0  502  501  0.00000000000E+00  0.00000000000E+00  0.90011926469E+02  0.90011926469E+02  0.00000000000E+00 0.  1.
         21   -1    0    0  501  502 -0.00000000000E+00 -0.00000000000E+00 -0.55256355005E+03  0.55256355005E+03  0.00000000000E+00 0.  1.
      99926    2    1    2    0    0  0.14210854715E-13  0.00000000000E+00 -0.46255162358E+03  0.64257547652E+03  0.44603726139E+03 0.  0.
      99925    2    3    3    0    0  0.99074131481E+02 -0.12071447640E+02 -0.24912594550E+03  0.37581822443E+03  0.26308591319E+03 0.  0.
         25    1    3    3    0    0 -0.99074131481E+02  0.12071447640E+02 -0.21342567808E+03  0.26675725209E+03  0.12509000000E+03 0.  0.
         25    1    4    4    0    0  0.35649969410E+02 -0.34363180237E+02 -0.86628832099E+02  0.16001190932E+03  0.12509000000E+03 0.  0.
         25    1    4    4    0    0  0.63424162071E+02  0.22291732597E+02 -0.16249711340E+03  0.21580631511E+03  0.12509000000E+03 0.  0.
<mgrwt>
<rscale>  2 0.44603726E+03</rscale>
<asrwt>0</asrwt>
<pdfrwt beam="1">  1       21 0.13237048E-01 0.44603726E+03</pdfrwt>
<pdfrwt beam="2">  1       21 0.81259344E-01 0.44603726E+03</pdfrwt>
<totfact> 0.60282581E+04</totfact>
</mgrwt>
</event>
<event>
 7    0  0.4793433E-002  0.4529577E+03  0.7546771E-02  0.1026844E+00
         21   -1    0    0  502  501  0.00000000000E+00  0.00000000000E+00  0.34366350453E+02  0.34366350453E+02  0.00000000000E+00 0.  1.
         21   -1    0    0  501  502 -0.00000000000E+00 -0.00000000000E+00 -0.14925259817E+04  0.14925259817E+04  0.00000000000E+00 0.  1.
      99926    2    1    2    0    0  0.00000000000E+00  0.35527136788E-14 -0.14581596312E+04  0.15268923321E+04  0.45295770640E+03 0.  0.
      99925    2    3    3    0    0  0.58146569915E+02  0.24822434959E+02 -0.61063113779E+03  0.66785261701E+03  0.26298204262E+03 0.  0.
         25    1    4    4    0    0  0.40932094991E+02  0.51363016937E+02 -0.33072615474E+03  0.35963994973E+03  0.12509000000E+03 0.  0.
         25    1    4    4    0    0  0.17214474923E+02 -0.26540581977E+02 -0.27990498305E+03  0.30821266729E+03  0.12509000000E+03 0.  0.
         25    1    3    3    0    0 -0.58146569915E+02 -0.24822434959E+02 -0.84752849345E+03  0.85903971514E+03  0.12509000000E+03 0.  0.
<mgrwt>
<rscale>  2 0.45295771E+03</rscale>
<asrwt>0</asrwt>
<pdfrwt beam="1">  1       21 0.50538750E-02 0.45295771E+03</pdfrwt>
<pdfrwt beam="2">  1       21 0.21948912E+00 0.45295771E+03</pdfrwt>
<totfact> 0.23498189E+04</totfact>
</mgrwt>
</event>
<event>
 7    0  0.4793433E-002  0.4551821E+03  0.7546771E-02  0.1026188E+00
         21   -1    0    0  502  501  0.00000000000E+00  0.00000000000E+00  0.20849504056E+02  0.20849504056E+02  0.00000000000E+00 0.  1.
         21   -1    0    0  501  502 -0.00000000000E+00 -0.00000000000E+00 -0.24843610300E+04  0.24843610300E+04  0.00000000000E+00 0.  1.
      99926    2    1    2    0    0  0.36082248300E-15 -0.35527136788E-14 -0.24635115259E+04  0.25052105340E+04  0.45518214100E+03 0.  0.
      99925    2    3    3    0    0 -0.24646561868E+00  0.27326578642E+02 -0.21546737078E+04  0.21708826879E+04  0.26337436332E+03 0.  0.
         25    1    3    3    0    0  0.24646561868E+00 -0.27326578642E+02 -0.30883781818E+03  0.33432784611E+03  0.12509000000E+03 0.  0.
         25    1    4    4    0    0 -0.68831253090E+01  0.53813868338E+02 -0.10511598807E+04  0.10599659960E+04  0.12509000000E+03 0.  0.
         25    1    4    4    0    0  0.66366596903E+01 -0.26487289696E+02 -0.11035138271E+04  0.11109166919E+04  0.12509000000E+03 0.  0.
<mgrwt>
<rscale>  2 0.45518214E+03</rscale>
<asrwt>0</asrwt>
<pdfrwt beam="1">  1       21 0.30661043E-02 0.45518214E+03</pdfrwt>
<pdfrwt beam="2">  1       21 0.36534712E+00 0.45518214E+03</pdfrwt>
<totfact> 0.70685996E+03</totfact>
</mgrwt>
</event>
<event>
 7    0  0.4793433E-002  0.4547538E+03  0.7546771E-02  0.1026314E+00
         21   -1    0    0  502  501  0.00000000000E+00  0.00000000000E+00  0.14667284073E+03  0.14667284073E+03  0.00000000000E+00 0.  1.
         21   -1    0    0  501  502 -0.00000000000E+00 -0.00000000000E+00 -0.35248692498E+03  0.35248692498E+03  0.00000000000E+00 0.  1.
      99926    2    1    2    0    0  0.17763568394E-14  0.14210854715E-13 -0.20581408424E+03  0.49915976571E+03  0.45475381739E+03 0.  0.
      99925    2    3    3    0    0  0.10205563021E+02  0.80426521530E+02 -0.21579531732E+03  0.34976193442E+03  0.26304602812E+03 0.  0.
         25    1    3    3    0    0 -0.10205563021E+02 -0.80426521530E+02  0.99812330760E+01  0.14939783130E+03  0.12509000000E+03 0.  0.
         25    1    4    4    0    0  0.52803052847E+01  0.90475936233E+01 -0.13584615542E+03  0.18496331155E+03  0.12509000000E+03 0.  0.
         25    1    4    4    0    0  0.49252577362E+01  0.71378927907E+02 -0.79949161894E+02  0.16479862287E+03  0.12509000000E+03 0.  0.
<mgrwt>
<rscale>  2 0.45475382E+03</rscale>
<asrwt>0</asrwt>
<pdfrwt beam="1">  1       21 0.21569536E-01 0.45475382E+03</pdfrwt>
<pdfrwt beam="2">  1       21 0.51836311E-01 0.45475382E+03</pdfrwt>
<totfact> 0.65457556E+04</totfact>
</mgrwt>
</event>
<event>
 7    0  0.4793433E-002  0.4565837E+03  0.7546771E-02  0.1025777E+00
         21   -1    0    0  502  501  0.00000000000E+00  0.00000000000E+00  0.48943196892E+02  0.48943196892E+02  0.00000000000E+00 0. -1.
         21   -1    0    0  501  502 -0.00000000000E+00 -0.00000000000E+00 -0.10648502234E+04  0.10648502234E+04  0.00000000000E+00 0. -1.
      99926    2    1    2    0    0  0.00000000000E+00  0.00000000000E+00 -0.10159070265E+04  0.11137934203E+04  0.45658372351E+03 0.  0.
      99925    2    3    3    0    0 -0.10834304641E+03 -0.35717860104E+02 -0.61189954734E+03  0.67574829413E+03  0.26306029677E+03 0.  0.
         25    1    3    3    0    0  0.10834304641E+03  0.35717860104E+02 -0.40400747914E+03  0.43804512614E+03  0.12509000000E+03 0.  0.
         25    1    4    4    0    0 -0.82335410551E+02  0.10350218744E+02 -0.34638123967E+03  0.37750989147E+03  0.12509000000E+03 0.  0.
         25    1    4    4    0    0 -0.26007635857E+02 -0.46068078848E+02 -0.26551830767E+03  0.29823840266E+03  0.12509000000E+03 0.  0.
<mgrwt>
<rscale>  2 0.45658372E+03</rscale>
<asrwt>0</asrwt>
<pdfrwt beam="1">  1       21 0.71975291E-02 0.45658372E+03</pdfrwt>
<pdfrwt beam="2">  1       21 0.15659562E+00 0.45658372E+03</pdfrwt>
<totfact> 0.34585389E+04</totfact>
</mgrwt>
</event>
<event>
 7    0  0.4793433E-002  0.4645997E+03  0.7546771E-02  0.1023456E+00
         21   -1    0    0  502  501  0.00000000000E+00  0.00000000000E+00  0.23327197849E+03  0.23327197849E+03  0.00000000000E+00 0.  1.
         21   -1    0    0  501  502 -0.00000000000E+00 -0.00000000000E+00 -0.23133179671E+03  0.23133179671E+03  0.00000000000E+00 0.  1.
      99926    2    1    2    0    0  0.00000000000E+00  0.14210854715E-13  0.19401817852E+01  0.46460377520E+03  0.46459972409E+03 0.  0.
      99925    2    3    3    0    0  0.41569080006E+02 -0.77708933641E+02  0.84818743386E+02  0.29058357277E+03  0.26358665891E+03 0.  0.
         25    1    3    3    0    0 -0.41569080006E+02  0.77708933641E+02 -0.82878561601E+02  0.17402020243E+03  0.12509000000E+03 0.  0.
         25    1    4    4    0    0 -0.11166982002E+02 -0.64969597233E+02  0.37905979945E+02  0.14639030524E+03  0.12509000000E+03 0.  0.
         25    1    4    4    0    0  0.52736062008E+02 -0.12739336409E+02  0.46912763442E+02  0.14419326753E+03  0.12509000000E+03 0.  0.
<mgrwt>
<rscale>  2 0.46459972E+03</rscale>
<asrwt>0</asrwt>
<pdfrwt beam="1">  1       21 0.34304703E-01 0.46459972E+03</pdfrwt>
<pdfrwt beam="2">  1       21 0.34019382E-01 0.46459972E+03</pdfrwt>
<totfact> 0.62890881E+04</totfact>
</mgrwt>
</event>
<event>
 7    0  0.4793433E-002  0.4572965E+03  0.7546771E-02  0.1025568E+00
         21   -1    0    0  502  501  0.00000000000E+00  0.00000000000E+00  0.79527444642E+02  0.79527444642E+02  0.00000000000E+00 0. -1.
         21   -1    0    0  501  502 -0.00000000000E+00 -0.00000000000E+00 -0.65738353559E+03  0.65738353559E+03  0.00000000000E+00 0. -1.
      99926    2    1    2    0    0  0.00000000000E+00  0.00000000000E+00 -0.57785609095E+03  0.73691098023E+03  0.45729654595E+03 0.  0.
      99925    2    3    3    0    0 -0.64226664708E+02 -0.82264882767E+02 -0.28352640000E+03  0.40050341422E+03  0.26291289415E+03 0.  0.
         25    1    4    4    0    0 -0.49041437683E+02 -0.73459848948E+02 -0.18596494617E+03  0.24089807247E+03  0.12509000000E+03 0.  0.
         25    1    4    4    0    0 -0.15185227026E+02 -0.88050338193E+01 -0.97561453829E+02  0.15960534175E+03  0.12509000000E+03 0.  0.
         25    1    3    3    0    0  0.64226664708E+02  0.82264882767E+02 -0.29432969095E+03  0.33640756601E+03  0.12509000000E+03 0.  0.
<mgrwt>
<rscale>  2 0.45729655E+03</rscale>
<asrwt>0</asrwt>
<pdfrwt beam="1">  1       21 0.11695212E-01 0.45729655E+03</pdfrwt>
<pdfrwt beam="2">  1       21 0.96674050E-01 0.45729655E+03</pdfrwt>
<totfact> 0.50034783E+04</totfact>
</mgrwt>
</event>
<event>
 7    0  0.4793433E-002  0.4261702E+03  0.7546771E-02  0.1035077E+00
         21   -1    0    0  502  501  0.00000000000E+00  0.00000000000E+00  0.10689693663E+04  0.10689693663E+04  0.00000000000E+00 0. -1.
         21   -1    0    0  501  502 -0.00000000000E+00 -0.00000000000E+00 -0.42475737293E+02  0.42475737293E+02  0.00000000000E+00 0. -1.
      99926    2    1    2    0    0  0.71054273576E-14  0.14210854715E-13  0.10264936290E+04  0.11114451035E+04  0.42617021001E+03 0.  0.
      99925    2    3    3    0    0  0.36982466404E+02  0.61320705497E+02  0.77594962187E+03  0.82239884543E+03  0.26289563240E+03 0.  0.
         25    1    4    4    0    0  0.28549887437E+02  0.68816885912E+02  0.45601337435E+03  0.47869255849E+03  0.12509000000E+03 0.  0.
         25    1    3    3    0    0 -0.36982466404E+02 -0.61320705497E+02  0.25054400709E+03  0.28904625812E+03  0.12509000000E+03 0.  0.
         25    1    4    4    0    0  0.84325789676E+01 -0.74961804153E+01  0.31993624752E+03  0.34370628694E+03  0.12509000000E+03 0.  0.
<mgrwt>
<rscale>  2 0.42617021E+03</rscale>
<asrwt>0</asrwt>
<pdfrwt beam="1">  1       21 0.15720136E+00 0.42617021E+03</pdfrwt>
<pdfrwt beam="2">  1       21 0.62464326E-02 0.42617021E+03</pdfrwt>
<totfact> 0.44233547E+04</totfact>
</mgrwt>
</event>
<event>
 7    0  0.4793433E-002  0.4503130E+03  0.7546771E-02  0.1027629E+00
         21   -1    0    0  502  501  0.00000000000E+00  0.00000000000E+00  0.58655621825E+02  0.58655621825E+02  0.00000000000E+00 0. -1.
         21   -1    0    0  501  502 -0.00000000000E+00 -0.00000000000E+00 -0.86428975778E+03  0.86428975778E+03  0.00000000000E+00 0. -1.
      99926    2    1    2    0    0  0.00000000000E+00  0.71054273576E-14 -0.80563413595E+03  0.92294537960E+03  0.45031301637E+03 0.  0.
      99925    2    3    3    0    0 -0.55169654843E+02 -0.60949435816E+02 -0.65496412854E+03  0.71056015465E+03  0.26298136658E+03 0.  0.
         25    1    3    3    0    0  0.55169654843E+02  0.60949435816E+02 -0.15067000741E+03  0.21238522495E+03  0.12509000000E+03 0.  0.
         25    1    4    4    0    0 -0.23943034974E+02 -0.59565093055E+01 -0.22866729017E+03  0.26181097498E+03  0.12509000000E+03 0.  0.
         25    1    4    4    0    0 -0.31226619870E+02 -0.54992926510E+02 -0.42629683837E+03  0.44874917967E+03  0.12509000000E+03 0.  0.
<mgrwt>
<rscale>  2 0.45031302E+03</rscale>
<asrwt>0</asrwt>
<pdfrwt beam="1">  1       21 0.86258265E-02 0.45031302E+03</pdfrwt>
<pdfrwt beam="2">  1       21 0.12710144E+00 0.45031302E+03</pdfrwt>
<totfact> 0.43841633E+04</totfact>
</mgrwt>
</event>
<event>
 7    0  0.4793433E-002  0.4601189E+03  0.7546771E-02  0.1024747E+00
         21   -1    0    0  502  501  0.00000000000E+00  0.00000000000E+00  0.62098623236E+03  0.62098623236E+03  0.00000000000E+00 0.  1.
         21   -1    0    0  501  502 -0.00000000000E+00 -0.00000000000E+00 -0.85231115965E+02  0.85231115965E+02  0.00000000000E+00 0.  1.
      99926    2    1    2    0    0  0.71054273576E-14 -0.14210854715E-13  0.53575511640E+03  0.70621734833E+03  0.46011889587E+03 0.  0.
      99925    2    3    3    0    0 -0.49703294141E+02  0.10187248102E+03  0.38617928021E+03  0.48067609111E+03  0.26280534290E+03 0.  0.
         25    1    3    3    0    0  0.49703294141E+02 -0.10187248102E+03  0.14957583618E+03  0.22554125722E+03  0.12509000000E+03 0.  0.
         25    1    4    4    0    0  0.14103627789E+02  0.36595840070E+02  0.18727283260E+03  0.22859744040E+03  0.12509000000E+03 0.  0.
         25    1    4    4    0    0 -0.63806921931E+02  0.65276640954E+02  0.19890644761E+03  0.25207865070E+03  0.12509000000E+03 0.  0.
<mgrwt>
<rscale>  2 0.46011890E+03</rscale>
<asrwt>0</asrwt>
<pdfrwt beam="1">  1       21 0.91321503E-01 0.46011890E+03</pdfrwt>
<pdfrwt beam="2">  1       21 0.12533988E-01 0.46011890E+03</pdfrwt>
<totfact> 0.50501618E+04</totfact>
</mgrwt>
</event>
<event>
 7    0  0.4793433E-002  0.4607843E+03  0.7546771E-02  0.1024554E+00
         21   -1    0    0  502  501  0.00000000000E+00  0.00000000000E+00  0.87966360473E+02  0.87966360473E+02  0.00000000000E+00 0. -1.
         21   -1    0    0  501  502 -0.00000000000E+00 -0.00000000000E+00 -0.60341861718E+03  0.60341861718E+03  0.00000000000E+00 0. -1.
      99926    2    1    2    0    0 -0.71054273576E-14 -0.14210854715E-13 -0.51545225671E+03  0.69138497765E+03  0.46078428617E+03 0.  0.
      99925    2    3    3    0    0  0.35156842704E+02  0.97529112073E+02 -0.23638704765E+03  0.36847193936E+03  0.26295399315E+03 0.  0.
         25    1    3    3    0    0 -0.35156842704E+02 -0.97529112073E+02 -0.27906520906E+03  0.32291303829E+03  0.12509000000E+03 0.  0.
         25    1    4    4    0    0  0.40730476899E+02  0.47979468385E+02 -0.76965280784E+02  0.15978787088E+03  0.12509000000E+03 0.  0.
         25    1    4    4    0    0 -0.55736341949E+01  0.49549643689E+02 -0.15942176686E+03  0.20868406848E+03  0.12509000000E+03 0.  0.
<mgrwt>
<rscale>  2 0.46078429E+03</rscale>
<asrwt>0</asrwt>
<pdfrwt beam="1">  1       21 0.12936230E-01 0.46078429E+03</pdfrwt>
<pdfrwt beam="2">  1       21 0.88738030E-01 0.46078429E+03</pdfrwt>
<totfact> 0.51010524E+04</totfact>
</mgrwt>
</event>
<event>
 7    0  0.4793433E-002  0.4549795E+03  0.7546771E-02  0.1026247E+00
         21   -1    0    0  502  501  0.00000000000E+00  0.00000000000E+00  0.45202274236E+03  0.45202274236E+03  0.00000000000E+00 0. -1.
         21   -1    0    0  501  502 -0.00000000000E+00 -0.00000000000E+00 -0.11448891210E+03  0.11448891210E+03  0.00000000000E+00 0. -1.
      99926    2    1    2    0    0  0.00000000000E+00  0.35527136788E-14  0.33753383027E+03  0.56651165446E+03  0.45497952489E+03 0.  0.
      99925    2    3    3    0    0 -0.99036753194E+02 -0.31230970128E+02  0.15658426527E+03  0.32325478375E+03  0.26304252718E+03 0.  0.
         25    1    3    3    0    0  0.99036753194E+02  0.31230970128E+02  0.18094956500E+03  0.24325687072E+03  0.12509000000E+03 0.  0.
         25    1    4    4    0    0 -0.64766653250E+02 -0.43038624577E+02  0.11393243114E+03  0.18621264604E+03  0.12509000000E+03 0.  0.
         25    1    4    4    0    0 -0.34270099944E+02  0.11807654449E+02  0.42651834130E+02  0.13704213771E+03  0.12509000000E+03 0.  0.
<mgrwt>
<rscale>  2 0.45497952E+03</rscale>
<asrwt>0</asrwt>
<pdfrwt beam="1">  1       21 0.66473932E-01 0.45497952E+03</pdfrwt>
<pdfrwt beam="2">  1       21 0.16836605E-01 0.45497952E+03</pdfrwt>
<totfact> 0.60798260E+04</totfact>
</mgrwt>
</event>
<event>
 7    0  0.4793433E-002  0.4572273E+03  0.7546771E-02  0.1025588E+00
         21   -1    0    0  502  501  0.00000000000E+00  0.00000000000E+00  0.21459189373E+03  0.21459189373E+03  0.00000000000E+00 0.  1.
         21   -1    0    0  501  502 -0.00000000000E+00 -0.00000000000E+00 -0.24355158693E+03  0.24355158693E+03  0.00000000000E+00 0.  1.
      99926    2    1    2    0    0  0.14210854715E-13  0.14210854715E-13 -0.28959693201E+02  0.45814348066E+03  0.45722727941E+03 0.  0.
      99925    2    3    3    0    0  0.86139274087E+02 -0.72111482809E+02 -0.44095797413E+02  0.28933397191E+03  0.26296324355E+03 0.  0.
         25    1    4    4    0    0  0.59918247208E+02 -0.71454902230E+02 -0.67112274514E+01  0.15616833250E+03  0.12509000000E+03 0.  0.
         25    1    3    3    0    0 -0.86139274087E+02  0.72111482809E+02  0.15136104212E+02  0.16880950875E+03  0.12509000000E+03 0.  0.
         25    1    4    4    0    0  0.26221026879E+02 -0.65658057896E+00 -0.37384569962E+02  0.13316563941E+03  0.12509000000E+03 0.  0.
<mgrwt>
<rscale>  2 0.45722728E+03</rscale>
<asrwt>0</asrwt>
<pdfrwt beam="1">  1       21 0.31557631E-01 0.45722728E+03</pdfrwt>
<pdfrwt beam="2">  1       21 0.35816410E-01 0.45722728E+03</pdfrwt>
<totfact> 0.67115486E+04</totfact>
</mgrwt>
</event>
<event>
 7    0  0.4793433E-002  0.4595269E+03  0.7546771E-02  0.1024919E+00
         21   -1    0    0  502  501  0.00000000000E+00  0.00000000000E+00  0.46812759850E+03  0.46812759850E+03  0.00000000000E+00 0. -1.
         21   -1    0    0  501  502 -0.00000000000E+00 -0.00000000000E+00 -0.11277106534E+03  0.11277106534E+03  0.00000000000E+00 0. -1.
      99926    2    1    2    0    0  0.35527136788E-14  0.00000000000E+00  0.35535653316E+03  0.58089866383E+03  0.45952692193E+03 0.  0.
      99925    2    3    3    0    0  0.30722823580E+02  0.37262512020E+02  0.35769210177E+03  0.44678919485E+03  0.26333354947E+03 0.  0.
         25    1    4    4    0    0  0.26038673429E+02  0.56905927440E+02  0.16698425508E+03  0.21782457767E+03  0.12509000000E+03 0.  0.
         25    1    4    4    0    0  0.46841501508E+01 -0.19643415420E+02  0.19070784669E+03  0.22896461718E+03  0.12509000000E+03 0.  0.
         25    1    3    3    0    0 -0.30722823580E+02 -0.37262512020E+02 -0.23355686063E+01  0.13410946899E+03  0.12509000000E+03 0.  0.
<mgrwt>
<rscale>  2 0.45952692E+03</rscale>
<asrwt>0</asrwt>
<pdfrwt beam="1">  1       21 0.68842293E-01 0.45952692E+03</pdfrwt>
<pdfrwt beam="2">  1       21 0.16583980E-01 0.45952692E+03</pdfrwt>
<totfact> 0.57774122E+04</totfact>
</mgrwt>
</event>
<event>
 7    0  0.4793433E-002  0.4411596E+03  0.7546771E-02  0.1030392E+00
         21   -1    0    0  502  501  0.00000000000E+00  0.00000000000E+00  0.71414745797E+03  0.71414745797E+03  0.00000000000E+00 0.  1.
         21   -1    0    0  501  502 -0.00000000000E+00 -0.00000000000E+00 -0.68130817173E+02  0.68130817173E+02  0.00000000000E+00 0.  1.
      99926    2    1    2    0    0  0.00000000000E+00  0.14210854715E-13  0.64601664080E+03  0.78227827514E+03  0.44115960782E+03 0.  0.
      99925    2    3    3    0    0  0.52808203276E+02  0.73772524456E+02  0.33730948128E+03  0.43705557871E+03  0.26269526265E+03 0.  0.
         25    1    4    4    0    0  0.46119105459E+02  0.43983778410E+02  0.22990351747E+03  0.26937832151E+03  0.12509000000E+03 0.  0.
         25    1    3    3    0    0 -0.52808203276E+02 -0.73772524456E+02  0.30870715952E+03  0.34522269644E+03  0.12509000000E+03 0.  0.
         25    1    4    4    0    0  0.66890978169E+01  0.29788746045E+02  0.10740596381E+03  0.16767725720E+03  0.12509000000E+03 0.  0.
<mgrwt>
<rscale>  2 0.44115961E+03</rscale>
<asrwt>0</asrwt>
<pdfrwt beam="1">  1       21 0.10502168E+00 0.44115961E+03</pdfrwt>
<pdfrwt beam="2">  1       21 0.10019238E-01 0.44115961E+03</pdfrwt>
<totfact> 0.54296593E+04</totfact>
</mgrwt>
</event>
<event>
 7    0  0.4793433E-002  0.4219029E+03  0.7546771E-02  0.1036449E+00
         21   -1    0    0  502  501  0.00000000000E+00  0.00000000000E+00  0.35465109916E+02  0.35465109916E+02  0.00000000000E+00 0.  1.
         21   -1    0    0  501  502 -0.00000000000E+00 -0.00000000000E+00 -0.12547686883E+04  0.12547686883E+04  0.00000000000E+00 0.  1.
      99926    2    1    2    0    0  0.00000000000E+00  0.00000000000E+00 -0.12193035784E+04  0.12902337983E+04  0.42190287722E+03 0.  0.
      99925    2    3    3    0    0  0.58631151071E+02 -0.48327132441E+02 -0.73707062095E+03  0.78628017243E+03  0.26304046397E+03 0.  0.
         25    1    4    4    0    0  0.17429556662E+02  0.11549869340E+02 -0.29401636489E+03  0.32020356002E+03  0.12509000000E+03 0.  0.
         25    1    4    4    0    0  0.41201594409E+02 -0.59877001781E+02 -0.44305425606E+03  0.46607661241E+03  0.12509000000E+03 0.  0.
         25    1    3    3    0    0 -0.58631151071E+02  0.48327132441E+02 -0.48223295749E+03  0.50395362584E+03  0.12509000000E+03 0.  0.
<mgrwt>
<rscale>  2 0.42190288E+03</rscale>
<asrwt>0</asrwt>
<pdfrwt beam="1">  1       21 0.52154576E-02 0.42190288E+03</pdfrwt>
<pdfrwt beam="2">  1       21 0.18452480E+00 0.42190288E+03</pdfrwt>
<totfact> 0.38365631E+04</totfact>
</mgrwt>
</event>
<event>
 7    0  0.4793433E-002  0.4549782E+03  0.7546771E-02  0.1026248E+00
         21   -1    0    0  502  501  0.00000000000E+00  0.00000000000E+00  0.22724332284E+03  0.22724332284E+03  0.00000000000E+00 0. -1.
         21   -1    0    0  501  502 -0.00000000000E+00 -0.00000000000E+00 -0.22773511184E+03  0.22773511184E+03  0.00000000000E+00 0. -1.
      99926    2    1    2    0    0  0.00000000000E+00  0.00000000000E+00 -0.49178899403E+00  0.45497843468E+03  0.45497816889E+03 0.  0.
      99925    2    3    3    0    0  0.70077476572E+02  0.27664674799E+02  0.84070913315E+02  0.28623441056E+03  0.26303237893E+03 0.  0.
         25    1    4    4    0    0  0.27070794257E+02  0.26876662052E+01  0.93418013002E+00  0.12801731228E+03  0.12509000000E+03 0.  0.
         25    1    3    3    0    0 -0.70077476572E+02 -0.27664674799E+02 -0.84562702309E+02  0.16874402412E+03  0.12509000000E+03 0.  0.
         25    1    4    4    0    0  0.43006682316E+02  0.24977008594E+02  0.83136733185E+02  0.15821709828E+03  0.12509000000E+03 0.  0.
<mgrwt>
<rscale>  2 0.45497817E+03</rscale>
<asrwt>0</asrwt>
<pdfrwt beam="1">  1       21 0.33418136E-01 0.45497817E+03</pdfrwt>
<pdfrwt beam="2">  1       21 0.33490458E-01 0.45497817E+03</pdfrwt>
<totfact> 0.68559311E+04</totfact>
</mgrwt>
</event>
<event>
 7    0  0.4793433E-002  0.4390540E+03  0.7546771E-02  0.1031037E+00
         21   -1    0    0  502  501  0.00000000000E+00  0.00000000000E+00  0.67909483548E+02  0.67909483548E+02  0.00000000000E+00 0. -1.
         21   -1    0    0  501  502 -0.00000000000E+00 -0.00000000000E+00 -0.70965212365E+03  0.70965212365E+03  0.00000000000E+00 0. -1.
      99926    2    1    2    0    0  0.00000000000E+00  0.00000000000E+00 -0.64174264010E+03  0.77756160719E+03  0.43905402499E+03 0.  0.
      99925    2    3    3    0    0  0.82474002408E+02  0.47982743619E+02 -0.37325143113E+03  0.46637140466E+03  0.26283331503E+03 0.  0.
         25    1    4    4    0    0  0.33463872501E+02 -0.14705455727E+02 -0.19476896457E+03  0.23434704788E+03  0.12509000000E+03 0.  0.
         25    1    4    4    0    0  0.49010129907E+02  0.62688199345E+02 -0.17848246656E+03  0.23202435678E+03  0.12509000000E+03 0.  0.
         25    1    3    3    0    0 -0.82474002408E+02 -0.47982743619E+02 -0.26849120897E+03  0.31119020253E+03  0.12509000000E+03 0.  0.
<mgrwt>
<rscale>  2 0.43905402E+03</rscale>
<asrwt>0</asrwt>
<pdfrwt beam="1">  1       21 0.99866883E-02 0.43905402E+03</pdfrwt>
<pdfrwt beam="2">  1       21 0.10436061E+00 0.43905402E+03</pdfrwt>
<totfact> 0.55496562E+04</totfact>
</mgrwt>
</event>
<event>
 7    0  0.4793433E-002  0.4551109E+03  0.7546771E-02  0.1026209E+00
         21   -1    0    0  502  501  0.00000000000E+00  0.00000000000E+00  0.42701421758E+03  0.42701421758E+03  0.00000000000E+00 0. -1.
         21   -1    0    0  501  502 -0.00000000000E+00 -0.00000000000E+00 -0.12126408946E+03  0.12126408946E+03  0.00000000000E+00 0. -1.
      99926    2    1    2    0    0 -0.35527136788E-14 -0.14210854715E-13  0.30575012812E+03  0.54827830704E+03  0.45511093277E+03 0.  0.
      99925    2    3    3    0    0 -0.15590026110E+02 -0.11181932200E+03  0.18065024993E+03  0.33841145089E+03  0.26294711942E+03 0.  0.
         25    1    4    4    0    0  0.21010036222E+02 -0.68170949332E+02  0.12292629423E+03  0.18933325610E+03  0.12509000000E+03 0.  0.
         25    1    3    3    0    0  0.15590026110E+02  0.11181932200E+03  0.12509987819E+03  0.20986685615E+03  0.12509000000E+03 0.  0.
         25    1    4    4    0    0 -0.36600062332E+02 -0.43648372671E+02  0.57723955702E+02  0.14907819479E+03  0.12509000000E+03 0.  0.
<mgrwt>
<rscale>  2 0.45511093E+03</rscale>
<asrwt>0</asrwt>
<pdfrwt beam="1">  1       21 0.62796208E-01 0.45511093E+03</pdfrwt>
<pdfrwt beam="2">  1       21 0.17832954E-01 0.45511093E+03</pdfrwt>
<totfact> 0.61926054E+04</totfact>
</mgrwt>
</event>
<event>
 7    0  0.4793433E-002  0.4533769E+03  0.7546771E-02  0.1026720E+00
         21   -1    0    0  502  501  0.00000000000E+00  0.00000000000E+00  0.37879656053E+03  0.37879656053E+03  0.00000000000E+00 0. -1.
         21   -1    0    0  501  502 -0.00000000000E+00 -0.00000000000E+00 -0.13566028303E+03  0.13566028303E+03  0.00000000000E+00 0. -1.
      99926    2    1    2    0    0  0.00000000000E+00  0.71054273576E-14  0.24313627750E+03  0.51445684356E+03  0.45337687904E+03 0.  0.
      99925    2    3    3    0    0  0.92105225929E+02  0.55044444695E+02  0.11828804305E+03  0.30770130366E+03  0.26301096480E+03 0.  0.
         25    1    4    4    0    0  0.66855357839E+02 -0.52918062140E+01  0.46634400265E+02  0.14939851898E+03  0.12509000000E+03 0.  0.
         25    1    4    4    0    0  0.25249868091E+02  0.60336250909E+02  0.71653642787E+02  0.15830278468E+03  0.12509000000E+03 0.  0.
         25    1    3    3    0    0 -0.92105225929E+02 -0.55044444695E+02  0.12484823445E+03  0.20675553990E+03  0.12509000000E+03 0.  0.
<mgrwt>
<rscale>  2 0.45337688E+03</rscale>
<asrwt>0</asrwt>
<pdfrwt beam="1">  1       21 0.55705376E-01 0.45337688E+03</pdfrwt>
<pdfrwt beam="2">  1       21 0.19950042E-01 0.45337688E+03</pdfrwt>
<totfact> 0.65100932E+04</totfact>
</mgrwt>
</event>
<event>
 7    0  0.4793433E-002  0.4538724E+03  0.7546771E-02  0.1026574E+00
         21   -1    0    0  502  501  0.00000000000E+00  0.00000000000E+00  0.23530920983E+03  0.23530920983E+03  0.00000000000E+00 0.  1.
         21   -1    0    0  501  502 -0.00000000000E+00 -0.00000000000E+00 -0.21886115603E+03  0.21886115603E+03  0.00000000000E+00 0.  1.
      99926    2    1    2    0    0  0.00000000000E+00  0.14210854715E-13  0.16448053793E+02  0.45417036586E+03  0.45387243004E+03 0.  0.
      99925    2    3    3    0    0  0.47404532583E+02 -0.99044536078E+02 -0.12163606887E+02  0.28528239985E+03  0.26302297332E+03 0.  0.
         25    1    3    3    0    0 -0.47404532583E+02  0.99044536078E+02  0.28611660680E+02  0.16888796601E+03  0.12509000000E+03 0.  0.
         25    1    4    4    0    0 -0.15932913090E+02 -0.36951456030E+02 -0.11858326967E+02  0.13193709047E+03  0.12509000000E+03 0.  0.
         25    1    4    4    0    0  0.63337445673E+02 -0.62093080048E+02 -0.30527991938E+00  0.15334530938E+03  0.12509000000E+03 0.  0.
<mgrwt>
<rscale>  2 0.45387243E+03</rscale>
<asrwt>0</asrwt>
<pdfrwt beam="1">  1       21 0.34604296E-01 0.45387243E+03</pdfrwt>
<pdfrwt beam="2">  1       21 0.32185464E-01 0.45387243E+03</pdfrwt>
<totfact> 0.69227359E+04</totfact>
</mgrwt>
</event>
<event>
 7    0  0.4793433E-002  0.4677267E+03  0.7546771E-02  0.1022564E+00
         21   -1    0    0  502  501  0.00000000000E+00  0.00000000000E+00  0.65171757917E+03  0.65171757917E+03  0.00000000000E+00 0.  1.
         21   -1    0    0  501  502 -0.00000000000E+00 -0.00000000000E+00 -0.83919871397E+02  0.83919871397E+02  0.00000000000E+00 0.  1.
      99926    2    1    2    0    0  0.00000000000E+00  0.14210854715E-13  0.56779770777E+03  0.73563745056E+03  0.46772665278E+03 0.  0.
      99925    2    3    3    0    0  0.65196386346E+02 -0.75910717972E+02  0.47171931753E+03  0.54884459452E+03  0.26210354541E+03 0.  0.
         25    1    4    4    0    0  0.45614770531E+02 -0.67960085157E+02  0.20742072191E+03  0.25567585816E+03  0.12509000000E+03 0.  0.
         25    1    4    4    0    0  0.19581615816E+02 -0.79506328152E+01  0.26429859561E+03  0.29316873637E+03  0.12509000000E+03 0.  0.
         25    1    3    3    0    0 -0.65196386346E+02  0.75910717972E+02  0.96078390243E+02  0.18679285604E+03  0.12509000000E+03 0.  0.
<mgrwt>
<rscale>  2 0.46772665E+03</rscale>
<asrwt>0</asrwt>
<pdfrwt beam="1">  1       21 0.95840818E-01 0.46772665E+03</pdfrwt>
<pdfrwt beam="2">  1       21 0.12341158E-01 0.46772665E+03</pdfrwt>
<totfact> 0.46209913E+04</totfact>
</mgrwt>
</event>
<event>
 7    0  0.4793433E-002  0.4503062E+03  0.7546771E-02  0.1027631E+00
         21   -1    0    0  502  501  0.00000000000E+00  0.00000000000E+00  0.48137322437E+02  0.48137322437E+02  0.00000000000E+00 0.  1.
         21   -1    0    0  501  502 -0.00000000000E+00 -0.00000000000E+00 -0.10531104889E+04  0.10531104889E+04  0.00000000000E+00 0.  1.
      99926    2    1    2    0    0  0.00000000000E+00 -0.88817841970E-15 -0.10049731664E+04  0.11012478113E+04  0.45030620322E+03 0.  0.
      99925    2    3    3    0    0 -0.39595565665E+02  0.61533928444E+01 -0.88226449172E+03  0.92149631614E+03  0.26298128118E+03 0.  0.
         25    1    4    4    0    0  0.16698432029E+02  0.20517542611E+02 -0.44386876145E+03  0.46191643474E+03  0.12509000000E+03 0.  0.
         25    1    4    4    0    0 -0.56293997694E+02 -0.14364149766E+02 -0.43839573027E+03  0.45957988141E+03  0.12509000000E+03 0.  0.
         25    1    3    3    0    0  0.39595565665E+02 -0.61533928444E+01 -0.12270867471E+03  0.17975149516E+03  0.12509000000E+03 0.  0.
<mgrwt>
<rscale>  2 0.45030620E+03</rscale>
<asrwt>0</asrwt>
<pdfrwt beam="1">  1       21 0.70790182E-02 0.45030620E+03</pdfrwt>
<pdfrwt beam="2">  1       21 0.15486919E+00 0.45030620E+03</pdfrwt>
<totfact> 0.36779330E+04</totfact>
</mgrwt>
</event>
<event>
 7    0  0.4793433E-002  0.4571247E+03  0.7546771E-02  0.1025618E+00
         21   -1    0    0  502  501  0.00000000000E+00  0.00000000000E+00  0.37707261527E+02  0.37707261527E+02  0.00000000000E+00 0.  1.
         21   -1    0    0  501  502 -0.00000000000E+00 -0.00000000000E+00 -0.13854293001E+04  0.13854293001E+04  0.00000000000E+00 0.  1.
      99926    2    1    2    0    0  0.00000000000E+00  0.00000000000E+00 -0.13477220386E+04  0.14231365616E+04  0.45712468735E+03 0.  0.
      99925    2    3    3    0    0  0.85494356935E+02  0.77011509755E+02 -0.84049072521E+03  0.88818687141E+03  0.26308021911E+03 0.  0.
         25    1    3    3    0    0 -0.85494356935E+02 -0.77011509755E+02 -0.50723131338E+03  0.53494969023E+03  0.12509000000E+03 0.  0.
         25    1    4    4    0    0  0.44597097908E+02 -0.35159987742E+01 -0.38585768638E+03  0.40808690940E+03  0.12509000000E+03 0.  0.
         25    1    4    4    0    0  0.40897259027E+02  0.80527508529E+02 -0.45463303883E+03  0.48009996201E+03  0.12509000000E+03 0.  0.
<mgrwt>
<rscale>  2 0.45712469E+03</rscale>
<asrwt>0</asrwt>
<pdfrwt beam="1">  1       21 0.55451858E-02 0.45712469E+03</pdfrwt>
<pdfrwt beam="2">  1       21 0.20373959E+00 0.45712469E+03</pdfrwt>
<totfact> 0.25301637E+04</totfact>
</mgrwt>
</event>
<event>
 7    0  0.4793433E-002  0.4651254E+03  0.7546771E-02  0.1023305E+00
         21   -1    0    0  502  501  0.00000000000E+00  0.00000000000E+00  0.30031906619E+03  0.30031906619E+03  0.00000000000E+00 0. -1.
         21   -1    0    0  501  502 -0.00000000000E+00 -0.00000000000E+00 -0.18009315146E+03  0.18009315146E+03  0.00000000000E+00 0. -1.
      99926    2    1    2    0    0 -0.14210854715E-13  0.00000000000E+00  0.12022591473E+03  0.48041221764E+03  0.46512538986E+03 0.  0.
      99925    2    3    3    0    0  0.66971419102E+02  0.10222211832E+03  0.82364633439E+02  0.30148341289E+03  0.26300909291E+03 0.  0.
         25    1    4    4    0    0  0.51712818790E+02  0.27489380325E+02  0.11116789980E+02  0.13856757477E+03  0.12509000000E+03 0.  0.
         25    1    3    3    0    0 -0.66971419102E+02 -0.10222211832E+03  0.37861281288E+02  0.17892880476E+03  0.12509000000E+03 0.  0.
         25    1    4    4    0    0  0.15258600312E+02  0.74732737999E+02  0.71247843458E+02  0.16291583812E+03  0.12509000000E+03 0.  0.
<mgrwt>
<rscale>  2 0.46512539E+03</rscale>
<asrwt>0</asrwt>
<pdfrwt beam="1">  1       21 0.44164569E-01 0.46512539E+03</pdfrwt>
<pdfrwt beam="2">  1       21 0.26484287E-01 0.46512539E+03</pdfrwt>
<totfact> 0.61572086E+04</totfact>
</mgrwt>
</event>
<event>
 7    0  0.4793433E-002  0.4486089E+03  0.7546771E-02  0.1028138E+00
         21   -1    0    0  502  501  0.00000000000E+00  0.00000000000E+00  0.26238643811E+03  0.26238643811E+03  0.00000000000E+00 0.  1.
         21   -1    0    0  501  502 -0.00000000000E+00 -0.00000000000E+00 -0.19174957961E+03  0.19174957961E+03  0.00000000000E+00 0.  1.
      99926    2    1    2    0    0  0.00000000000E+00 -0.71054273576E-14  0.70636858496E+02  0.45413601772E+03  0.44860891299E+03 0.  0.
      99925    2    3    3    0    0  0.62194901848E+02 -0.56018007246E+02 -0.22878381564E+02  0.27693886431E+03  0.26299332933E+03 0.  0.
         25    1    3    3    0    0 -0.62194901848E+02  0.56018007246E+02  0.93515240060E+02  0.17719715341E+03  0.12509000000E+03 0.  0.
         25    1    4    4    0    0  0.46973762116E+02 -0.65133792826E+02 -0.24107587513E+02  0.15059093323E+03  0.12509000000E+03 0.  0.
         25    1    4    4    0    0  0.15221139733E+02  0.91157855797E+01  0.12292059491E+01  0.12634793108E+03  0.12509000000E+03 0.  0.
<mgrwt>
<rscale>  2 0.44860891E+03</rscale>
<asrwt>0</asrwt>
<pdfrwt beam="1">  1       21 0.38586241E-01 0.44860891E+03</pdfrwt>
<pdfrwt beam="2">  1       21 0.28198468E-01 0.44860891E+03</pdfrwt>
<totfact> 0.72221264E+04</totfact>
</mgrwt>
</event>
<event>
 7    0  0.4793433E-002  0.4612131E+03  0.7546771E-02  0.1024430E+00
         21   -1    0    0  502  501  0.00000000000E+00  0.00000000000E+00  0.29739497602E+03  0.29739497602E+03  0.00000000000E+00 0.  1.
         21   -1    0    0  501  502 -0.00000000000E+00 -0.00000000000E+00 -0.17881737633E+03  0.17881737633E+03  0.00000000000E+00 0.  1.
      99926    2    1    2    0    0  0.00000000000E+00  0.00000000000E+00  0.11857759969E+03  0.47621235234E+03  0.46121313660E+03 0.  0.
      99925    2    3    3    0    0 -0.56587043251E+02  0.10490508768E+03  0.75125176362E+02  0.29804728259E+03  0.26264276052E+03 0.  0.
         25    1    4    4    0    0 -0.38876304416E+02  0.13687455622E+02  0.22756665916E+02  0.13365660264E+03  0.12509000000E+03 0.  0.
         25    1    3    3    0    0  0.56587043251E+02 -0.10490508768E+03  0.43452423330E+02  0.17816506975E+03  0.12509000000E+03 0.  0.
         25    1    4    4    0    0 -0.17710738835E+02  0.91217632059E+02  0.52368510446E+02  0.16439067995E+03  0.12509000000E+03 0.  0.
<mgrwt>
<rscale>  2 0.46121314E+03</rscale>
<asrwt>0</asrwt>
<pdfrwt beam="1">  1       21 0.43734555E-01 0.46121314E+03</pdfrwt>
<pdfrwt beam="2">  1       21 0.26296673E-01 0.46121314E+03</pdfrwt>
<totfact> 0.63774425E+04</totfact>
</mgrwt>
</event>
<event>
 7    0  0.4793433E-002  0.4527424E+03  0.7546771E-02  0.1026907E+00
         21   -1    0    0  502  501  0.00000000000E+00  0.00000000000E+00  0.44916664011E+02  0.44916664011E+02  0.00000000000E+00 0. -1.
         21   -1    0    0  501  502 -0.00000000000E+00 -0.00000000000E+00 -0.11408668171E+04  0.11408668171E+04  0.00000000000E+00 0. -1.
      99926    2    1    2    0    0  0.00000000000E+00 -0.17763568394E-14 -0.10959501531E+04  0.11857834811E+04  0.45274244998E+03 0.  0.
      99925    2    3    3    0    0 -0.71225901983E+02  0.85924259070E+01 -0.91262543113E+03  0.95254021609E+03  0.26325031211E+03 0.  0.
         25    1    3    3    0    0  0.71225901983E+02 -0.85924259070E+01 -0.18332472196E+03  0.23324326502E+03  0.12509000000E+03 0.  0.
         25    1    4    4    0    0 -0.20433340891E+01  0.26788307837E+02 -0.39279986190E+03  0.41311139934E+03  0.12509000000E+03 0.  0.
         25    1    4    4    0    0 -0.69182567894E+02 -0.18195881930E+02 -0.51982556923E+03  0.53942881675E+03  0.12509000000E+03 0.  0.
<mgrwt>
<rscale>  2 0.45274245E+03</rscale>
<asrwt>0</asrwt>
<pdfrwt beam="1">  1       21 0.66053924E-02 0.45274245E+03</pdfrwt>
<pdfrwt beam="2">  1       21 0.16777451E+00 0.45274245E+03</pdfrwt>
<totfact> 0.33189737E+04</totfact>
</mgrwt>
</event>
<event>
 7    0  0.4793433E-002  0.5219329E+03  0.7546771E-02  0.1008208E+00
         21   -1    0    0  502  501  0.00000000000E+00  0.00000000000E+00  0.32502804294E+02  0.32502804294E+02  0.00000000000E+00 0. -1.
         21   -1    0    0  501  502 -0.00000000000E+00 -0.00000000000E+00 -0.20953109795E+04  0.20953109795E+04  0.00000000000E+00 0. -1.
      99926    2    1    2    0    0  0.35527136788E-14  0.00000000000E+00 -0.20628081752E+04  0.21278137838E+04  0.52193287960E+03 0.  0.
      99925    2    3    3    0    0  0.16398478935E+02  0.16260292440E+03 -0.13977543775E+04  0.14316437736E+04  0.26301705945E+03 0.  0.
         25    1    4    4    0    0  0.23233997720E+01  0.60543414283E+02 -0.48110832143E+03  0.50078301514E+03  0.12509000000E+03 0.  0.
         25    1    3    3    0    0 -0.16398478935E+02 -0.16260292440E+03 -0.66505379768E+03  0.69617001016E+03  0.12509000000E+03 0.  0.
         25    1    4    4    0    0  0.14075079163E+02  0.10205951012E+03 -0.91664605605E+03  0.93086075845E+03  0.12509000000E+03 0.  0.
<mgrwt>
<rscale>  2 0.52193288E+03</rscale>
<asrwt>0</asrwt>
<pdfrwt beam="1">  1       21 0.47798242E-02 0.52193288E+03</pdfrwt>
<pdfrwt beam="2">  1       21 0.30813396E+00 0.52193288E+03</pdfrwt>
<totfact> 0.72043487E+03</totfact>
</mgrwt>
</event>
<event>
 7    0  0.4793433E-002  0.4362396E+03  0.7546771E-02  0.1031907E+00
         21   -1    0    0  502  501  0.00000000000E+00  0.00000000000E+00  0.16270513112E+03  0.16270513112E+03  0.00000000000E+00 0. -1.
         21   -1    0    0  501  502 -0.00000000000E+00 -0.00000000000E+00 -0.29240784711E+03  0.29240784711E+03  0.00000000000E+00 0. -1.
      99926    2    1    2    0    0  0.00000000000E+00 -0.14210854715E-13 -0.12970271600E+03  0.45511297823E+03  0.43623964563E+03 0.  0.
      99925    2    3    3    0    0 -0.40725661250E+02  0.83215352374E+02 -0.10102888156E+03  0.29683135821E+03  0.26328434430E+03 0.  0.
         25    1    3    3    0    0  0.40725661250E+02 -0.83215352374E+02 -0.28673834435E+02  0.15828162002E+03  0.12509000000E+03 0.  0.
         25    1    4    4    0    0 -0.29241991992E+01  0.38830788837E+01 -0.32710685034E+02  0.12938750426E+03  0.12509000000E+03 0.  0.
         25    1    4    4    0    0 -0.37801462050E+02  0.79332273490E+02 -0.68318196527E+02  0.16744385395E+03  0.12509000000E+03 0.  0.
<mgrwt>
<rscale>  2 0.43623965E+03</rscale>
<asrwt>0</asrwt>
<pdfrwt beam="1">  1       21 0.23927225E-01 0.43623965E+03</pdfrwt>
<pdfrwt beam="2">  1       21 0.43001154E-01 0.43623965E+03</pdfrwt>
<totfact> 0.79788868E+04</totfact>
</mgrwt>
</event>
<event>
 7    0  0.4793433E-002  0.4489942E+03  0.7546771E-02  0.1028022E+00
         21   -1    0    0  502  501  0.00000000000E+00  0.00000000000E+00  0.21750529139E+04  0.21750529139E+04  0.00000000000E+00 0. -1.
         21   -1    0    0  501  502 -0.00000000000E+00 -0.00000000000E+00 -0.23171366270E+02  0.23171366270E+02  0.00000000000E+00 0. -1.
      99926    2    1    2    0    0  0.44408920985E-15 -0.14210854715E-13  0.21518815477E+04  0.21982242802E+04  0.44899419918E+03 0.  0.
      99925    2    3    3    0    0 -0.38826426041E+01  0.96265858597E+02  0.11286872342E+04  0.11629193485E+04  0.26299115571E+03 0.  0.
         25    1    4    4    0    0  0.17842986940E+02  0.35909892858E+02  0.68543557543E+03  0.69790925538E+03  0.12509000000E+03 0.  0.
         25    1    3    3    0    0  0.38826426041E+01 -0.96265858597E+02  0.10231943134E+04  0.10353049317E+04  0.12509000000E+03 0.  0.
         25    1    4    4    0    0 -0.21725629545E+02  0.60355965739E+02  0.44325165882E+03  0.46501009314E+03  0.12509000000E+03 0.  0.
<mgrwt>
<rscale>  2 0.44899420E+03</rscale>
<asrwt>0</asrwt>
<pdfrwt beam="1">  1       21 0.31986058E+00 0.44899420E+03</pdfrwt>
<pdfrwt beam="2">  1       21 0.34075553E-02 0.44899420E+03</pdfrwt>
<totfact> 0.11251011E+04</totfact>
</mgrwt>
</event>
<event>
 7    0  0.4793433E-002  0.4603922E+03  0.7546771E-02  0.1024668E+00
         21   -1    0    0  502  501  0.00000000000E+00  0.00000000000E+00  0.51863212992E+03  0.51863212992E+03  0.00000000000E+00 0.  1.
         21   -1    0    0  501  502 -0.00000000000E+00 -0.00000000000E+00 -0.10217309961E+03  0.10217309961E+03  0.00000000000E+00 0.  1.
      99926    2    1    2    0    0 -0.14210854715E-13  0.35527136788E-14  0.41645903031E+03  0.62080522953E+03  0.46039223396E+03 0.  0.
      99925    2    3    3    0    0  0.71701069405E+02 -0.25621675419E+02  0.38261008385E+03  0.47050295782E+03  0.26303049909E+03 0.  0.
         25    1    3    3    0    0 -0.71701069405E+02  0.25621675419E+02  0.33848946464E+02  0.15030227171E+03  0.12509000000E+03 0.  0.
         25    1    4    4    0    0  0.23436966474E+02 -0.11081002374E+02  0.25315741941E+03  0.28356351513E+03  0.12509000000E+03 0.  0.
         25    1    4    4    0    0  0.48264102931E+02 -0.14540673046E+02  0.12945266444E+03  0.18693944270E+03  0.12509000000E+03 0.  0.
<mgrwt>
<rscale>  2 0.46039223E+03</rscale>
<asrwt>0</asrwt>
<pdfrwt beam="1">  1       21 0.76269430E-01 0.46039223E+03</pdfrwt>
<pdfrwt beam="2">  1       21 0.15025456E-01 0.46039223E+03</pdfrwt>
<totfact> 0.55034494E+04</totfact>
</mgrwt>
</event>
<event>
 7    0  0.4793433E-002  0.4557253E+03  0.7546771E-02  0.1026028E+00
         21   -1    0    0  502  501  0.00000000000E+00  0.00000000000E+00  0.23022166324E+04  0.23022166324E+04  0.00000000000E+00 0. -1.
         21   -1    0    0  501  502 -0.00000000000E+00 -0.00000000000E+00 -0.22552779158E+02  0.22552779158E+02  0.00000000000E+00 0. -1.
      99926    2    1    2    0    0  0.00000000000E+00 -0.35527136788E-14  0.22796638533E+04  0.23247694116E+04  0.45572528254E+03 0.  0.
      99925    2    3    3    0    0 -0.79577638298E+02  0.19599540978E+02  0.18365309652E+04  0.18570825429E+04  0.26304532424E+03 0.  0.
         25    1    4    4    0    0 -0.66991960027E+02 -0.18407619255E+02  0.87491433388E+03  0.88653785192E+03  0.12509000000E+03 0.  0.
         25    1    3    3    0    0  0.79577638298E+02 -0.19599540978E+02  0.44313288812E+03  0.46768686871E+03  0.12509000000E+03 0.  0.
         25    1    4    4    0    0 -0.12585678271E+02  0.38007160233E+02  0.96161663128E+03  0.97054469097E+03  0.12509000000E+03 0.  0.
<mgrwt>
<rscale>  2 0.45572528E+03</rscale>
<asrwt>0</asrwt>
<pdfrwt beam="1">  1       21 0.33856111E+00 0.45572528E+03</pdfrwt>
<pdfrwt beam="2">  1       21 0.33165867E-02 0.45572528E+03</pdfrwt>
<totfact> 0.90442011E+03</totfact>
</mgrwt>
</event>
<event>
 7    0  0.4793433E-002  0.4473173E+03  0.7546771E-02  0.1028525E+00
         21   -1    0    0  502  501  0.00000000000E+00  0.00000000000E+00  0.35161934108E+03  0.35161934108E+03  0.00000000000E+00 0. -1.
         21   -1    0    0  501  502 -0.00000000000E+00 -0.00000000000E+00 -0.14226518963E+03  0.14226518963E+03  0.00000000000E+00 0. -1.
      99926    2    1    2    0    0  0.00000000000E+00  0.00000000000E+00  0.20935415145E+03  0.49388453071E+03  0.44731730231E+03 0.  0.
      99925    2    3    3    0    0  0.28675443813E+02  0.99490503964E+02  0.15533112798E+03  0.32275114232E+03  0.26328672411E+03 0.  0.
         25    1    4    4    0    0  0.41117330652E+02  0.84024229805E+02  0.82469307506E+02  0.17663352132E+03  0.12509000000E+03 0.  0.
         25    1    3    3    0    0 -0.28675443813E+02 -0.99490503964E+02  0.54023023472E+02  0.17113338839E+03  0.12509000000E+03 0.  0.
         25    1    4    4    0    0 -0.12441886839E+02  0.15466274159E+02  0.72861820474E+02  0.14611762100E+03  0.12509000000E+03 0.  0.
<mgrwt>
<rscale>  2 0.44731730E+03</rscale>
<asrwt>0</asrwt>
<pdfrwt beam="1">  1       21 0.51708726E-01 0.44731730E+03</pdfrwt>
<pdfrwt beam="2">  1       21 0.20921352E-01 0.44731730E+03</pdfrwt>
<totfact> 0.69867213E+04</totfact>
</mgrwt>
</event>
<event>
 7    0  0.4793433E-002  0.4366546E+03  0.7546771E-02  0.1031778E+00
         21   -1    0    0  502  501  0.00000000000E+00  0.00000000000E+00  0.58851607309E+03  0.58851607309E+03  0.00000000000E+00 0.  1.
         21   -1    0    0  501  502 -0.00000000000E+00 -0.00000000000E+00 -0.80994908864E+02  0.80994908864E+02  0.00000000000E+00 0.  1.
      99926    2    1    2    0    0 -0.71054273576E-14  0.00000000000E+00  0.50752116423E+03  0.66951098196E+03  0.43665458067E+03 0.  0.
      99925    2    3    3    0    0  0.50625485788E+02  0.76590528486E+02  0.36197799335E+03  0.45676848138E+03  0.26302153722E+03 0.  0.
         25    1    3    3    0    0 -0.50625485788E+02 -0.76590528486E+02  0.14554317087E+03  0.21274250058E+03  0.12509000000E+03 0.  0.
         25    1    4    4    0    0  0.38123333298E+02  0.78963263289E+02  0.19284694371E+03  0.24602040015E+03  0.12509000000E+03 0.  0.
         25    1    4    4    0    0  0.12502152491E+02 -0.23727348025E+01  0.16913104965E+03  0.21074808123E+03  0.12509000000E+03 0.  0.
<mgrwt>
<rscale>  2 0.43665458E+03</rscale>
<asrwt>0</asrwt>
<pdfrwt beam="1">  1       21 0.86546479E-01 0.43665458E+03</pdfrwt>
<pdfrwt beam="2">  1       21 0.11911016E-01 0.43665458E+03</pdfrwt>
<totfact> 0.63245820E+04</totfact>
</mgrwt>
</event>
<event>
 7    0  0.4793433E-002  0.4592496E+03  0.7546771E-02  0.1024999E+00
         21   -1    0    0  502  501  0.00000000000E+00  0.00000000000E+00  0.34348507072E+03  0.34348507072E+03  0.00000000000E+00 0. -1.
         21   -1    0    0  501  502 -0.00000000000E+00 -0.00000000000E+00 -0.15350755029E+03  0.15350755029E+03  0.00000000000E+00 0. -1.
      99926    2    1    2    0    0  0.00000000000E+00  0.00000000000E+00  0.18997752043E+03  0.49699262102E+03  0.45924961304E+03 0.  0.
      99925    2    3    3    0    0 -0.38519734471E+02 -0.11043432775E+03  0.11439973144E+03  0.30980549277E+03  0.26308294150E+03 0.  0.
         25    1    4    4    0    0 -0.30410438701E+02 -0.94697375444E+02  0.46817683268E+02  0.16652864998E+03  0.12509000000E+03 0.  0.
         25    1    4    4    0    0 -0.81092957699E+01 -0.15736952309E+02  0.67582048168E+02  0.14327684279E+03  0.12509000000E+03 0.  0.
         25    1    3    3    0    0  0.38519734471E+02  0.11043432775E+03  0.75577788997E+02  0.18718712824E+03  0.12509000000E+03 0.  0.
<mgrwt>
<rscale>  2 0.45924961E+03</rscale>
<asrwt>0</asrwt>
<pdfrwt beam="1">  1       21 0.50512510E-01 0.45924961E+03</pdfrwt>
<pdfrwt beam="2">  1       21 0.22574640E-01 0.45924961E+03</pdfrwt>
<totfact> 0.63319221E+04</totfact>
</mgrwt>
</event>
<event>
 7    0  0.4793433E-002  0.4472661E+03  0.7546771E-02  0.1028540E+00
         21   -1    0    0  502  501  0.00000000000E+00  0.00000000000E+00  0.50108950272E+02  0.50108950272E+02  0.00000000000E+00 0. -1.
         21   -1    0    0  501  502 -0.00000000000E+00 -0.00000000000E+00 -0.99806022583E+03  0.99806022583E+03  0.00000000000E+00 0. -1.
      99926    2    1    2    0    0  0.00000000000E+00  0.17763568394E-14 -0.94795127556E+03  0.10481691761E+04  0.44726614102E+03 0.  0.
      99925    2    3    3    0    0 -0.85552505798E+02 -0.12395089799E+02 -0.45825539470E+03  0.53540955081E+03  0.26304469360E+03 0.  0.
         25    1    3    3    0    0  0.85552505798E+02  0.12395089799E+02 -0.48969588086E+03  0.51275962529E+03  0.12509000000E+03 0.  0.
         25    1    4    4    0    0 -0.42784010909E+02 -0.45418428390E+02 -0.21126203084E+03  0.25332283553E+03  0.12509000000E+03 0.  0.
         25    1    4    4    0    0 -0.42768494889E+02  0.33023338591E+02 -0.24699336386E+03  0.28208671528E+03  0.12509000000E+03 0.  0.
<mgrwt>
<rscale>  2 0.44726614E+03</rscale>
<asrwt>0</asrwt>
<pdfrwt beam="1">  1       21 0.73689635E-02 0.44726614E+03</pdfrwt>
<pdfrwt beam="2">  1       21 0.14677356E+00 0.44726614E+03</pdfrwt>
<totfact> 0.39686762E+04</totfact>
</mgrwt>
</event>
<event>
 7    0  0.4793433E-002  0.4450418E+03  0.7546771E-02  0.1029211E+00
         21   -1    0    0  502  501  0.00000000000E+00  0.00000000000E+00  0.97654591049E+03  0.97654591049E+03  0.00000000000E+00 0.  1.
         21   -1    0    0  501  502 -0.00000000000E+00 -0.00000000000E+00 -0.50704775150E+02  0.50704775150E+02  0.00000000000E+00 0.  1.
      99926    2    1    2    0    0  0.00000000000E+00  0.17763568394E-14  0.92584113534E+03  0.10272506856E+04  0.44504175451E+03 0.  0.
      99925    2    3    3    0    0 -0.10085487498E+03  0.13125381050E+02  0.63302336254E+03  0.69298471728E+03  0.26299288856E+03 0.  0.
         25    1    4    4    0    0 -0.92631763784E+02 -0.43327230304E+00  0.33580961412E+03  0.37013029655E+03  0.12509000000E+03 0.  0.
         25    1    3    3    0    0  0.10085487498E+03 -0.13125381050E+02  0.29281777280E+03  0.33426596836E+03  0.12509000000E+03 0.  0.
         25    1    4    4    0    0 -0.82231111958E+01  0.13558653353E+02  0.29721374842E+03  0.32285442074E+03  0.12509000000E+03 0.  0.
<mgrwt>
<rscale>  2 0.44504175E+03</rscale>
<asrwt>0</asrwt>
<pdfrwt beam="1">  1       21 0.14360968E+00 0.44504175E+03</pdfrwt>
<pdfrwt beam="2">  1       21 0.74565852E-02 0.44504175E+03</pdfrwt>
<totfact> 0.41237284E+04</totfact>
</mgrwt>
</event>
<event>
 7    0  0.4793433E-002  0.4510451E+03  0.7546771E-02  0.1027411E+00
         21   -1    0    0  502  501  0.00000000000E+00  0.00000000000E+00  0.29542054631E+03  0.29542054631E+03  0.00000000000E+00 0.  1.
         21   -1    0    0  501  502 -0.00000000000E+00 -0.00000000000E+00 -0.17216279357E+03  0.17216279357E+03  0.00000000000E+00 0.  1.
      99926    2    1    2    0    0  0.00000000000E+00  0.00000000000E+00  0.12325775274E+03  0.46758333988E+03  0.45104512648E+03 0.  0.
      99925    2    3    3    0    0 -0.19741080514E+02 -0.64319600754E+02  0.16726252226E+03  0.31888683978E+03  0.26303107028E+03 0.  0.
         25    1    4    4    0    0  0.16169121087E+02  0.44772921714E+00  0.77524319324E+02  0.14805123817E+03  0.12509000000E+03 0.  0.
         25    1    4    4    0    0 -0.35910201601E+02 -0.64767329972E+02  0.89738202936E+02  0.17083560161E+03  0.12509000000E+03 0.  0.
         25    1    3    3    0    0  0.19741080514E+02  0.64319600754E+02 -0.44004769517E+02  0.14869650010E+03  0.12509000000E+03 0.  0.
<mgrwt>
<rscale>  2 0.45104513E+03</rscale>
<asrwt>0</asrwt>
<pdfrwt beam="1">  1       21 0.43444198E-01 0.45104513E+03</pdfrwt>
<pdfrwt beam="2">  1       21 0.25318058E-01 0.45104513E+03</pdfrwt>
<totfact> 0.69779627E+04</totfact>
</mgrwt>
</event>
<event>
 7    0  0.4793433E-002  0.4553469E+03  0.7546771E-02  0.1026139E+00
         21   -1    0    0  502  501  0.00000000000E+00  0.00000000000E+00  0.21645480589E+03  0.21645480589E+03  0.00000000000E+00 0. -1.
         21   -1    0    0  501  502 -0.00000000000E+00 -0.00000000000E+00 -0.23947357236E+03  0.23947357236E+03  0.00000000000E+00 0. -1.
      99926    2    1    2    0    0  0.00000000000E+00  0.00000000000E+00 -0.23018766472E+02  0.45592837825E+03  0.45534692542E+03 0.  0.
      99925    2    3    3    0    0  0.66150342548E+02 -0.87127089083E+02 -0.44018080902E+02  0.28843068639E+03  0.26322551536E+03 0.  0.
         25    1    3    3    0    0 -0.66150342548E+02  0.87127089083E+02  0.20999314430E+02  0.16749769186E+03  0.12509000000E+03 0.  0.
         25    1    4    4    0    0  0.38701074791E+02 -0.31011983196E+02 -0.60697523197E+02  0.14761847348E+03  0.12509000000E+03 0.  0.
         25    1    4    4    0    0  0.27449267757E+02 -0.56115105887E+02  0.16679442295E+02  0.14081221291E+03  0.12509000000E+03 0.  0.
<mgrwt>
<rscale>  2 0.45534693E+03</rscale>
<asrwt>0</asrwt>
<pdfrwt beam="1">  1       21 0.31831589E-01 0.45534693E+03</pdfrwt>
<pdfrwt beam="2">  1       21 0.35216702E-01 0.45534693E+03</pdfrwt>
<totfact> 0.68288638E+04</totfact>
</mgrwt>
</event>
<event>
 7    0  0.4793433E-002  0.5009897E+03  0.7546771E-02  0.1013521E+00
         21   -1    0    0  502  501  0.00000000000E+00  0.00000000000E+00  0.26752506802E+03  0.26752506802E+03  0.00000000000E+00 0.  1.
         21   -1    0    0  501  502 -0.00000000000E+00 -0.00000000000E+00 -0.23454879216E+03  0.23454879216E+03  0.00000000000E+00 0.  1.
      99926    2    1    2    0    0  0.14210854715E-13  0.00000000000E+00  0.32976275858E+02  0.50207386019E+03  0.50098974672E+03 0.  0.
      99925    2    3    3    0    0  0.10414319419E+03 -0.10639522491E+03  0.52244314896E+02  0.30666527745E+03  0.26296078638E+03 0.  0.
         25    1    3    3    0    0 -0.10414319419E+03  0.10639522491E+03 -0.19268039038E+02  0.19540858274E+03  0.12509000000E+03 0.  0.
         25    1    4    4    0    0  0.81795013964E+02 -0.33664958575E+02  0.67680875866E+01  0.15335275953E+03  0.12509000000E+03 0.  0.
         25    1    4    4    0    0  0.22348180230E+02 -0.72730266333E+02  0.45476227309E+02  0.15331251792E+03  0.12509000000E+03 0.  0.
<mgrwt>
<rscale>  2 0.50098975E+03</rscale>
<asrwt>0</asrwt>
<pdfrwt beam="1">  1       21 0.39341922E-01 0.50098975E+03</pdfrwt>
<pdfrwt beam="2">  1       21 0.34492469E-01 0.50098975E+03</pdfrwt>
<totfact> 0.45919279E+04</totfact>
</mgrwt>
</event>
<event>
 7    0  0.4793433E-002  0.4532155E+03  0.7546771E-02  0.1026767E+00
         21   -1    0    0  502  501  0.00000000000E+00  0.00000000000E+00  0.25389560506E+03  0.25389560506E+03  0.00000000000E+00 0. -1.
         21   -1    0    0  501  502 -0.00000000000E+00 -0.00000000000E+00 -0.20225266346E+03  0.20225266346E+03  0.00000000000E+00 0. -1.
      99926    2    1    2    0    0 -0.17763568394E-14  0.00000000000E+00  0.51642941598E+02  0.45614826852E+03  0.45321545589E+03 0.  0.
      99925    2    3    3    0    0  0.12174584050E+02 -0.98210373185E+02 -0.19021426052E+02  0.28169352122E+03  0.26305118770E+03 0.  0.
         25    1    4    4    0    0 -0.27207792397E+02 -0.25306895124E+02 -0.17341842213E+02  0.13163947166E+03  0.12509000000E+03 0.  0.
         25    1    4    4    0    0  0.39382376447E+02 -0.72903478061E+02 -0.16795838393E+01  0.15005404956E+03  0.12509000000E+03 0.  0.
         25    1    3    3    0    0 -0.12174584050E+02  0.98210373185E+02  0.70664367650E+02  0.17445474729E+03  0.12509000000E+03 0.  0.
<mgrwt>
<rscale>  2 0.45321546E+03</rscale>
<asrwt>0</asrwt>
<pdfrwt beam="1">  1       21 0.37337589E-01 0.45321546E+03</pdfrwt>
<pdfrwt beam="2">  1       21 0.29743039E-01 0.45321546E+03</pdfrwt>
<totfact> 0.69445174E+04</totfact>
</mgrwt>
</event>
<event>
 7    0  0.4793433E-002  0.4551806E+03  0.7546771E-02  0.1026188E+00
         21   -1    0    0  502  501  0.00000000000E+00  0.00000000000E+00  0.78217130826E+02  0.78217130826E+02  0.00000000000E+00 0. -1.
         21   -1    0    0  501  502 -0.00000000000E+00 -0.00000000000E+00 -0.66222499458E+03  0.66222499458E+03  0.00000000000E+00 0. -1.
      99926    2    1    2    0    0  0.71054273576E-14 -0.14210854715E-13 -0.58400786376E+03  0.74044212541E+03  0.45518057532E+03 0.  0.
      99925    2    3    3    0    0  0.61668914608E+02  0.93557063192E+02 -0.33873415036E+03  0.44318351463E+03  0.26289698346E+03 0.  0.
         25    1    4    4    0    0  0.14895072811E+02  0.14616865584E+02 -0.18877639636E+03  0.22741933048E+03  0.12509000000E+03 0.  0.
         25    1    4    4    0    0  0.46773841797E+02  0.78940197609E+02 -0.14995775401E+03  0.21576418415E+03  0.12509000000E+03 0.  0.
         25    1    3    3    0    0 -0.61668914608E+02 -0.93557063192E+02 -0.24527371339E+03  0.29725861078E+03  0.12509000000E+03 0.  0.
<mgrwt>
<rscale>  2 0.45518058E+03</rscale>
<asrwt>0</asrwt>
<pdfrwt beam="1">  1       21 0.11502520E-01 0.45518058E+03</pdfrwt>
<pdfrwt beam="2">  1       21 0.97386026E-01 0.45518058E+03</pdfrwt>
<totfact> 0.50689611E+04</totfact>
</mgrwt>
</event>
<event>
 7    0  0.4793433E-002  0.4534576E+03  0.7546771E-02  0.1026696E+00
         21   -1    0    0  502  501  0.00000000000E+00  0.00000000000E+00  0.12528693729E+03  0.12528693729E+03  0.00000000000E+00 0.  1.
         21   -1    0    0  501  502 -0.00000000000E+00 -0.00000000000E+00 -0.41030577993E+03  0.41030577993E+03  0.00000000000E+00 0.  1.
      99926    2    1    2    0    0  0.17763568394E-14  0.00000000000E+00 -0.28501884264E+03  0.53559271721E+03  0.45345762545E+03 0.  0.
      99925    2    3    3    0    0 -0.12165349491E+02 -0.30464764717E+02 -0.53539888258E+02  0.27043971980E+03  0.26304947214E+03 0.  0.
         25    1    3    3    0    0  0.12165349491E+02  0.30464764717E+02 -0.23147895438E+03  0.26515299741E+03  0.12509000000E+03 0.  0.
         25    1    4    4    0    0 -0.32711000510E+02 -0.46160908716E+02 -0.30695145541E+02  0.14067885096E+03  0.12509000000E+03 0.  0.
         25    1    4    4    0    0  0.20545651019E+02  0.15696143999E+02 -0.22844742716E+02  0.12976086884E+03  0.12509000000E+03 0.  0.
<mgrwt>
<rscale>  2 0.45345763E+03</rscale>
<asrwt>0</asrwt>
<pdfrwt beam="1">  1       21 0.18424550E-01 0.45345763E+03</pdfrwt>
<pdfrwt beam="2">  1       21 0.60339085E-01 0.45345763E+03</pdfrwt>
<totfact> 0.63601586E+04</totfact>
</mgrwt>
</event>
<event>
 7    0  0.4793433E-002  0.4587556E+03  0.7546771E-02  0.1025143E+00
         21   -1    0    0  502  501  0.00000000000E+00  0.00000000000E+00  0.10460329471E+04  0.10460329471E+04  0.00000000000E+00 0. -1.
         21   -1    0    0  501  502 -0.00000000000E+00 -0.00000000000E+00 -0.50298779337E+02  0.50298779337E+02  0.00000000000E+00 0. -1.
      99926    2    1    2    0    0 -0.14210854715E-13  0.00000000000E+00  0.99573416774E+03  0.10963317264E+04  0.45875562289E+03 0.  0.
      99925    2    3    3    0    0 -0.65265358513E+02 -0.94368124373E+02  0.57336127408E+03  0.64112706989E+03  0.26293698716E+03 0.  0.
         25    1    4    4    0    0  0.37015599147E+01 -0.59927485171E+02  0.24935817281E+03  0.28536294691E+03  0.12509000000E+03 0.  0.
         25    1    4    4    0    0 -0.68966918428E+02 -0.34440639203E+02  0.32400310127E+03  0.35576412298E+03  0.12509000000E+03 0.  0.
         25    1    3    3    0    0  0.65265358513E+02  0.94368124373E+02  0.42237289366E+03  0.45520465652E+03  0.12509000000E+03 0.  0.
<mgrwt>
<rscale>  2 0.45875562E+03</rscale>
<asrwt>0</asrwt>
<pdfrwt beam="1">  1       21 0.15382836E+00 0.45875562E+03</pdfrwt>
<pdfrwt beam="2">  1       21 0.73968800E-02 0.45875562E+03</pdfrwt>
<totfact> 0.34596895E+04</totfact>
</mgrwt>
</event>
<event>
 7    0  0.4793433E-002  0.4542480E+03  0.7546771E-02  0.1026463E+00
         21   -1    0    0  502  501  0.00000000000E+00  0.00000000000E+00  0.12315428877E+03  0.12315428877E+03  0.00000000000E+00 0.  1.
         21   -1    0    0  501  502 -0.00000000000E+00 -0.00000000000E+00 -0.41886741084E+03  0.41886741084E+03  0.00000000000E+00 0.  1.
      99926    2    1    2    0    0  0.14210854715E-13  0.35527136788E-14 -0.29571312207E+03  0.54202169960E+03  0.45424802947E+03 0.  0.
      99925    2    3    3    0    0  0.81440888138E+02 -0.18805286730E+02 -0.96485011296E+02  0.29237073267E+03  0.26303047513E+03 0.  0.
         25    1    4    4    0    0  0.19862097337E+02 -0.22182845097E+02 -0.11609421667E+02  0.12910797148E+03  0.12509000000E+03 0.  0.
         25    1    3    3    0    0 -0.81440888138E+02  0.18805286730E+02 -0.19922811077E+03  0.24965096693E+03  0.12509000000E+03 0.  0.
         25    1    4    4    0    0  0.61578790802E+02  0.33775583666E+01 -0.84875589629E+02  0.16326276119E+03  0.12509000000E+03 0.  0.
<mgrwt>
<rscale>  2 0.45424803E+03</rscale>
<asrwt>0</asrwt>
<pdfrwt beam="1">  1       21 0.18110925E-01 0.45424803E+03</pdfrwt>
<pdfrwt beam="2">  1       21 0.61598148E-01 0.45424803E+03</pdfrwt>
<totfact> 0.62769515E+04</totfact>
</mgrwt>
</event>
<event>
 7    0  0.4793433E-002  0.4593106E+03  0.7546771E-02  0.1024981E+00
         21   -1    0    0  502  501  0.00000000000E+00  0.00000000000E+00  0.33153248562E+03  0.33153248562E+03  0.00000000000E+00 0.  1.
         21   -1    0    0  501  502 -0.00000000000E+00 -0.00000000000E+00 -0.15908411458E+03  0.15908411458E+03  0.00000000000E+00 0.  1.
      99926    2    1    2    0    0  0.35527136788E-14  0.00000000000E+00  0.17244837103E+03  0.49061660020E+03  0.45931057872E+03 0.  0.
      99925    2    3    3    0    0  0.27314185113E+02 -0.11345140326E+03  0.11935299316E+03  0.31149677198E+03  0.26299774975E+03 0.  0.
         25    1    4    4    0    0  0.54276728534E+02 -0.60743033380E+02  0.58881105774E+02  0.16046860154E+03  0.12509000000E+03 0.  0.
         25    1    3    3    0    0 -0.27314185113E+02  0.11345140326E+03  0.53095377878E+02  0.17911982822E+03  0.12509000000E+03 0.  0.
         25    1    4    4    0    0 -0.26962543421E+02 -0.52708369875E+02  0.60471887382E+02  0.15102817044E+03  0.12509000000E+03 0.  0.
<mgrwt>
<rscale>  2 0.45931058E+03</rscale>
<asrwt>0</asrwt>
<pdfrwt beam="1">  1       21 0.48754777E-01 0.45931058E+03</pdfrwt>
<pdfrwt beam="2">  1       21 0.23394723E-01 0.45931058E+03</pdfrwt>
<totfact> 0.63726245E+04</totfact>
</mgrwt>
</event>
<event>
 7    0  0.4793433E-002  0.4583184E+03  0.7546771E-02  0.1025270E+00
         21   -1    0    0  502  501  0.00000000000E+00  0.00000000000E+00  0.80138917289E+02  0.80138917289E+02  0.00000000000E+00 0. -1.
         21   -1    0    0  501  502 -0.00000000000E+00 -0.00000000000E+00 -0.65528630575E+03  0.65528630575E+03  0.00000000000E+00 0. -1.
      99926    2    1    2    0    0  0.00000000000E+00  0.00000000000E+00 -0.57514738846E+03  0.73542522304E+03  0.45831838304E+03 0.  0.
      99925    2    3    3    0    0 -0.30890446798E+02  0.97440096383E+02 -0.27240485800E+03  0.39227898608E+03  0.26311519183E+03 0.  0.
         25    1    3    3    0    0  0.30890446798E+02 -0.97440096383E+02 -0.30274253046E+03  0.34314623696E+03  0.12509000000E+03 0.  0.
         25    1    4    4    0    0  0.23824609143E+02  0.34555006015E+02 -0.12561771445E+03  0.18217842552E+03  0.12509000000E+03 0.  0.
         25    1    4    4    0    0 -0.54715055941E+02  0.62885090369E+02 -0.14678714355E+03  0.21010056056E+03  0.12509000000E+03 0.  0.
<mgrwt>
<rscale>  2 0.45831838E+03</rscale>
<asrwt>0</asrwt>
<pdfrwt beam="1">  1       21 0.11785135E-01 0.45831838E+03</pdfrwt>
<pdfrwt beam="2">  1       21 0.96365635E-01 0.45831838E+03</pdfrwt>
<totfact> 0.49711697E+04</totfact>
</mgrwt>
</event>
<event>
 7    0  0.4793433E-002  0.4552752E+03  0.7546771E-02  0.1026160E+00
         21   -1    0    0  502  501  0.00000000000E+00  0.00000000000E+00  0.46016925645E+03  0.46016925645E+03  0.00000000000E+00 0.  1.
         21   -1    0    0  501  502 -0.00000000000E+00 -0.00000000000E+00 -0.11260831560E+03  0.11260831560E+03  0.00000000000E+00 0.  1.
      99926    2    1    2    0    0  0.00000000000E+00 -0.35527136788E-14  0.34756094085E+03  0.57277757205E+03  0.45527523481E+03 0.  0.
      99925    2    3    3    0    0 -0.89454894013E+02 -0.23978657251E+02  0.13633158437E+03  0.31039902260E+03  0.26302870237E+03 0.  0.
         25    1    4    4    0    0 -0.50879298226E+02  0.28161443423E+02  0.66463185028E+02  0.15312293410E+03  0.12509000000E+03 0.  0.
         25    1    3    3    0    0  0.89454894013E+02  0.23978657251E+02  0.21122935648E+03  0.26237854944E+03  0.12509000000E+03 0.  0.
         25    1    4    4    0    0 -0.38575595787E+02 -0.52140100675E+02  0.69868399339E+02  0.15727608850E+03  0.12509000000E+03 0.  0.
<mgrwt>
<rscale>  2 0.45527523E+03</rscale>
<asrwt>0</asrwt>
<pdfrwt beam="1">  1       21 0.67671949E-01 0.45527523E+03</pdfrwt>
<pdfrwt beam="2">  1       21 0.16560047E-01 0.45527523E+03</pdfrwt>
<totfact> 0.60254727E+04</totfact>
</mgrwt>
</event>
<event>
 7    0  0.4793433E-002  0.4633650E+03  0.7546771E-02  0.1023810E+00
         21   -1    0    0  502  501  0.00000000000E+00  0.00000000000E+00  0.19920740090E+03  0.19920740090E+03  0.00000000000E+00 0. -1.
         21   -1    0    0  501  502 -0.00000000000E+00 -0.00000000000E+00 -0.26945170324E+03  0.26945170324E+03  0.00000000000E+00 0. -1.
      99926    2    1    2    0    0  0.00000000000E+00  0.88817841970E-15 -0.70244302339E+02  0.46865910414E+03  0.46336496834E+03 0.  0.
      99925    2    3    3    0    0 -0.90125950087E+02 -0.39444752791E+01  0.37565840069E+02  0.28048689400E+03  0.26291340704E+03 0.  0.
         25    1    4    4    0    0 -0.35080706893E+02  0.15919165849E+02 -0.17018441622E+02  0.13198943629E+03  0.12509000000E+03 0.  0.
         25    1    4    4    0    0 -0.55045243194E+02 -0.19863641128E+02  0.54584281691E+02  0.14849745771E+03  0.12509000000E+03 0.  0.
         25    1    3    3    0    0  0.90125950087E+02  0.39444752791E+01 -0.10781014241E+03  0.18817221014E+03  0.12509000000E+03 0.  0.
<mgrwt>
<rscale>  2 0.46336497E+03</rscale>
<asrwt>0</asrwt>
<pdfrwt beam="1">  1       21 0.29295206E-01 0.46336497E+03</pdfrwt>
<pdfrwt beam="2">  1       21 0.39625251E-01 0.46336497E+03</pdfrwt>
<totfact> 0.63229090E+04</totfact>
</mgrwt>
</event>
<event>
 7    0  0.4793433E-002  0.4208192E+03  0.7546771E-02  0.1036800E+00
         21   -1    0    0  502  501  0.00000000000E+00  0.00000000000E+00  0.32815835677E+03  0.32815835677E+03  0.00000000000E+00 0.  1.
         21   -1    0    0  501  502 -0.00000000000E+00 -0.00000000000E+00 -0.13491108330E+03  0.13491108330E+03  0.00000000000E+00 0.  1.
      99926    2    1    2    0    0 -0.17763568394E-14  0.00000000000E+00  0.19324727348E+03  0.46306944007E+03  0.42081919825E+03 0.  0.
      99925    2    3    3    0    0 -0.13063684826E+02  0.75193778280E+02  0.13469225193E+03  0.30526905096E+03  0.26310155186E+03 0.  0.
         25    1    4    4    0    0  0.31533719307E+02  0.22970502190E+02  0.70497979089E+02  0.14879345611E+03  0.12509000000E+03 0.  0.
         25    1    4    4    0    0 -0.44597404133E+02  0.52223276089E+02  0.64194272838E+02  0.15647559486E+03  0.12509000000E+03 0.  0.
         25    1    3    3    0    0  0.13063684826E+02 -0.75193778280E+02  0.58555021551E+02  0.15780038911E+03  0.12509000000E+03 0.  0.
<mgrwt>
<rscale>  2 0.42081920E+03</rscale>
<asrwt>0</asrwt>
<pdfrwt beam="1">  1       21 0.48258582E-01 0.42081920E+03</pdfrwt>
<pdfrwt beam="2">  1       21 0.19839865E-01 0.42081920E+03</pdfrwt>
<totfact> 0.90004336E+04</totfact>
</mgrwt>
</event>
<event>
 7    0  0.4793433E-002  0.4558900E+03  0.7546771E-02  0.1025980E+00
         21   -1    0    0  502  501  0.00000000000E+00  0.00000000000E+00  0.84980386073E+02  0.84980386073E+02  0.00000000000E+00 0.  1.
         21   -1    0    0  501  502 -0.00000000000E+00 -0.00000000000E+00 -0.61142243729E+03  0.61142243729E+03  0.00000000000E+00 0.  1.
      99926    2    1    2    0    0  0.00000000000E+00 -0.88817841970E-15 -0.52644205122E+03  0.69640282337E+03  0.45588996381E+03 0.  0.
      99925    2    3    3    0    0 -0.11364142462E+03  0.65699097833E+01 -0.34400391019E+03  0.44762838636E+03  0.26282112729E+03 0.  0.
         25    1    4    4    0    0 -0.33085311142E+02 -0.97860359669E+01 -0.11136895906E+03  0.17099987560E+03  0.12509000000E+03 0.  0.
         25    1    4    4    0    0 -0.80556113473E+02  0.16355945750E+02 -0.23263495113E+03  0.27662851076E+03  0.12509000000E+03 0.  0.
         25    1    3    3    0    0  0.11364142462E+03 -0.65699097833E+01 -0.18243814103E+03  0.24877443700E+03  0.12509000000E+03 0.  0.
<mgrwt>
<rscale>  2 0.45588996E+03</rscale>
<asrwt>0</asrwt>
<pdfrwt beam="1">  1       21 0.12497116E-01 0.45588996E+03</pdfrwt>
<pdfrwt beam="2">  1       21 0.89915062E-01 0.45588996E+03</pdfrwt>
<totfact> 0.52728405E+04</totfact>
</mgrwt>
</event>
<event>
 7    0  0.4793433E-002  0.4552288E+03  0.7546771E-02  0.1026174E+00
         21   -1    0    0  502  501  0.00000000000E+00  0.00000000000E+00  0.65121208312E+02  0.65121208312E+02  0.00000000000E+00 0. -1.
         21   -1    0    0  501  502 -0.00000000000E+00 -0.00000000000E+00 -0.79556730602E+03  0.79556730602E+03  0.00000000000E+00 0. -1.
      99926    2    1    2    0    0  0.00000000000E+00  0.00000000000E+00 -0.73044609771E+03  0.86068851433E+03  0.45522875244E+03 0.  0.
      99925    2    3    3    0    0  0.76297239016E+02 -0.34205186215E+02 -0.60572092920E+03  0.66525274687E+03  0.26205363897E+03 0.  0.
         25    1    4    4    0    0  0.54314648316E+02 -0.41981017517E+01 -0.38944752938E+03  0.41265553592E+03  0.12509000000E+03 0.  0.
         25    1    3    3    0    0 -0.76297239016E+02  0.34205186215E+02 -0.12472516851E+03  0.19543576747E+03  0.12509000000E+03 0.  0.
         25    1    4    4    0    0  0.21982590700E+02 -0.30007084463E+02 -0.21627339981E+03  0.25259721095E+03  0.12509000000E+03 0.  0.
<mgrwt>
<rscale>  2 0.45522875E+03</rscale>
<asrwt>0</asrwt>
<pdfrwt beam="1">  1       21 0.95766484E-02 0.45522875E+03</pdfrwt>
<pdfrwt beam="2">  1       21 0.11699519E+00 0.45522875E+03</pdfrwt>
<totfact> 0.44884342E+04</totfact>
</mgrwt>
</event>
<event>
 7    0  0.4793433E-002  0.4568795E+03  0.7546771E-02  0.1025690E+00
         21   -1    0    0  502  501  0.00000000000E+00  0.00000000000E+00  0.37546112290E+03  0.37546112290E+03  0.00000000000E+00 0.  1.
         21   -1    0    0  501  502 -0.00000000000E+00 -0.00000000000E+00 -0.13898831908E+03  0.13898831908E+03  0.00000000000E+00 0.  1.
      99926    2    1    2    0    0  0.00000000000E+00  0.35527136788E-14  0.23647280383E+03  0.51444944198E+03  0.45687946047E+03 0.  0.
      99925    2    3    3    0    0  0.98000721102E+02 -0.22727358512E+02  0.86098564011E+02  0.29449355035E+03  0.26304527046E+03 0.  0.
         25    1    4    4    0    0  0.51117796458E+02 -0.44190323104E+02  0.18899009607E+02  0.14342417661E+03  0.12509000000E+03 0.  0.
         25    1    3    3    0    0 -0.98000721102E+02  0.22727358512E+02  0.15037423982E+03  0.21995589163E+03  0.12509000000E+03 0.  0.
         25    1    4    4    0    0  0.46882924644E+02  0.21462964592E+02  0.67199554404E+02  0.15106937375E+03  0.12509000000E+03 0.  0.
<mgrwt>
<rscale>  2 0.45687946E+03</rscale>
<asrwt>0</asrwt>
<pdfrwt beam="1">  1       21 0.55214871E-01 0.45687946E+03</pdfrwt>
<pdfrwt beam="2">  1       21 0.20439459E-01 0.45687946E+03</pdfrwt>
<totfact> 0.63317380E+04</totfact>
</mgrwt>
</event>
<event>
 7    0  0.4793433E-002  0.4526650E+03  0.7546771E-02  0.1026930E+00
         21   -1    0    0  502  501  0.00000000000E+00  0.00000000000E+00  0.72610746402E+03  0.72610746402E+03  0.00000000000E+00 0.  1.
         21   -1    0    0  501  502 -0.00000000000E+00 -0.00000000000E+00 -0.70549337798E+02  0.70549337798E+02  0.00000000000E+00 0.  1.
      99926    2    1    2    0    0  0.00000000000E+00  0.00000000000E+00  0.65555812622E+03  0.79665680181E+03  0.45266500088E+03 0.  0.
      99925    2    3    3    0    0  0.48363143278E+02  0.56451870260E+02  0.55848017959E+03  0.62173555352E+03  0.26292428612E+03 0.  0.
         25    1    3    3    0    0 -0.48363143278E+02 -0.56451870260E+02  0.97077946632E+02  0.17492124830E+03  0.12509000000E+03 0.  0.
         25    1    4    4    0    0  0.15037458783E+02 -0.11906891164E+02  0.27314710956E+03  0.30103945055E+03  0.12509000000E+03 0.  0.
         25    1    4    4    0    0  0.33325684495E+02  0.68358761424E+02  0.28533307002E+03  0.32069610297E+03  0.12509000000E+03 0.  0.
<mgrwt>
<rscale>  2 0.45266500E+03</rscale>
<asrwt>0</asrwt>
<pdfrwt beam="1">  1       21 0.10678051E+00 0.45266500E+03</pdfrwt>
<pdfrwt beam="2">  1       21 0.10374903E-01 0.45266500E+03</pdfrwt>
<totfact> 0.48815364E+04</totfact>
</mgrwt>
</event>
<event>
 7    0  0.4793433E-002  0.4469751E+03  0.7546771E-02  0.1028628E+00
         21   -1    0    0  502  501  0.00000000000E+00  0.00000000000E+00  0.66446467427E+03  0.66446467427E+03  0.00000000000E+00 0.  1.
         21   -1    0    0  501  502 -0.00000000000E+00 -0.00000000000E+00 -0.75168312857E+02  0.75168312857E+02  0.00000000000E+00 0.  1.
      99926    2    1    2    0    0 -0.17763568394E-14  0.00000000000E+00  0.58929636141E+03  0.73963298712E+03  0.44697511572E+03 0.  0.
      99925    2    3    3    0    0 -0.23008759838E+01 -0.33322108565E+02  0.53904432569E+03  0.60075018709E+03  0.26308999466E+03 0.  0.
         25    1    4    4    0    0 -0.33382020587E+02 -0.74927224840E+01  0.32011549552E+03  0.34538665111E+03  0.12509000000E+03 0.  0.
         25    1    4    4    0    0  0.31081144603E+02 -0.25829386081E+02  0.21892883016E+03  0.25536353599E+03  0.12509000000E+03 0.  0.
         25    1    3    3    0    0  0.23008759838E+01  0.33322108565E+02  0.50252035723E+02  0.13888280003E+03  0.12509000000E+03 0.  0.
<mgrwt>
<rscale>  2 0.44697512E+03</rscale>
<asrwt>0</asrwt>
<pdfrwt beam="1">  1       21 0.97715390E-01 0.44697512E+03</pdfrwt>
<pdfrwt beam="2">  1       21 0.11054164E-01 0.44697512E+03</pdfrwt>
<totfact> 0.54138909E+04</totfact>
</mgrwt>
</event>
<event>
 7    0  0.4793433E-002  0.4544284E+03  0.7546771E-02  0.1026410E+00
         21   -1    0    0  502  501  0.00000000000E+00  0.00000000000E+00  0.23930186567E+02  0.23930186567E+02  0.00000000000E+00 0. -1.
         21   -1    0    0  501  502 -0.00000000000E+00 -0.00000000000E+00 -0.21573714532E+04  0.21573714532E+04  0.00000000000E+00 0. -1.
      99926    2    1    2    0    0  0.22204460493E-15  0.00000000000E+00 -0.21334412666E+04  0.21813016398E+04  0.45442843823E+03 0.  0.
      99925    2    3    3    0    0  0.31148766210E+00  0.48436878590E+02 -0.18289559389E+04  0.18485779539E+04  0.26422414154E+03 0.  0.
         25    1    3    3    0    0 -0.31148766210E+00 -0.48436878590E+02 -0.30448532773E+03  0.33272368586E+03  0.12509000000E+03 0.  0.
         25    1    4    4    0    0  0.15253551610E+02  0.48082496180E+02 -0.72332711164E+03  0.73579495500E+03  0.12509000000E+03 0.  0.
         25    1    4    4    0    0 -0.14942063948E+02  0.35438240979E+00 -0.11056288273E+04  0.11127829989E+04  0.12509000000E+03 0.  0.
<mgrwt>
<rscale>  2 0.45442844E+03</rscale>
<asrwt>0</asrwt>
<pdfrwt beam="1">  1       21 0.35191442E-02 0.45442844E+03</pdfrwt>
<pdfrwt beam="2">  1       21 0.31726058E+00 0.45442844E+03</pdfrwt>
<totfact> 0.11018093E+04</totfact>
</mgrwt>
</event>
<event>
 7    0  0.4793433E-002  0.4566535E+03  0.7546771E-02  0.1025756E+00
         21   -1    0    0  502  501  0.00000000000E+00  0.00000000000E+00  0.20893769715E+02  0.20893769715E+02  0.00000000000E+00 0.  1.
         21   -1    0    0  501  502 -0.00000000000E+00 -0.00000000000E+00 -0.24951503001E+04  0.24951503001E+04  0.00000000000E+00 0.  1.
      99926    2    1    2    0    0 -0.17763568394E-14 -0.14210854715E-13 -0.24742565304E+04  0.25160440699E+04  0.45665346063E+03 0.  0.
      99925    2    3    3    0    0  0.93846929058E+01 -0.65644704793E+02 -0.10389667637E+04  0.10737883636E+04  0.26300611010E+03 0.  0.
         25    1    4    4    0    0  0.20908596933E+02  0.53289074899E+01 -0.48030184669E+03  0.49679265163E+03  0.12509000000E+03 0.  0.
         25    1    3    3    0    0 -0.93846929058E+01  0.65644704793E+02 -0.14352897667E+04  0.14422557063E+04  0.12509000000E+03 0.  0.
         25    1    4    4    0    0 -0.11523904028E+02 -0.70973612283E+02 -0.55866491700E+03  0.57699571193E+03  0.12509000000E+03 0.  0.
<mgrwt>
<rscale>  2 0.45665346E+03</rscale>
<asrwt>0</asrwt>
<pdfrwt beam="1">  1       21 0.30726135E-02 0.45665346E+03</pdfrwt>
<pdfrwt beam="2">  1       21 0.36693384E+00 0.45665346E+03</pdfrwt>
<totfact> 0.68801394E+03</totfact>
</mgrwt>
</event>
<event>
 7    0  0.4793433E-002  0.4529354E+03  0.7546771E-02  0.1026850E+00
         21   -1    0    0  502  501  0.00000000000E+00  0.00000000000E+00  0.21394934650E+03  0.21394934650E+03  0.00000000000E+00 0.  1.
         21   -1    0    0  501  502 -0.00000000000E+00 -0.00000000000E+00 -0.23971853456E+03  0.23971853456E+03  0.00000000000E+00 0.  1.
      99926    2    1    2    0    0  0.00000000000E+00  0.00000000000E+00 -0.25769188065E+02  0.45366788106E+03  0.45293542062E+03 0.  0.
      99925    2    3    3    0    0  0.10599542490E+03 -0.24502422842E+02 -0.39727665561E+02  0.28730158033E+03  0.26292301501E+03 0.  0.
         25    1    4    4    0    0  0.63512697204E+02 -0.29422559847E+02  0.15199610211E+02  0.14414605782E+03  0.12509000000E+03 0.  0.
         25    1    4    4    0    0  0.42482727695E+02  0.49201370043E+01 -0.54927275772E+02  0.14315552251E+03  0.12509000000E+03 0.  0.
         25    1    3    3    0    0 -0.10599542490E+03  0.24502422842E+02  0.13958477497E+02  0.16636630073E+03  0.12509000000E+03 0.  0.
<mgrwt>
<rscale>  2 0.45293542E+03</rscale>
<asrwt>0</asrwt>
<pdfrwt beam="1">  1       21 0.31463139E-01 0.45293542E+03</pdfrwt>
<pdfrwt beam="2">  1       21 0.35252726E-01 0.45293542E+03</pdfrwt>
<totfact> 0.69786040E+04</totfact>
</mgrwt>
</event>
<event>
 7    0  0.4793433E-002  0.4401262E+03  0.7546771E-02  0.1030708E+00
         21   -1    0    0  502  501  0.00000000000E+00  0.00000000000E+00  0.29168878947E+03  0.29168878947E+03  0.00000000000E+00 0.  1.
         21   -1    0    0  501  502 -0.00000000000E+00 -0.00000000000E+00 -0.16602548892E+03  0.16602548892E+03  0.00000000000E+00 0.  1.
      99926    2    1    2    0    0  0.00000000000E+00  0.00000000000E+00  0.12566330055E+03  0.45771427838E+03  0.44012622682E+03 0.  0.
      99925    2    3    3    0    0 -0.70433303648E+02 -0.66605983115E+02  0.61593434332E+02  0.28698155420E+03  0.26299706091E+03 0.  0.
         25    1    3    3    0    0  0.70433303648E+02  0.66605983115E+02  0.64069866220E+02  0.17073272418E+03  0.12509000000E+03 0.  0.
         25    1    4    4    0    0  0.49040471725E+01 -0.39499982022E+02  0.37495490859E+02  0.13652002854E+03  0.12509000000E+03 0.  0.
         25    1    4    4    0    0 -0.75337350820E+02 -0.27106001094E+02  0.24097943472E+02  0.15046152566E+03  0.12509000000E+03 0.  0.
<mgrwt>
<rscale>  2 0.44012623E+03</rscale>
<asrwt>0</asrwt>
<pdfrwt beam="1">  1       21 0.42895410E-01 0.44012623E+03</pdfrwt>
<pdfrwt beam="2">  1       21 0.24415513E-01 0.44012623E+03</pdfrwt>
<totfact> 0.77059273E+04</totfact>
</mgrwt>
</event>
<event>
 7    0  0.4793433E-002  0.4576826E+03  0.7546771E-02  0.1025455E+00
         21   -1    0    0  502  501  0.00000000000E+00  0.00000000000E+00  0.97507200577E+02  0.97507200577E+02  0.00000000000E+00 0.  1.
         21   -1    0    0  501  502 -0.00000000000E+00 -0.00000000000E+00 -0.53707151553E+03  0.53707151553E+03  0.00000000000E+00 0.  1.
      99926    2    1    2    0    0  0.00000000000E+00 -0.88817841970E-15 -0.43956431495E+03  0.63457871611E+03  0.45768259739E+03 0.  0.
      99925    2    3    3    0    0 -0.18132009687E+02 -0.40688627660E+01 -0.43423118227E+03  0.50800353756E+03  0.26299343927E+03 0.  0.
         25    1    4    4    0    0  0.11933103850E+02 -0.11280670756E+02 -0.27943025184E+03  0.30659162781E+03  0.12509000000E+03 0.  0.
         25    1    3    3    0    0  0.18132009687E+02  0.40688627660E+01 -0.53331326782E+01  0.12657517854E+03  0.12509000000E+03 0.  0.
         25    1    4    4    0    0 -0.30065113538E+02  0.72118079904E+01 -0.15480093044E+03  0.20141190975E+03  0.12509000000E+03 0.  0.
<mgrwt>
<rscale>  2 0.45768260E+03</rscale>
<asrwt>0</asrwt>
<pdfrwt beam="1">  1       21 0.14339294E-01 0.45768260E+03</pdfrwt>
<pdfrwt beam="2">  1       21 0.78981106E-01 0.45768260E+03</pdfrwt>
<totfact> 0.55416041E+04</totfact>
</mgrwt>
</event>
<event>
 7    0  0.4793433E-002  0.4400086E+03  0.7546771E-02  0.1030744E+00
         21   -1    0    0  502  501  0.00000000000E+00  0.00000000000E+00  0.79948114097E+03  0.79948114097E+03  0.00000000000E+00 0. -1.
         21   -1    0    0  501  502 -0.00000000000E+00 -0.00000000000E+00 -0.60541621246E+02  0.60541621246E+02  0.00000000000E+00 0. -1.
      99926    2    1    2    0    0  0.00000000000E+00 -0.35527136788E-14  0.73893951973E+03  0.86002276222E+03  0.44000856551E+03 0.  0.
      99925    2    3    3    0    0 -0.76406602011E+02  0.25631166898E+02  0.58205972643E+03  0.64379671570E+03  0.26303186208E+03 0.  0.
         25    1    4    4    0    0 -0.61970135638E+02 -0.12243705281E+02  0.35102274251E+03  0.37796121480E+03  0.12509000000E+03 0.  0.
         25    1    3    3    0    0  0.76406602011E+02 -0.25631166898E+02  0.15687979330E+03  0.21622604652E+03  0.12509000000E+03 0.  0.
         25    1    4    4    0    0 -0.14436466373E+02  0.37874872179E+02  0.23103698392E+03  0.26583550090E+03  0.12509000000E+03 0.  0.
<mgrwt>
<rscale>  2 0.44000857E+03</rscale>
<asrwt>0</asrwt>
<pdfrwt beam="1">  1       21 0.11757075E+00 0.44000857E+03</pdfrwt>
<pdfrwt beam="2">  1       21 0.89031801E-02 0.44000857E+03</pdfrwt>
<totfact> 0.50697548E+04</totfact>
</mgrwt>
</event>
<event>
 7    0  0.4793433E-002  0.4600099E+03  0.7546771E-02  0.1024778E+00
         21   -1    0    0  502  501  0.00000000000E+00  0.00000000000E+00  0.63288905083E+02  0.63288905083E+02  0.00000000000E+00 0.  1.
         21   -1    0    0  501  502 -0.00000000000E+00 -0.00000000000E+00 -0.83588541667E+03  0.83588541667E+03  0.00000000000E+00 0.  1.
      99926    2    1    2    0    0  0.00000000000E+00  0.00000000000E+00 -0.77259651159E+03  0.89917432175E+03  0.46000988161E+03 0.  0.
      99925    2    3    3    0    0 -0.37153145212E+02 -0.34483355801E+02 -0.69195535814E+03  0.74194849132E+03  0.26289900739E+03 0.  0.
         25    1    4    4    0    0 -0.31265403806E+01 -0.53788519173E+02 -0.33049189384E+03  0.35745682262E+03  0.12509000000E+03 0.  0.
         25    1    3    3    0    0  0.37153145212E+02  0.34483355801E+02 -0.80641153450E+02  0.15722583044E+03  0.12509000000E+03 0.  0.
         25    1    4    4    0    0 -0.34026604831E+02  0.19305163372E+02 -0.36146346430E+03  0.38449166869E+03  0.12509000000E+03 0.  0.
<mgrwt>
<rscale>  2 0.46000988E+03</rscale>
<asrwt>0</asrwt>
<pdfrwt beam="1">  1       21 0.93071925E-02 0.46000988E+03</pdfrwt>
<pdfrwt beam="2">  1       21 0.12292432E+00 0.46000988E+03</pdfrwt>
<totfact> 0.41612946E+04</totfact>
</mgrwt>
</event>
<event>
 7    0  0.4793433E-002  0.4559380E+03  0.7546771E-02  0.1025966E+00
         21   -1    0    0  502  501  0.00000000000E+00  0.00000000000E+00  0.82698510996E+02  0.82698510996E+02  0.00000000000E+00 0. -1.
         21   -1    0    0  501  502 -0.00000000000E+00 -0.00000000000E+00 -0.62842574493E+03  0.62842574493E+03  0.00000000000E+00 0. -1.
      99926    2    1    2    0    0  0.00000000000E+00  0.00000000000E+00 -0.54572723393E+03  0.71112425593E+03  0.45593803692E+03 0.  0.
      99925    2    3    3    0    0 -0.44083372709E+02  0.96896410292E+02 -0.27848314087E+03  0.39743783375E+03  0.26281498031E+03 0.  0.
         25    1    3    3    0    0  0.44083372709E+02 -0.96896410292E+02 -0.26724409307E+03  0.31368642217E+03  0.12509000000E+03 0.  0.
         25    1    4    4    0    0 -0.61069411501E+02  0.62617604432E+02 -0.14443745808E+03  0.21014310553E+03  0.12509000000E+03 0.  0.
         25    1    4    4    0    0  0.16986038792E+02  0.34278805860E+02 -0.13404568279E+03  0.18729472822E+03  0.12509000000E+03 0.  0.
<mgrwt>
<rscale>  2 0.45593804E+03</rscale>
<asrwt>0</asrwt>
<pdfrwt beam="1">  1       21 0.12161546E-01 0.45593804E+03</pdfrwt>
<pdfrwt beam="2">  1       21 0.92415549E-01 0.45593804E+03</pdfrwt>
<totfact> 0.51918934E+04</totfact>
</mgrwt>
</event>
<event>
 7    0  0.4793433E-002  0.4553578E+03  0.7546771E-02  0.1026136E+00
         21   -1    0    0  502  501  0.00000000000E+00  0.00000000000E+00  0.49739598978E+02  0.49739598978E+02  0.00000000000E+00 0. -1.
         21   -1    0    0  501  502 -0.00000000000E+00 -0.00000000000E+00 -0.10421814381E+04  0.10421814381E+04  0.00000000000E+00 0. -1.
      99926    2    1    2    0    0 -0.71054273576E-14  0.00000000000E+00 -0.99244183909E+03  0.10919210370E+04  0.45535782322E+03 0.  0.
      99925    2    3    3    0    0 -0.52093009210E+02  0.28824299644E+02 -0.85576744916E+03  0.89731394873E+03  0.26322969759E+03 0.  0.
         25    1    3    3    0    0  0.52093009210E+02 -0.28824299644E+02 -0.13667438993E+03  0.19460708831E+03  0.12509000000E+03 0.  0.
         25    1    4    4    0    0 -0.23849983262E+01  0.13173937998E+01 -0.30492310609E+03  0.32959525553E+03  0.12509000000E+03 0.  0.
         25    1    4    4    0    0 -0.49708010884E+02  0.27506905844E+02 -0.55084434307E+03  0.56771869320E+03  0.12509000000E+03 0.  0.
<mgrwt>
<rscale>  2 0.45535782E+03</rscale>
<asrwt>0</asrwt>
<pdfrwt beam="1">  1       21 0.73146466E-02 0.45535782E+03</pdfrwt>
<pdfrwt beam="2">  1       21 0.15326198E+00 0.45535782E+03</pdfrwt>
<totfact> 0.35675964E+04</totfact>
</mgrwt>
</event>
<event>
 7    0  0.4793433E-002  0.4518960E+03  0.7546771E-02  0.1027158E+00
         21   -1    0    0  502  501  0.00000000000E+00  0.00000000000E+00  0.95120526940E+02  0.95120526940E+02  0.00000000000E+00 0. -1.
         21   -1    0    0  501  502 -0.00000000000E+00 -0.00000000000E+00 -0.53671373557E+03  0.53671373557E+03  0.00000000000E+00 0. -1.
      99926    2    1    2    0    0  0.17763568394E-14  0.00000000000E+00 -0.44159320863E+03  0.63183426251E+03  0.45189597628E+03 0.  0.
      99925    2    3    3    0    0  0.63433422612E+01 -0.28293403371E+02 -0.42713986010E+03  0.50261676351E+03  0.26331425371E+03 0.  0.
         25    1    4    4    0    0  0.31601381355E+02 -0.38255989997E+02 -0.25207370052E+03  0.28574608776E+03  0.12509000000E+03 0.  0.
         25    1    3    3    0    0 -0.63433422612E+01  0.28293403371E+02 -0.14453348533E+02  0.12921749901E+03  0.12509000000E+03 0.  0.
         25    1    4    4    0    0 -0.25258039094E+02  0.99625866264E+01 -0.17506615957E+03  0.21687067575E+03  0.12509000000E+03 0.  0.
<mgrwt>
<rscale>  2 0.45189598E+03</rscale>
<asrwt>0</asrwt>
<pdfrwt beam="1">  1       21 0.13988313E-01 0.45189598E+03</pdfrwt>
<pdfrwt beam="2">  1       21 0.78928489E-01 0.45189598E+03</pdfrwt>
<totfact> 0.58172608E+04</totfact>
</mgrwt>
</event>
<event>
 7    0  0.4793433E-002  0.4525324E+03  0.7546771E-02  0.1026970E+00
         21   -1    0    0  502  501  0.00000000000E+00  0.00000000000E+00  0.18100275707E+03  0.18100275707E+03  0.00000000000E+00 0.  1.
         21   -1    0    0  501  502 -0.00000000000E+00 -0.00000000000E+00 -0.28284863522E+03  0.28284863522E+03  0.00000000000E+00 0.  1.
      99926    2    1    2    0    0  0.00000000000E+00  0.00000000000E+00 -0.10184587815E+03  0.46385139229E+03  0.45253235380E+03 0.  0.
      99925    2    3    3    0    0 -0.50617525276E+02 -0.74079398749E+02  0.25026535580E+01  0.27787823467E+03  0.26298319118E+03 0.  0.
         25    1    4    4    0    0 -0.46257426227E+02 -0.15019456770E+02 -0.25657205818E+02  0.13664235754E+03  0.12509000000E+03 0.  0.
         25    1    4    4    0    0 -0.43600990495E+01 -0.59059941979E+02  0.28159859376E+02  0.14123587714E+03  0.12509000000E+03 0.  0.
         25    1    3    3    0    0  0.50617525276E+02  0.74079398749E+02 -0.10434853171E+03  0.18597315762E+03  0.12509000000E+03 0.  0.
<mgrwt>
<rscale>  2 0.45253235E+03</rscale>
<asrwt>0</asrwt>
<pdfrwt beam="1">  1       21 0.26618053E-01 0.45253235E+03</pdfrwt>
<pdfrwt beam="2">  1       21 0.41595387E-01 0.45253235E+03</pdfrwt>
<totfact> 0.69241561E+04</totfact>
</mgrwt>
</event>
<event>
 7    0  0.4793433E-002  0.4537179E+03  0.7546771E-02  0.1026619E+00
         21   -1    0    0  502  501  0.00000000000E+00  0.00000000000E+00  0.25073636466E+03  0.25073636466E+03  0.00000000000E+00 0.  1.
         21   -1    0    0  501  502 -0.00000000000E+00 -0.00000000000E+00 -0.20525533266E+03  0.20525533266E+03  0.00000000000E+00 0.  1.
      99926    2    1    2    0    0 -0.35527136788E-14  0.71054273576E-14  0.45481032007E+02  0.45599169732E+03  0.45371786801E+03 0.  0.
      99925    2    3    3    0    0  0.20375159333E+02 -0.51825432112E+02 -0.68986613002E+02  0.27752216943E+03  0.26297980763E+03 0.  0.
         25    1    4    4    0    0  0.86539778091E+01 -0.66077440571E+02 -0.45952565621E+02  0.14899753646E+03  0.12509000000E+03 0.  0.
         25    1    3    3    0    0 -0.20375159333E+02  0.51825432112E+02  0.11446764501E+03  0.17846952789E+03  0.12509000000E+03 0.  0.
         25    1    4    4    0    0  0.11721181524E+02  0.14252008459E+02 -0.23034047381E+02  0.12852463297E+03  0.12509000000E+03 0.  0.
<mgrwt>
<rscale>  2 0.45371787E+03</rscale>
<asrwt>0</asrwt>
<pdfrwt beam="1">  1       21 0.36872995E-01 0.45371787E+03</pdfrwt>
<pdfrwt beam="2">  1       21 0.30184608E-01 0.45371787E+03</pdfrwt>
<totfact> 0.69178151E+04</totfact>
</mgrwt>
</event>
<event>
 7    0  0.4793433E-002  0.4527215E+03  0.7546771E-02  0.1026914E+00
         21   -1    0    0  502  501  0.00000000000E+00  0.00000000000E+00  0.13156136992E+04  0.13156136992E+04  0.00000000000E+00 0. -1.
         21   -1    0    0  501  502 -0.00000000000E+00 -0.00000000000E+00 -0.38946984645E+02  0.38946984645E+02  0.00000000000E+00 0. -1.
      99926    2    1    2    0    0  0.00000000000E+00  0.00000000000E+00  0.12766667145E+04  0.13545606838E+04  0.45272148851E+03 0.  0.
      99925    2    3    3    0    0 -0.68981973580E+02  0.68263967571E+02  0.96653782843E+03  0.10063568412E+04  0.26294530994E+03 0.  0.
         25    1    4    4    0    0 -0.74450048129E+02  0.25677746750E+02  0.49047910413E+03  0.51226889037E+03  0.12509000000E+03 0.  0.
         25    1    3    3    0    0  0.68981973580E+02 -0.68263967571E+02  0.31012888609E+03  0.34820384265E+03  0.12509000000E+03 0.  0.
         25    1    4    4    0    0  0.54680745488E+01  0.42586220821E+02  0.47605872430E+03  0.49408795080E+03  0.12509000000E+03 0.  0.
<mgrwt>
<rscale>  2 0.45272149E+03</rscale>
<asrwt>0</asrwt>
<pdfrwt beam="1">  1       21 0.19347257E+00 0.45272149E+03</pdfrwt>
<pdfrwt beam="2">  1       21 0.57274986E-02 0.45272149E+03</pdfrwt>
<totfact> 0.28062174E+04</totfact>
</mgrwt>
</event>
<event>
 7    0  0.4793433E-002  0.4554733E+03  0.7546771E-02  0.1026102E+00
         21   -1    0    0  502  501  0.00000000000E+00  0.00000000000E+00  0.44324653063E+03  0.44324653063E+03  0.00000000000E+00 0.  1.
         21   -1    0    0  501  502 -0.00000000000E+00 -0.00000000000E+00 -0.11700933785E+03  0.11700933785E+03  0.00000000000E+00 0.  1.
      99926    2    1    2    0    0  0.00000000000E+00 -0.17763568394E-14  0.32623719278E+03  0.56025586848E+03  0.45547330571E+03 0.  0.
      99925    2    3    3    0    0 -0.63635220531E+02 -0.25509958956E+01  0.32093935085E+03  0.41978692494E+03  0.26298868142E+03 0.  0.
         25    1    3    3    0    0  0.63635220531E+02  0.25509958956E+01  0.52978419325E+01  0.14046894355E+03  0.12509000000E+03 0.  0.
         25    1    4    4    0    0 -0.11445959072E+01 -0.23363559135E+02  0.17734925704E+03  0.21828291978E+03  0.12509000000E+03 0.  0.
         25    1    4    4    0    0 -0.62490624623E+02  0.20812563239E+02  0.14359009381E+03  0.20150400516E+03  0.12509000000E+03 0.  0.
<mgrwt>
<rscale>  2 0.45547331E+03</rscale>
<asrwt>0</asrwt>
<pdfrwt beam="1">  1       21 0.65183313E-01 0.45547331E+03</pdfrwt>
<pdfrwt beam="2">  1       21 0.17207256E-01 0.45547331E+03</pdfrwt>
<totfact> 0.60965280E+04</totfact>
</mgrwt>
</event>
<event>
 7    0  0.4793433E-002  0.4525366E+03  0.7546771E-02  0.1026968E+00
         21   -1    0    0  502  501  0.00000000000E+00  0.00000000000E+00  0.20217398657E+04  0.20217398657E+04  0.00000000000E+00 0.  1.
         21   -1    0    0  501  502 -0.00000000000E+00 -0.00000000000E+00 -0.25323411961E+02  0.25323411961E+02  0.00000000000E+00 0.  1.
      99926    2    1    2    0    0  0.00000000000E+00  0.14210854715E-13  0.19964164537E+04  0.20470632776E+04  0.45253663496E+03 0.  0.
      99925    2    3    3    0    0  0.11298275530E+02  0.10485162560E+03  0.14111091703E+04  0.14393185627E+04  0.26322484684E+03 0.  0.
         25    1    4    4    0    0  0.23757633857E+02  0.31490594124E+02  0.82767758415E+03  0.83800583177E+03  0.12509000000E+03 0.  0.
         25    1    3    3    0    0 -0.11298275530E+02 -0.10485162560E+03  0.58530728337E+03  0.60774471490E+03  0.12509000000E+03 0.  0.
         25    1    4    4    0    0 -0.12459358327E+02  0.73361031471E+02  0.58343158618E+03  0.60131273095E+03  0.12509000000E+03 0.  0.
<mgrwt>
<rscale>  2 0.45253663E+03</rscale>
<asrwt>0</asrwt>
<pdfrwt beam="1">  1       21 0.29731458E+00 0.45253663E+03</pdfrwt>
<pdfrwt beam="2">  1       21 0.37240325E-02 0.45253663E+03</pdfrwt>
<totfact> 0.13207294E+04</totfact>
</mgrwt>
</event>
<event>
 7    0  0.4793433E-002  0.4447143E+03  0.7546771E-02  0.1029310E+00
         21   -1    0    0  502  501  0.00000000000E+00  0.00000000000E+00  0.30858989532E+03  0.30858989532E+03  0.00000000000E+00 0.  1.
         21   -1    0    0  501  502 -0.00000000000E+00 -0.00000000000E+00 -0.16022137756E+03  0.16022137756E+03  0.00000000000E+00 0.  1.
      99926    2    1    2    0    0 -0.14210854715E-13  0.00000000000E+00  0.14836851776E+03  0.46881127288E+03  0.44471428189E+03 0.  0.
      99925    2    3    3    0    0 -0.89211655587E+02 -0.49966313892E+02  0.10998644632E+03  0.30275091179E+03  0.26287971432E+03 0.  0.
         25    1    4    4    0    0 -0.84626811452E+02 -0.13222041300E+02  0.58191279874E+02  0.16238920145E+03  0.12509000000E+03 0.  0.
         25    1    4    4    0    0 -0.45848441343E+01 -0.36744272592E+02  0.51795166446E+02  0.14036171035E+03  0.12509000000E+03 0.  0.
         25    1    3    3    0    0  0.89211655587E+02  0.49966313892E+02  0.38382071436E+02  0.16606036109E+03  0.12509000000E+03 0.  0.
<mgrwt>
<rscale>  2 0.44471428E+03</rscale>
<asrwt>0</asrwt>
<pdfrwt beam="1">  1       21 0.45380867E-01 0.44471428E+03</pdfrwt>
<pdfrwt beam="2">  1       21 0.23561967E-01 0.44471428E+03</pdfrwt>
<totfact> 0.73329167E+04</totfact>
</mgrwt>
</event>
<event>
 7    0  0.4793433E-002  0.4586799E+03  0.7546771E-02  0.1025165E+00
         21   -1    0    0  502  501  0.00000000000E+00  0.00000000000E+00  0.87236363905E+03  0.87236363905E+03  0.00000000000E+00 0. -1.
         21   -1    0    0  501  502 -0.00000000000E+00 -0.00000000000E+00 -0.60292314029E+02  0.60292314029E+02  0.00000000000E+00 0. -1.
      99926    2    1    2    0    0 -0.17763568394E-14  0.00000000000E+00  0.81207132502E+03  0.93265595308E+03  0.45867994276E+03 0.  0.
      99925    2    3    3    0    0 -0.13355699617E+02  0.74711741642E+02  0.68920982482E+03  0.74159921967E+03  0.26305702980E+03 0.  0.
         25    1    4    4    0    0  0.32968404284E+02  0.29161942259E+02  0.31910818241E+03  0.34556457390E+03  0.12509000000E+03 0.  0.
         25    1    4    4    0    0 -0.46324103901E+02  0.45549799383E+02  0.37010164242E+03  0.39603464576E+03  0.12509000000E+03 0.  0.
         25    1    3    3    0    0  0.13355699617E+02 -0.74711741642E+02  0.12286150019E+03  0.19105673341E+03  0.12509000000E+03 0.  0.
<mgrwt>
<rscale>  2 0.45867994E+03</rscale>
<asrwt>0</asrwt>
<pdfrwt beam="1">  1       21 0.12828876E+00 0.45867994E+03</pdfrwt>
<pdfrwt beam="2">  1       21 0.88665173E-02 0.45867994E+03</pdfrwt>
<totfact> 0.40668039E+04</totfact>
</mgrwt>
</event>
<event>
 7    0  0.4793433E-002  0.4529470E+03  0.7546771E-02  0.1026847E+00
         21   -1    0    0  502  501  0.00000000000E+00  0.00000000000E+00  0.24260407790E+03  0.24260407790E+03  0.00000000000E+00 0.  1.
         21   -1    0    0  501  502 -0.00000000000E+00 -0.00000000000E+00 -0.21141540415E+03  0.21141540415E+03  0.00000000000E+00 0.  1.
      99926    2    1    2    0    0  0.00000000000E+00  0.00000000000E+00  0.31188673747E+02  0.45401948205E+03  0.45294696898E+03 0.  0.
      99925    2    3    3    0    0  0.29676023216E+02  0.74736008313E+02 -0.57207560048E+02  0.28102370308E+03  0.26312635648E+03 0.  0.
         25    1    4    4    0    0 -0.14159072437E+02  0.63365459666E+02 -0.16496462480E+02  0.14189891538E+03  0.12509000000E+03 0.  0.
         25    1    4    4    0    0  0.43835095653E+02  0.11370548647E+02 -0.40711097568E+02  0.13912478770E+03  0.12509000000E+03 0.  0.
         25    1    3    3    0    0 -0.29676023216E+02 -0.74736008313E+02  0.88396233796E+02  0.17299577897E+03  0.12509000000E+03 0.  0.
<mgrwt>
<rscale>  2 0.45294697E+03</rscale>
<asrwt>0</asrwt>
<pdfrwt beam="1">  1       21 0.35677070E-01 0.45294697E+03</pdfrwt>
<pdfrwt beam="2">  1       21 0.31090501E-01 0.45294697E+03</pdfrwt>
<totfact> 0.69753343E+04</totfact>
</mgrwt>
</event>
<event>
 7    0  0.4793433E-002  0.4548867E+03  0.7546771E-02  0.1026275E+00
         21   -1    0    0  502  501  0.00000000000E+00  0.00000000000E+00  0.33007870036E+03  0.33007870036E+03  0.00000000000E+00 0. -1.
         21   -1    0    0  501  502 -0.00000000000E+00 -0.00000000000E+00 -0.15672164871E+03  0.15672164871E+03  0.00000000000E+00 0. -1.
      99926    2    1    2    0    0 -0.71054273576E-14  0.00000000000E+00  0.17335705166E+03  0.48680034907E+03  0.45488670292E+03 0.  0.
      99925    2    3    3    0    0 -0.47795310328E+02 -0.37837775432E+02  0.21083846073E+03  0.34268770887E+03  0.26318419472E+03 0.  0.
         25    1    4    4    0    0 -0.64187723512E+02 -0.24312197049E+02  0.10031544882E+03  0.17441858888E+03  0.12509000000E+03 0.  0.
         25    1    4    4    0    0  0.16392413184E+02 -0.13525578383E+02  0.11052301191E+03  0.16826911999E+03  0.12509000000E+03 0.  0.
         25    1    3    3    0    0  0.47795310328E+02  0.37837775432E+02 -0.37481409074E+02  0.14411264020E+03  0.12509000000E+03 0.  0.
<mgrwt>
<rscale>  2 0.45488670E+03</rscale>
<asrwt>0</asrwt>
<pdfrwt beam="1">  1       21 0.48540986E-01 0.45488670E+03</pdfrwt>
<pdfrwt beam="2">  1       21 0.23047301E-01 0.45488670E+03</pdfrwt>
<totfact> 0.66267902E+04</totfact>
</mgrwt>
</event>
<event>
 7    0  0.4793433E-002  0.4568855E+03  0.7546771E-02  0.1025688E+00
         21   -1    0    0  502  501  0.00000000000E+00  0.00000000000E+00  0.23008898787E+03  0.23008898787E+03  0.00000000000E+00 0.  1.
         21   -1    0    0  501  502 -0.00000000000E+00 -0.00000000000E+00 -0.22680824453E+03  0.22680824453E+03  0.00000000000E+00 0.  1.
      99926    2    1    2    0    0  0.71054273576E-14  0.00000000000E+00  0.32807433412E+01  0.45689723240E+03  0.45688545358E+03 0.  0.
      99925    2    3    3    0    0 -0.37918245418E+02  0.10799828342E+03  0.11544467715E+02  0.28714087818E+03  0.26308779263E+03 0.  0.
         25    1    3    3    0    0  0.37918245418E+02 -0.10799828342E+03 -0.82637243741E+01  0.16975635422E+03  0.12509000000E+03 0.  0.
         25    1    4    4    0    0 -0.40183074187E+02  0.50463895382E+02  0.40435649905E+02  0.14643713351E+03  0.12509000000E+03 0.  0.
         25    1    4    4    0    0  0.22648287690E+01  0.57534388033E+02 -0.28891182189E+02  0.14070374467E+03  0.12509000000E+03 0.  0.
<mgrwt>
<rscale>  2 0.45688545E+03</rscale>
<asrwt>0</asrwt>
<pdfrwt beam="1">  1       21 0.33836616E-01 0.45688545E+03</pdfrwt>
<pdfrwt beam="2">  1       21 0.33354153E-01 0.45688545E+03</pdfrwt>
<totfact> 0.67387528E+04</totfact>
</mgrwt>
</event>
<event>
 7    0  0.4793433E-002  0.4413616E+03  0.7546771E-02  0.1030330E+00
         21   -1    0    0  502  501  0.00000000000E+00  0.00000000000E+00  0.51553729873E+03  0.51553729873E+03  0.00000000000E+00 0.  1.
         21   -1    0    0  501  502 -0.00000000000E+00 -0.00000000000E+00 -0.94464580457E+02  0.94464580457E+02  0.00000000000E+00 0.  1.
      99926    2    1    2    0    0  0.00000000000E+00  0.00000000000E+00  0.42107271828E+03  0.61000187919E+03  0.44136159613E+03 0.  0.
      99925    2    3    3    0    0  0.43824125823E+02  0.47888092662E+02  0.16366286663E+03  0.31653780431E+03  0.26305289244E+03 0.  0.
         25    1    4    4    0    0  0.24543084390E+02  0.37829208845E+02  0.38926942556E+02  0.13855044926E+03  0.12509000000E+03 0.  0.
         25    1    4    4    0    0  0.19281041433E+02  0.10058883817E+02  0.12473592407E+03  0.17798735505E+03  0.12509000000E+03 0.  0.
         25    1    3    3    0    0 -0.43824125823E+02 -0.47888092662E+02  0.25740985165E+03  0.29346407488E+03  0.12509000000E+03 0.  0.
<mgrwt>
<rscale>  2 0.44136160E+03</rscale>
<asrwt>0</asrwt>
<pdfrwt beam="1">  1       21 0.75814308E-01 0.44136160E+03</pdfrwt>
<pdfrwt beam="2">  1       21 0.13891850E-01 0.44136160E+03</pdfrwt>
<totfact> 0.64766592E+04</totfact>
</mgrwt>
</event>
<event>
 7    0  0.4793433E-002  0.4509840E+03  0.7546771E-02  0.1027429E+00
         21   -1    0    0  502  501  0.00000000000E+00  0.00000000000E+00  0.18526504341E+03  0.18526504341E+03  0.00000000000E+00 0. -1.
         21   -1    0    0  501  502 -0.00000000000E+00 -0.00000000000E+00 -0.27445350690E+03  0.27445350690E+03  0.00000000000E+00 0. -1.
      99926    2    1    2    0    0  0.71054273576E-14  0.14210854715E-13 -0.89188463486E+02  0.45971855031E+03  0.45098399470E+03 0.  0.
      99925    2    3    3    0    0 -0.40657332224E+02 -0.97841795469E+02 -0.28715394415E+02  0.28498865651E+03  0.26299795599E+03 0.  0.
         25    1    4    4    0    0 -0.88495557526E+00 -0.99213494243E+01 -0.15790333177E+02  0.12647552745E+03  0.12509000000E+03 0.  0.
         25    1    4    4    0    0 -0.39772376649E+02 -0.87920446045E+02 -0.12925061238E+02  0.15851312906E+03  0.12509000000E+03 0.  0.
         25    1    3    3    0    0  0.40657332224E+02  0.97841795469E+02 -0.60473069071E+02  0.17472989380E+03  0.12509000000E+03 0.  0.
<mgrwt>
<rscale>  2 0.45098399E+03</rscale>
<asrwt>0</asrwt>
<pdfrwt beam="1">  1       21 0.27244859E-01 0.45098399E+03</pdfrwt>
<pdfrwt beam="2">  1       21 0.40360810E-01 0.45098399E+03</pdfrwt>
<totfact> 0.70425653E+04</totfact>
</mgrwt>
</event>
<event>
 7    0  0.4793433E-002  0.4548836E+03  0.7546771E-02  0.1026276E+00
         21   -1    0    0  502  501  0.00000000000E+00  0.00000000000E+00  0.13884659346E+03  0.13884659346E+03  0.00000000000E+00 0. -1.
         21   -1    0    0  501  502 -0.00000000000E+00 -0.00000000000E+00 -0.37256781768E+03  0.37256781768E+03  0.00000000000E+00 0. -1.
      99926    2    1    2    0    0  0.00000000000E+00  0.17763568394E-14 -0.23372122422E+03  0.51141441115E+03  0.45488359970E+03 0.  0.
      99925    2    3    3    0    0  0.19943850602E+02 -0.96658831126E+01 -0.22433349366E+02  0.26487585304E+03  0.26299196924E+03 0.  0.
         25    1    4    4    0    0 -0.54943763086E+00  0.15019550564E+02 -0.44990496819E+02  0.13378169413E+03  0.12509000000E+03 0.  0.
         25    1    4    4    0    0  0.20493288233E+02 -0.24685433676E+02  0.22557147453E+02  0.13109415891E+03  0.12509000000E+03 0.  0.
         25    1    3    3    0    0 -0.19943850602E+02  0.96658831126E+01 -0.21128787485E+03  0.24653855811E+03  0.12509000000E+03 0.  0.
<mgrwt>
<rscale>  2 0.45488360E+03</rscale>
<asrwt>0</asrwt>
<pdfrwt beam="1">  1       21 0.20418617E-01 0.45488360E+03</pdfrwt>
<pdfrwt beam="2">  1       21 0.54789385E-01 0.45488360E+03</pdfrwt>
<totfact> 0.64535569E+04</totfact>
</mgrwt>
</event>
<event>
 7    0  0.4793433E-002  0.4454660E+03  0.7546771E-02  0.1029083E+00
         21   -1    0    0  502  501  0.00000000000E+00  0.00000000000E+00  0.30268964129E+03  0.30268964129E+03  0.00000000000E+00 0. -1.
         21   -1    0    0  501  502 -0.00000000000E+00 -0.00000000000E+00 -0.16389719590E+03  0.16389719590E+03  0.00000000000E+00 0. -1.
      99926    2    1    2    0    0  0.00000000000E+00 -0.71054273576E-14  0.13879244539E+03  0.46658683719E+03  0.44546597371E+03 0.  0.
      99925    2    3    3    0    0  0.26118222006E+01 -0.44978524342E+02 -0.10050840216E+02  0.26700797799E+03  0.26298736025E+03 0.  0.
         25    1    4    4    0    0  0.16501025858E+02  0.14150512096E+02 -0.15103672284E+02  0.12785988371E+03  0.12509000000E+03 0.  0.
         25    1    3    3    0    0 -0.26118222006E+01  0.44978524342E+02  0.14884328561E+03  0.19957885920E+03  0.12509000000E+03 0.  0.
         25    1    4    4    0    0 -0.13889203657E+02 -0.59129036438E+02  0.50528320676E+01  0.13914809427E+03  0.12509000000E+03 0.  0.
<mgrwt>
<rscale>  2 0.44546597E+03</rscale>
<asrwt>0</asrwt>
<pdfrwt beam="1">  1       21 0.44513182E-01 0.44546597E+03</pdfrwt>
<pdfrwt beam="2">  1       21 0.24102529E-01 0.44546597E+03</pdfrwt>
<totfact> 0.73062887E+04</totfact>
</mgrwt>
</event>
<event>
 7    0  0.4793433E-002  0.4521845E+03  0.7546771E-02  0.1027073E+00
         21   -1    0    0  502  501  0.00000000000E+00  0.00000000000E+00  0.71316682829E+03  0.71316682829E+03  0.00000000000E+00 0. -1.
         21   -1    0    0  501  502 -0.00000000000E+00 -0.00000000000E+00 -0.71677074344E+02  0.71677074344E+02  0.00000000000E+00 0. -1.
      99926    2    1    2    0    0  0.00000000000E+00  0.00000000000E+00  0.64148975394E+03  0.78484390263E+03  0.45218452769E+03 0.  0.
      99925    2    3    3    0    0  0.27683852031E+02 -0.99575167746E+02  0.33653682038E+03  0.43940880094E+03  0.26294762439E+03 0.  0.
         25    1    3    3    0    0 -0.27683852031E+02  0.99575167746E+02  0.30495293356E+03  0.34543510169E+03  0.12509000000E+03 0.  0.
         25    1    4    4    0    0  0.10328745426E+02 -0.11494586984E+02  0.12265653994E+03  0.17587195172E+03  0.12509000000E+03 0.  0.
         25    1    4    4    0    0  0.17355106604E+02 -0.88080580761E+02  0.21388028044E+03  0.26353684922E+03  0.12509000000E+03 0.  0.
<mgrwt>
<rscale>  2 0.45218453E+03</rscale>
<asrwt>0</asrwt>
<pdfrwt beam="1">  1       21 0.10487747E+00 0.45218453E+03</pdfrwt>
<pdfrwt beam="2">  1       21 0.10540747E-01 0.45218453E+03</pdfrwt>
<totfact> 0.49593544E+04</totfact>
</mgrwt>
</event>
<event>
 7    0  0.4793433E-002  0.4543168E+03  0.7546771E-02  0.1026442E+00
         21   -1    0    0  502  501  0.00000000000E+00  0.00000000000E+00  0.10426410448E+04  0.10426410448E+04  0.00000000000E+00 0. -1.
         21   -1    0    0  501  502 -0.00000000000E+00 -0.00000000000E+00 -0.49490611018E+02  0.49490611018E+02  0.00000000000E+00 0. -1.
      99926    2    1    2    0    0  0.00000000000E+00  0.14210854715E-13  0.99315043377E+03  0.10921316558E+04  0.45431681624E+03 0.  0.
      99925    2    3    3    0    0 -0.64715831057E+02 -0.89871175625E+02  0.67425289489E+03  0.73212038459E+03  0.26290364066E+03 0.  0.
         25    1    4    4    0    0  0.17780080154E+01 -0.22255396857E+02  0.26807516025E+03  0.29666523835E+03  0.12509000000E+03 0.  0.
         25    1    3    3    0    0  0.64715831057E+02  0.89871175625E+02  0.31889753888E+03  0.36001127122E+03  0.12509000000E+03 0.  0.
         25    1    4    4    0    0 -0.66493839073E+02 -0.67615778768E+02  0.40617773464E+03  0.43545514624E+03  0.12509000000E+03 0.  0.
<mgrwt>
<rscale>  2 0.45431682E+03</rscale>
<asrwt>0</asrwt>
<pdfrwt beam="1">  1       21 0.15332955E+00 0.45431682E+03</pdfrwt>
<pdfrwt beam="2">  1       21 0.72780316E-02 0.45431682E+03</pdfrwt>
<totfact> 0.35959581E+04</totfact>
</mgrwt>
</event>
<event>
 7    0  0.4793433E-002  0.4549243E+03  0.7546771E-02  0.1026264E+00
         21   -1    0    0  502  501  0.00000000000E+00  0.00000000000E+00  0.12323595519E+03  0.12323595519E+03  0.00000000000E+00 0. -1.
         21   -1    0    0  501  502 -0.00000000000E+00 -0.00000000000E+00 -0.41983712012E+03  0.41983712012E+03  0.00000000000E+00 0. -1.
      99926    2    1    2    0    0  0.00000000000E+00 -0.17763568394E-14 -0.29660116493E+03  0.54307307531E+03  0.45492429489E+03 0.  0.
      99925    2    3    3    0    0 -0.80868479903E+02 -0.64658338277E+01 -0.92740245701E+02  0.29050961687E+03  0.26308471311E+03 0.  0.
         25    1    3    3    0    0  0.80868479903E+02  0.64658338277E+01 -0.20386091923E+03  0.25256345844E+03  0.12509000000E+03 0.  0.
         25    1    4    4    0    0 -0.36515825961E+02  0.36503075945E+02 -0.54235709170E+02  0.14579060446E+03  0.12509000000E+03 0.  0.
         25    1    4    4    0    0 -0.44352653943E+02 -0.42968909773E+02 -0.38504536531E+02  0.14471901241E+03  0.12509000000E+03 0.  0.
<mgrwt>
<rscale>  2 0.45492429E+03</rscale>
<asrwt>0</asrwt>
<pdfrwt beam="1">  1       21 0.18122934E-01 0.45492429E+03</pdfrwt>
<pdfrwt beam="2">  1       21 0.61740753E-01 0.45492429E+03</pdfrwt>
<totfact> 0.62363935E+04</totfact>
</mgrwt>
</event>
<event>
 7    0  0.4793433E-002  0.4602563E+03  0.7546771E-02  0.1024707E+00
         21   -1    0    0  502  501  0.00000000000E+00  0.00000000000E+00  0.12861499465E+03  0.12861499465E+03  0.00000000000E+00 0. -1.
         21   -1    0    0  501  502 -0.00000000000E+00 -0.00000000000E+00 -0.41176349930E+03  0.41176349930E+03  0.00000000000E+00 0. -1.
      99926    2    1    2    0    0  0.71054273576E-14  0.00000000000E+00 -0.28314850465E+03  0.54037849395E+03  0.46025627757E+03 0.  0.
      99925    2    3    3    0    0  0.51918831573E+02  0.27818524673E+02 -0.56960598704E+02  0.27527867825E+03  0.26280107593E+03 0.  0.
         25    1    4    4    0    0  0.49104611594E+02 -0.18670558807E+02 -0.23847642277E+02  0.13775365980E+03  0.12509000000E+03 0.  0.
         25    1    3    3    0    0 -0.51918831573E+02 -0.27818524673E+02 -0.22618790595E+03  0.26509981570E+03  0.12509000000E+03 0.  0.
         25    1    4    4    0    0  0.28142199794E+01  0.46489083479E+02 -0.33112956427E+02  0.13752501845E+03  0.12509000000E+03 0.  0.
<mgrwt>
<rscale>  2 0.46025628E+03</rscale>
<asrwt>0</asrwt>
<pdfrwt beam="1">  1       21 0.18913970E-01 0.46025628E+03</pdfrwt>
<pdfrwt beam="2">  1       21 0.60553455E-01 0.46025628E+03</pdfrwt>
<totfact> 0.59972015E+04</totfact>
</mgrwt>
</event>
<event>
 7    0  0.4793433E-002  0.4505253E+03  0.7546771E-02  0.1027566E+00
         21   -1    0    0  502  501  0.00000000000E+00  0.00000000000E+00  0.18269527069E+03  0.18269527069E+03  0.00000000000E+00 0. -1.
         21   -1    0    0  501  502 -0.00000000000E+00 -0.00000000000E+00 -0.27774802821E+03  0.27774802821E+03  0.00000000000E+00 0. -1.
      99926    2    1    2    0    0  0.00000000000E+00  0.00000000000E+00 -0.95052757514E+02  0.46044329890E+03  0.45052525433E+03 0.  0.
      99925    2    3    3    0    0 -0.10455732258E+03  0.23351244566E+02 -0.80215887330E+02  0.29507959325E+03  0.26298262955E+03 0.  0.
         25    1    3    3    0    0  0.10455732258E+03 -0.23351244566E+02 -0.14836870184E+02  0.16536370565E+03  0.12509000000E+03 0.  0.
         25    1    4    4    0    0 -0.88890128375E+02 -0.41487682834E+00 -0.25286720914E+02  0.15552669674E+03  0.12509000000E+03 0.  0.
         25    1    4    4    0    0 -0.15667194204E+02  0.23766121395E+02 -0.54929166416E+02  0.13955289651E+03  0.12509000000E+03 0.  0.
<mgrwt>
<rscale>  2 0.45052525E+03</rscale>
<asrwt>0</asrwt>
<pdfrwt beam="1">  1       21 0.26866952E-01 0.45052525E+03</pdfrwt>
<pdfrwt beam="2">  1       21 0.40845297E-01 0.45052525E+03</pdfrwt>
<totfact> 0.70627525E+04</totfact>
</mgrwt>
</event>
<event>
 7    0  0.4793433E-002  0.4787829E+03  0.7546771E-02  0.1019470E+00
         21   -1    0    0  502  501  0.00000000000E+00  0.00000000000E+00  0.28462875823E+03  0.28462875823E+03  0.00000000000E+00 0. -1.
         21   -1    0    0  501  502 -0.00000000000E+00 -0.00000000000E+00 -0.20134389822E+03  0.20134389822E+03  0.00000000000E+00 0. -1.
      99926    2    1    2    0    0 -0.14210854715E-13  0.00000000000E+00  0.83284860008E+02  0.48597265646E+03  0.47878288912E+03 0.  0.
      99925    2    3    3    0    0  0.11524795187E+03 -0.60607361071E+02  0.84627665962E+02  0.30540506840E+03  0.26297351831E+03 0.  0.
         25    1    4    4    0    0  0.61964559436E+02 -0.27900183065E+02  0.79727314068E+00  0.14235930102E+03  0.12509000000E+03 0.  0.
         25    1    3    3    0    0 -0.11524795187E+03  0.60607361071E+02 -0.13428059542E+01  0.18056758805E+03  0.12509000000E+03 0.  0.
         25    1    4    4    0    0  0.53283392439E+02 -0.32707178006E+02  0.83830392822E+02  0.16304576739E+03  0.12509000000E+03 0.  0.
<mgrwt>
<rscale>  2 0.47878289E+03</rscale>
<asrwt>0</asrwt>
<pdfrwt beam="1">  1       21 0.41857170E-01 0.47878289E+03</pdfrwt>
<pdfrwt beam="2">  1       21 0.29609397E-01 0.47878289E+03</pdfrwt>
<totfact> 0.55103008E+04</totfact>
</mgrwt>
</event>
<event>
 7    0  0.4793433E-002  0.4575764E+03  0.7546771E-02  0.1025486E+00
         21   -1    0    0  502  501  0.00000000000E+00  0.00000000000E+00  0.13591713633E+03  0.13591713633E+03  0.00000000000E+00 0.  1.
         21   -1    0    0  501  502 -0.00000000000E+00 -0.00000000000E+00 -0.38511727140E+03  0.38511727140E+03  0.00000000000E+00 0.  1.
      99926    2    1    2    0    0  0.22204460493E-14  0.00000000000E+00 -0.24920013507E+03  0.52103440773E+03  0.45757638348E+03 0.  0.
      99925    2    3    3    0    0  0.26120334645E+01 -0.11547113698E+03 -0.16024630035E+03  0.32893886118E+03  0.26302374688E+03 0.  0.
         25    1    3    3    0    0 -0.26120334645E+01  0.11547113698E+03 -0.88953834716E+02  0.19209554655E+03  0.12509000000E+03 0.  0.
         25    1    4    4    0    0 -0.27163773494E+02 -0.88803843564E+02 -0.81616116148E+02  0.17587692213E+03  0.12509000000E+03 0.  0.
         25    1    4    4    0    0  0.29775806958E+02 -0.26667293415E+02 -0.78630184203E+02  0.15306193905E+03  0.12509000000E+03 0.  0.
<mgrwt>
<rscale>  2 0.45757638E+03</rscale>
<asrwt>0</asrwt>
<pdfrwt beam="1">  1       21 0.19987815E-01 0.45757638E+03</pdfrwt>
<pdfrwt beam="2">  1       21 0.56634891E-01 0.45757638E+03</pdfrwt>
<totfact> 0.62528894E+04</totfact>
</mgrwt>
</event>
<event>
 7    0  0.4793433E-002  0.4445009E+03  0.7546771E-02  0.1029375E+00
         21   -1    0    0  502  501  0.00000000000E+00  0.00000000000E+00  0.11979268958E+03  0.11979268958E+03  0.00000000000E+00 0. -1.
         21   -1    0    0  501  502 -0.00000000000E+00 -0.00000000000E+00 -0.41233956063E+03  0.41233956063E+03  0.00000000000E+00 0. -1.
      99926    2    1    2    0    0  0.71054273576E-14  0.71054273576E-14 -0.29254687105E+03  0.53213225021E+03  0.44450091108E+03 0.  0.
      99925    2    3    3    0    0 -0.35302028606E+02 -0.52359165997E+02 -0.28296350845E+03  0.39167918180E+03  0.26335625842E+03 0.  0.
         25    1    4    4    0    0 -0.48683739066E+02 -0.54608348001E+02 -0.14656014340E+03  0.20610570553E+03  0.12509000000E+03 0.  0.
         25    1    4    4    0    0  0.13381710460E+02  0.22491820038E+01 -0.13640336505E+03  0.18557347626E+03  0.12509000000E+03 0.  0.
         25    1    3    3    0    0  0.35302028606E+02  0.52359165997E+02 -0.95833625988E+01  0.14045306841E+03  0.12509000000E+03 0.  0.
<mgrwt>
<rscale>  2 0.44450091E+03</rscale>
<asrwt>0</asrwt>
<pdfrwt beam="1">  1       21 0.17616572E-01 0.44450091E+03</pdfrwt>
<pdfrwt beam="2">  1       21 0.60638169E-01 0.44450091E+03</pdfrwt>
<totfact> 0.68587561E+04</totfact>
</mgrwt>
</event>
<event>
 7    0  0.4793433E-002  0.4550938E+03  0.7546771E-02  0.1026214E+00
         21   -1    0    0  502  501  0.00000000000E+00  0.00000000000E+00  0.23051235510E+03  0.23051235510E+03  0.00000000000E+00 0.  1.
         21   -1    0    0  501  502 -0.00000000000E+00 -0.00000000000E+00 -0.22461960358E+03  0.22461960358E+03  0.00000000000E+00 0.  1.
      99926    2    1    2    0    0  0.00000000000E+00 -0.17763568394E-14  0.58927515153E+01  0.45513195868E+03  0.45509380933E+03 0.  0.
      99925    2    3    3    0    0  0.11166112434E+03  0.12667023153E+02 -0.10583542072E+02  0.28617150025E+03  0.26297044706E+03 0.  0.
         25    1    4    4    0    0  0.49914194397E+02 -0.29328276929E+02  0.13552376717E+02  0.13850180376E+03  0.12509000000E+03 0.  0.
         25    1    3    3    0    0 -0.11166112434E+03 -0.12667023153E+02  0.16476293587E+02  0.16896045843E+03  0.12509000000E+03 0.  0.
         25    1    4    4    0    0  0.61746929939E+02  0.41995300082E+02 -0.24135918788E+02  0.14766969649E+03  0.12509000000E+03 0.  0.
<mgrwt>
<rscale>  2 0.45509381E+03</rscale>
<asrwt>0</asrwt>
<pdfrwt beam="1">  1       21 0.33898876E-01 0.45509381E+03</pdfrwt>
<pdfrwt beam="2">  1       21 0.33032295E-01 0.45509381E+03</pdfrwt>
<totfact> 0.68484850E+04</totfact>
</mgrwt>
</event>
<event>
 7    0  0.4793433E-002  0.4212176E+03  0.7546771E-02  0.1036671E+00
         21   -1    0    0  502  501  0.00000000000E+00  0.00000000000E+00  0.17788750784E+03  0.17788750784E+03  0.00000000000E+00 0.  1.
         21   -1    0    0  501  502 -0.00000000000E+00 -0.00000000000E+00 -0.24934895833E+03  0.24934895833E+03  0.00000000000E+00 0.  1.
      99926    2    1    2    0    0  0.00000000000E+00 -0.22204460493E-15 -0.71461450495E+02  0.42723646617E+03  0.42121759117E+03 0.  0.
      99925    2    3    3    0    0 -0.71302507565E+02 -0.87853709037E+00 -0.16361260757E+02  0.27306656501E+03  0.26308333026E+03 0.  0.
         25    1    4    4    0    0 -0.45446706339E+02 -0.24957602273E+02 -0.39468873550E+02  0.14104462098E+03  0.12509000000E+03 0.  0.
         25    1    3    3    0    0  0.71302507565E+02  0.87853709037E+00 -0.55100189737E+02  0.15416990115E+03  0.12509000000E+03 0.  0.
         25    1    4    4    0    0 -0.25855801226E+02  0.24079065183E+02  0.23107612793E+02  0.13202194403E+03  0.12509000000E+03 0.  0.
<mgrwt>
<rscale>  2 0.42121759E+03</rscale>
<asrwt>0</asrwt>
<pdfrwt beam="1">  1       21 0.26159928E-01 0.42121759E+03</pdfrwt>
<pdfrwt beam="2">  1       21 0.36668964E-01 0.42121759E+03</pdfrwt>
<totfact> 0.93360366E+04</totfact>
</mgrwt>
</event>
<event>
 7    0  0.4793433E-002  0.4568091E+03  0.7546771E-02  0.1025711E+00
         21   -1    0    0  502  501  0.00000000000E+00  0.00000000000E+00  0.10289612835E+04  0.10289612835E+04  0.00000000000E+00 0.  1.
         21   -1    0    0  501  502 -0.00000000000E+00 -0.00000000000E+00 -0.50700295477E+02  0.50700295477E+02  0.00000000000E+00 0.  1.
      99926    2    1    2    0    0 -0.35527136788E-14  0.00000000000E+00  0.97826098799E+03  0.10796615789E+04  0.45680911158E+03 0.  0.
      99925    2    3    3    0    0 -0.18405392861E+02  0.90692579859E+02  0.77541249298E+03  0.82400766727E+03  0.26298326737E+03 0.  0.
         25    1    3    3    0    0  0.18405392861E+02 -0.90692579859E+02  0.20284849501E+03  0.25565391168E+03  0.12509000000E+03 0.  0.
         25    1    4    4    0    0 -0.31355622032E+02  0.11879369872E+02  0.32903814681E+03  0.35360699176E+03  0.12509000000E+03 0.  0.
         25    1    4    4    0    0  0.12950229171E+02  0.78813209988E+02  0.44637434617E+03  0.47040067551E+03  0.12509000000E+03 0.  0.
<mgrwt>
<rscale>  2 0.45680911E+03</rscale>
<asrwt>0</asrwt>
<pdfrwt beam="1">  1       21 0.15131782E+00 0.45680911E+03</pdfrwt>
<pdfrwt beam="2">  1       21 0.74559264E-02 0.45680911E+03</pdfrwt>
<totfact> 0.35700856E+04</totfact>
</mgrwt>
</event>
<event>
 7    0  0.4793433E-002  0.4542823E+03  0.7546771E-02  0.1026453E+00
         21   -1    0    0  502  501  0.00000000000E+00  0.00000000000E+00  0.13036573616E+03  0.13036573616E+03  0.00000000000E+00 0.  1.
         21   -1    0    0  501  502 -0.00000000000E+00 -0.00000000000E+00 -0.39575662074E+03  0.39575662074E+03  0.00000000000E+00 0.  1.
      99926    2    1    2    0    0  0.00000000000E+00 -0.71054273576E-14 -0.26539088459E+03  0.52612235690E+03  0.45428230520E+03 0.  0.
      99925    2    3    3    0    0 -0.69183970571E+02  0.51324278275E+02 -0.25098713866E+03  0.37355899524E+03  0.26292808110E+03 0.  0.
         25    1    4    4    0    0 -0.22057862504E+02  0.64305346815E+02 -0.12769980536E+03  0.19124977207E+03  0.12509000000E+03 0.  0.
         25    1    3    3    0    0  0.69183970571E+02 -0.51324278275E+02 -0.14403745922E+02  0.15256336166E+03  0.12509000000E+03 0.  0.
         25    1    4    4    0    0 -0.47126108067E+02 -0.12981068540E+02 -0.12328733331E+03  0.18230922318E+03  0.12509000000E+03 0.  0.
<mgrwt>
<rscale>  2 0.45428231E+03</rscale>
<asrwt>0</asrwt>
<pdfrwt beam="1">  1       21 0.19171432E-01 0.45428231E+03</pdfrwt>
<pdfrwt beam="2">  1       21 0.58199503E-01 0.45428231E+03</pdfrwt>
<totfact> 0.63832163E+04</totfact>
</mgrwt>
</event>
<event>
 7    0  0.4793433E-002  0.4534954E+03  0.7546771E-02  0.1026685E+00
         21   -1    0    0  502  501  0.00000000000E+00  0.00000000000E+00  0.79154021195E+03  0.79154021195E+03  0.00000000000E+00 0.  1.
         21   -1    0    0  501  502 -0.00000000000E+00 -0.00000000000E+00 -0.64955041876E+02  0.64955041876E+02  0.00000000000E+00 0.  1.
      99926    2    1    2    0    0  0.00000000000E+00  0.00000000000E+00  0.72658517008E+03  0.85649525383E+03  0.45349543598E+03 0.  0.
      99925    2    3    3    0    0  0.87588500985E+02 -0.51523222931E+02  0.36991835606E+03  0.46510655659E+03  0.26297933536E+03 0.  0.
         25    1    3    3    0    0 -0.87588500985E+02  0.51523222931E+02  0.35666681402E+03  0.39138869724E+03  0.12509000000E+03 0.  0.
         25    1    4    4    0    0  0.46296447694E+02  0.13326948560E+02  0.15651099732E+03  0.20606836004E+03  0.12509000000E+03 0.  0.
         25    1    4    4    0    0  0.41292053291E+02 -0.64850171491E+02  0.21340735874E+03  0.25903819655E+03  0.12509000000E+03 0.  0.
<mgrwt>
<rscale>  2 0.45349544E+03</rscale>
<asrwt>0</asrwt>
<pdfrwt beam="1">  1       21 0.11640297E+00 0.45349544E+03</pdfrwt>
<pdfrwt beam="2">  1       21 0.95522125E-02 0.45349544E+03</pdfrwt>
<totfact> 0.45686993E+04</totfact>
</mgrwt>
</event>
<event>
 7    0  0.4793433E-002  0.4558657E+03  0.7546771E-02  0.1025987E+00
         21   -1    0    0  502  501  0.00000000000E+00  0.00000000000E+00  0.81587096968E+03  0.81587096968E+03  0.00000000000E+00 0. -1.
         21   -1    0    0  501  502 -0.00000000000E+00 -0.00000000000E+00 -0.63678432809E+02  0.63678432809E+02  0.00000000000E+00 0. -1.
      99926    2    1    2    0    0 -0.71054273576E-14  0.00000000000E+00  0.75219253687E+03  0.87954940248E+03  0.45586570269E+03 0.  0.
      99925    2    3    3    0    0  0.37025031790E+02  0.76572054473E+02  0.61980040766E+03  0.67852871578E+03  0.26270618627E+03 0.  0.
         25    1    4    4    0    0  0.28648686785E+02  0.78673917320E+02  0.35153187226E+03  0.38240357979E+03  0.12509000000E+03 0.  0.
         25    1    4    4    0    0  0.83763450055E+01 -0.21018628467E+01  0.26826853540E+03  0.29612513599E+03  0.12509000000E+03 0.  0.
         25    1    3    3    0    0 -0.37025031790E+02 -0.76572054473E+02  0.13239212921E+03  0.20102068670E+03  0.12509000000E+03 0.  0.
<mgrwt>
<rscale>  2 0.45586570E+03</rscale>
<asrwt>0</asrwt>
<pdfrwt beam="1">  1       21 0.11998102E+00 0.45586570E+03</pdfrwt>
<pdfrwt beam="2">  1       21 0.93644759E-02 0.45586570E+03</pdfrwt>
<totfact> 0.43831802E+04</totfact>
</mgrwt>
</event>
<event>
 7    0  0.4793433E-002  0.4575384E+03  0.7546771E-02  0.1025498E+00
         21   -1    0    0  502  501  0.00000000000E+00  0.00000000000E+00  0.68367450991E+03  0.68367450991E+03  0.00000000000E+00 0.  1.
         21   -1    0    0  501  502 -0.00000000000E+00 -0.00000000000E+00 -0.76550087366E+02  0.76550087366E+02  0.00000000000E+00 0.  1.
      99926    2    1    2    0    0  0.14210854715E-13  0.00000000000E+00  0.60712442254E+03  0.76022459727E+03  0.45753838511E+03 0.  0.
      99925    2    3    3    0    0 -0.87482642265E+02  0.19561822367E+02  0.25925561430E+03  0.37983520016E+03  0.26272690791E+03 0.  0.
         25    1    4    4    0    0 -0.20605868667E+02 -0.77098067047E+00  0.16596944732E+03  0.20885057285E+03  0.12509000000E+03 0.  0.
         25    1    4    4    0    0 -0.66876773598E+02  0.20332803038E+02  0.93286166982E+02  0.17098462731E+03  0.12509000000E+03 0.  0.
         25    1    3    3    0    0  0.87482642265E+02 -0.19561822367E+02  0.34786880824E+03  0.38038939711E+03  0.12509000000E+03 0.  0.
<mgrwt>
<rscale>  2 0.45753839E+03</rscale>
<asrwt>0</asrwt>
<pdfrwt beam="1">  1       21 0.10054037E+00 0.45753839E+03</pdfrwt>
<pdfrwt beam="2">  1       21 0.11257366E-01 0.45753839E+03</pdfrwt>
<totfact> 0.48769193E+04</totfact>
</mgrwt>
</event>
<event>
 7    0  0.4793433E-002  0.4554621E+03  0.7546771E-02  0.1026106E+00
         21   -1    0    0  502  501  0.00000000000E+00  0.00000000000E+00  0.58976560431E+03  0.58976560431E+03  0.00000000000E+00 0.  1.
         21   -1    0    0  501  502 -0.00000000000E+00 -0.00000000000E+00 -0.87935652644E+02  0.87935652644E+02  0.00000000000E+00 0.  1.
      99926    2    1    2    0    0  0.00000000000E+00  0.00000000000E+00  0.50182995167E+03  0.67770125696E+03  0.45546206570E+03 0.  0.
      99925    2    3    3    0    0  0.41391043053E+02 -0.78048080832E+02  0.20834747195E+03  0.34666622049E+03  0.26261012546E+03 0.  0.
         25    1    3    3    0    0 -0.41391043053E+02  0.78048080832E+02  0.29348247972E+03  0.33103503647E+03  0.12509000000E+03 0.  0.
         25    1    4    4    0    0 -0.60422534775E+01 -0.56193067700E+02  0.74556950390E+02  0.15620632713E+03  0.12509000000E+03 0.  0.
         25    1    4    4    0    0  0.47433296530E+02 -0.21855013132E+02  0.13379052156E+03  0.19045989336E+03  0.12509000000E+03 0.  0.
<mgrwt>
<rscale>  2 0.45546207E+03</rscale>
<asrwt>0</asrwt>
<pdfrwt beam="1">  1       21 0.86730234E-01 0.45546207E+03</pdfrwt>
<pdfrwt beam="2">  1       21 0.12931714E-01 0.45546207E+03</pdfrwt>
<totfact> 0.53934374E+04</totfact>
</mgrwt>
</event>
<event>
 7    0  0.4793433E-002  0.4387169E+03  0.7546771E-02  0.1031141E+00
         21   -1    0    0  502  501  0.00000000000E+00  0.00000000000E+00  0.96108737163E+03  0.96108737163E+03  0.00000000000E+00 0. -1.
         21   -1    0    0  501  502 -0.00000000000E+00 -0.00000000000E+00 -0.50066351776E+02  0.50066351776E+02  0.00000000000E+00 0. -1.
      99926    2    1    2    0    0  0.00000000000E+00  0.35527136788E-14  0.91102101985E+03  0.10111537234E+04  0.43871694034E+03 0.  0.
      99925    2    3    3    0    0  0.92751861635E+02  0.27037806581E+02  0.55885309008E+03  0.62514373690E+03  0.26297141417E+03 0.  0.
         25    1    4    4    0    0  0.73295500805E+02 -0.16247830324E+02  0.30970307111E+03  0.34234445050E+03  0.12509000000E+03 0.  0.
         25    1    4    4    0    0  0.19456360829E+02  0.43285636905E+02  0.24915001897E+03  0.28279928641E+03  0.12509000000E+03 0.  0.
         25    1    3    3    0    0 -0.92751861635E+02 -0.27037806581E+02  0.35216792977E+03  0.38600998650E+03  0.12509000000E+03 0.  0.
<mgrwt>
<rscale>  2 0.43871694E+03</rscale>
<asrwt>0</asrwt>
<pdfrwt beam="1">  1       21 0.14133637E+00 0.43871694E+03</pdfrwt>
<pdfrwt beam="2">  1       21 0.73626994E-02 0.43871694E+03</pdfrwt>
<totfact> 0.44079213E+04</totfact>
</mgrwt>
</event>
<event>
 7    0  0.4793433E-002  0.4535764E+03  0.7546771E-02  0.1026661E+00
         21   -1    0    0  502  501  0.00000000000E+00  0.00000000000E+00  0.10152305960E+03  0.10152305960E+03  0.00000000000E+00 0.  1.
         21   -1    0    0  501  502 -0.00000000000E+00 -0.00000000000E+00 -0.50661283416E+03  0.50661283416E+03  0.00000000000E+00 0.  1.
      99926    2    1    2    0    0  0.14210854715E-13  0.00000000000E+00 -0.40508977456E+03  0.60813589376E+03  0.45357638808E+03 0.  0.
      99925    2    3    3    0    0  0.89396922976E+02 -0.49120516312E+02 -0.19387357005E+03  0.34230807711E+03  0.26302703954E+03 0.  0.
         25    1    3    3    0    0 -0.89396922976E+02  0.49120516312E+02 -0.21121620450E+03  0.26582781665E+03  0.12509000000E+03 0.  0.
         25    1    4    4    0    0  0.30995899390E+02 -0.55837375320E+02 -0.12437561656E+03  0.18760426529E+03  0.12509000000E+03 0.  0.
         25    1    4    4    0    0  0.58401023585E+02  0.67168590081E+01 -0.69497953498E+02  0.15470381182E+03  0.12509000000E+03 0.  0.
<mgrwt>
<rscale>  2 0.45357639E+03</rscale>
<asrwt>0</asrwt>
<pdfrwt beam="1">  1       21 0.14929862E-01 0.45357639E+03</pdfrwt>
<pdfrwt beam="2">  1       21 0.74501888E-01 0.45357639E+03</pdfrwt>
<totfact> 0.58839150E+04</totfact>
</mgrwt>
</event>
<event>
 7    0  0.4793433E-002  0.4497075E+03  0.7546771E-02  0.1027809E+00
         21   -1    0    0  502  501  0.00000000000E+00  0.00000000000E+00  0.21289051367E+03  0.21289051367E+03  0.00000000000E+00 0.  1.
         21   -1    0    0  501  502 -0.00000000000E+00 -0.00000000000E+00 -0.23748929014E+03  0.23748929014E+03  0.00000000000E+00 0.  1.
      99926    2    1    2    0    0  0.17763568394E-14  0.00000000000E+00 -0.24598776470E+02  0.45037980381E+03  0.44970753593E+03 0.  0.
      99925    2    3    3    0    0  0.15366914547E+01  0.10816134028E+03 -0.13533309370E+02  0.28463545364E+03  0.26293146265E+03 0.  0.
         25    1    3    3    0    0 -0.15366914547E+01 -0.10816134028E+03 -0.11065467099E+02  0.16574435017E+03  0.12509000000E+03 0.  0.
         25    1    4    4    0    0 -0.36984556598E+02  0.45044649987E+02  0.53390963266E+01  0.13810464137E+03  0.12509000000E+03 0.  0.
         25    1    4    4    0    0  0.38521248052E+02  0.63116690296E+02 -0.18872405697E+02  0.14653081226E+03  0.12509000000E+03 0.  0.
<mgrwt>
<rscale>  2 0.44970754E+03</rscale>
<asrwt>0</asrwt>
<pdfrwt beam="1">  1       21 0.31307429E-01 0.44970754E+03</pdfrwt>
<pdfrwt beam="2">  1       21 0.34924895E-01 0.44970754E+03</pdfrwt>
<totfact> 0.71873050E+04</totfact>
</mgrwt>
</event>
<event>
 7    0  0.4793433E-002  0.4545314E+03  0.7546771E-02  0.1026379E+00
         21   -1    0    0  502  501  0.00000000000E+00  0.00000000000E+00  0.20937732373E+03  0.20937732373E+03  0.00000000000E+00 0. -1.
         21   -1    0    0  501  502 -0.00000000000E+00 -0.00000000000E+00 -0.24668242876E+03  0.24668242876E+03  0.00000000000E+00 0. -1.
      99926    2    1    2    0    0 -0.71054273576E-14  0.00000000000E+00 -0.37305105030E+02  0.45605975248E+03  0.45453143672E+03 0.  0.
      99925    2    3    3    0    0 -0.62276788736E+02 -0.61250311686E+02 -0.94970577749E+02  0.29295606172E+03  0.26300920965E+03 0.  0.
         25    1    3    3    0    0  0.62276788736E+02  0.61250311686E+02  0.57665472719E+02  0.16310369076E+03  0.12509000000E+03 0.  0.
         25    1    4    4    0    0 -0.24445467582E+02  0.24908660169E+01 -0.69970938395E+02  0.14542085689E+03  0.12509000000E+03 0.  0.
         25    1    4    4    0    0 -0.37831321153E+02 -0.63741177703E+02 -0.24999639354E+02  0.14753520483E+03  0.12509000000E+03 0.  0.
<mgrwt>
<rscale>  2 0.45453144E+03</rscale>
<asrwt>0</asrwt>
<pdfrwt beam="1">  1       21 0.30790783E-01 0.45453144E+03</pdfrwt>
<pdfrwt beam="2">  1       21 0.36276827E-01 0.45453144E+03</pdfrwt>
<totfact> 0.68724826E+04</totfact>
</mgrwt>
</event>
<event>
 7    0  0.4793433E-002  0.4532133E+03  0.7546771E-02  0.1026768E+00
         21   -1    0    0  502  501  0.00000000000E+00  0.00000000000E+00  0.82156688356E+02  0.82156688356E+02  0.00000000000E+00 0. -1.
         21   -1    0    0  501  502 -0.00000000000E+00 -0.00000000000E+00 -0.62503204885E+03  0.62503204885E+03  0.00000000000E+00 0. -1.
      99926    2    1    2    0    0  0.00000000000E+00  0.00000000000E+00 -0.54287536050E+03  0.70718873721E+03  0.45321325334E+03 0.  0.
      99925    2    3    3    0    0  0.22958810347E+02 -0.10915762908E+03 -0.34501320628E+03  0.44788305827E+03  0.26291182251E+03 0.  0.
         25    1    3    3    0    0 -0.22958810347E+02  0.10915762908E+03 -0.19786215421E+03  0.25930567894E+03  0.12509000000E+03 0.  0.
         25    1    4    4    0    0  0.50267374628E+02 -0.48658248580E+02 -0.15830923728E+03  0.21355036131E+03  0.12509000000E+03 0.  0.
         25    1    4    4    0    0 -0.27308564282E+02 -0.60499380501E+02 -0.18670396900E+03  0.23433269696E+03  0.12509000000E+03 0.  0.
<mgrwt>
<rscale>  2 0.45321325E+03</rscale>
<asrwt>0</asrwt>
<pdfrwt beam="1">  1       21 0.12081866E-01 0.45321325E+03</pdfrwt>
<pdfrwt beam="2">  1       21 0.91916478E-01 0.45321325E+03</pdfrwt>
<totfact> 0.53259200E+04</totfact>
</mgrwt>
</event>
<event>
 7    0  0.4793433E-002  0.4562163E+03  0.7546771E-02  0.1025884E+00
         21   -1    0    0  502  501  0.00000000000E+00  0.00000000000E+00  0.13914376803E+03  0.13914376803E+03  0.00000000000E+00 0. -1.
         21   -1    0    0  501  502 -0.00000000000E+00 -0.00000000000E+00 -0.37395370615E+03  0.37395370615E+03  0.00000000000E+00 0. -1.
      99926    2    1    2    0    0  0.00000000000E+00  0.00000000000E+00 -0.23480993812E+03  0.51309747418E+03  0.45621629845E+03 0.  0.
      99925    2    3    3    0    0  0.10781358967E+03 -0.37841122045E+02 -0.15088564880E+03  0.32402998604E+03  0.26300804589E+03 0.  0.
         25    1    3    3    0    0 -0.10781358967E+03  0.37841122045E+02 -0.83924289322E+02  0.18906748814E+03  0.12509000000E+03 0.  0.
         25    1    4    4    0    0  0.33222550951E+02  0.55769043454E+01 -0.10036891597E+03  0.16387881848E+03  0.12509000000E+03 0.  0.
         25    1    4    4    0    0  0.74591038720E+02 -0.43418026390E+02 -0.50516732826E+02  0.16015116755E+03  0.12509000000E+03 0.  0.
<mgrwt>
<rscale>  2 0.45621630E+03</rscale>
<asrwt>0</asrwt>
<pdfrwt beam="1">  1       21 0.20462319E-01 0.45621630E+03</pdfrwt>
<pdfrwt beam="2">  1       21 0.54993192E-01 0.45621630E+03</pdfrwt>
<totfact> 0.63742493E+04</totfact>
</mgrwt>
</event>
<event>
 7    0  0.4793433E-002  0.4515589E+03  0.7546771E-02  0.1027258E+00
         21   -1    0    0  502  501  0.00000000000E+00  0.00000000000E+00  0.24111213028E+03  0.24111213028E+03  0.00000000000E+00 0.  1.
         21   -1    0    0  501  502 -0.00000000000E+00 -0.00000000000E+00 -0.21142181445E+03  0.21142181445E+03  0.00000000000E+00 0.  1.
      99926    2    1    2    0    0  0.00000000000E+00 -0.17763568394E-14  0.29690315828E+02  0.45253394473E+03  0.45155891784E+03 0.  0.
      99925    2    3    3    0    0  0.53342242998E+02  0.89254809045E+01 -0.77141458849E+02  0.27937045182E+03  0.26300567594E+03 0.  0.
         25    1    3    3    0    0 -0.53342242998E+02 -0.89254809045E+01  0.10683177468E+03  0.17316349291E+03  0.12509000000E+03 0.  0.
         25    1    4    4    0    0  0.16410079309E+02  0.16447943173E+02 -0.77019153943E+02  0.14872553147E+03  0.12509000000E+03 0.  0.
         25    1    4    4    0    0  0.36932163689E+02 -0.75224622680E+01 -0.12230490553E+00  0.13064492034E+03  0.12509000000E+03 0.  0.
<mgrwt>
<rscale>  2 0.45155892E+03</rscale>
<asrwt>0</asrwt>
<pdfrwt beam="1">  1       21 0.35457666E-01 0.45155892E+03</pdfrwt>
<pdfrwt beam="2">  1       21 0.31091443E-01 0.45155892E+03</pdfrwt>
<totfact> 0.70646686E+04</totfact>
</mgrwt>
</event>
<event>
 7    0  0.4793433E-002  0.4561272E+03  0.7546771E-02  0.1025910E+00
         21   -1    0    0  502  501  0.00000000000E+00  0.00000000000E+00  0.13893478632E+03  0.13893478632E+03  0.00000000000E+00 0.  1.
         21   -1    0    0  501  502 -0.00000000000E+00 -0.00000000000E+00 -0.37436992729E+03  0.37436992729E+03  0.00000000000E+00 0.  1.
      99926    2    1    2    0    0  0.00000000000E+00  0.71054273576E-14 -0.23543514097E+03  0.51330471361E+03  0.45612720091E+03 0.  0.
      99925    2    3    3    0    0  0.84808016805E+02  0.56809487013E+02 -0.89222860069E+02  0.29548539235E+03  0.26254748295E+03 0.  0.
         25    1    3    3    0    0 -0.84808016805E+02 -0.56809487013E+02 -0.14621228090E+03  0.21781932126E+03  0.12509000000E+03 0.  0.
         25    1    4    4    0    0  0.59798261337E+02  0.53031122844E+02 -0.77146164504E+02  0.16729366649E+03  0.12509000000E+03 0.  0.
         25    1    4    4    0    0  0.25009755468E+02  0.37783641686E+01 -0.12076695565E+02  0.12819172586E+03  0.12509000000E+03 0.  0.
<mgrwt>
<rscale>  2 0.45612720E+03</rscale>
<asrwt>0</asrwt>
<pdfrwt beam="1">  1       21 0.20431587E-01 0.45612720E+03</pdfrwt>
<pdfrwt beam="2">  1       21 0.55054400E-01 0.45612720E+03</pdfrwt>
<totfact> 0.63773342E+04</totfact>
</mgrwt>
</event>
<event>
 7    0  0.4793433E-002  0.4331445E+03  0.7546771E-02  0.1032871E+00
         21   -1    0    0  502  501  0.00000000000E+00  0.00000000000E+00  0.39813198083E+02  0.39813198083E+02  0.00000000000E+00 0.  1.
         21   -1    0    0  501  502 -0.00000000000E+00 -0.00000000000E+00 -0.11780902436E+04  0.11780902436E+04  0.00000000000E+00 0.  1.
      99926    2    1    2    0    0  0.00000000000E+00  0.00000000000E+00 -0.11382770455E+04  0.12179034417E+04  0.43314450350E+03 0.  0.
      99925    2    3    3    0    0 -0.82714196755E+02 -0.21602760812E+02 -0.82085518175E+03  0.86617561322E+03  0.26296130115E+03 0.  0.
         25    1    4    4    0    0 -0.59563064949E+02 -0.26629697094E+02 -0.32626192647E+03  0.35545921318E+03  0.12509000000E+03 0.  0.
         25    1    3    3    0    0  0.82714196755E+02  0.21602760812E+02 -0.31742186373E+03  0.35172782843E+03  0.12509000000E+03 0.  0.
         25    1    4    4    0    0 -0.23151131806E+02  0.50269362825E+01 -0.49459325529E+03  0.51071640004E+03  0.12509000000E+03 0.  0.
<mgrwt>
<rscale>  2 0.43314450E+03</rscale>
<asrwt>0</asrwt>
<pdfrwt beam="1">  1       21 0.58548820E-02 0.43314450E+03</pdfrwt>
<pdfrwt beam="2">  1       21 0.17324857E+00 0.43314450E+03</pdfrwt>
<totfact> 0.37595651E+04</totfact>
</mgrwt>
</event>
<event>
 7    0  0.4793433E-002  0.4487892E+03  0.7546771E-02  0.1028084E+00
         21   -1    0    0  502  501  0.00000000000E+00  0.00000000000E+00  0.69819908930E+03  0.69819908930E+03  0.00000000000E+00 0.  1.
         21   -1    0    0  501  502 -0.00000000000E+00 -0.00000000000E+00 -0.72118300449E+02  0.72118300449E+02  0.00000000000E+00 0.  1.
      99926    2    1    2    0    0  0.00000000000E+00  0.00000000000E+00  0.62608078885E+03  0.77031738975E+03  0.44878917855E+03 0.  0.
      99925    2    3    3    0    0  0.84851955301E+02 -0.46079841765E+02  0.47637143487E+03  0.55263963502E+03  0.26297835671E+03 0.  0.
         25    1    4    4    0    0  0.39045989343E+02  0.45504149562E+00  0.16437640807E+03  0.21021871462E+03  0.12509000000E+03 0.  0.
         25    1    3    3    0    0 -0.84851955301E+02  0.46079841765E+02  0.14970935398E+03  0.21767775473E+03  0.12509000000E+03 0.  0.
         25    1    4    4    0    0  0.45805965957E+02 -0.46534883261E+02  0.31199502680E+03  0.34242092040E+03  0.12509000000E+03 0.  0.
<mgrwt>
<rscale>  2 0.44878918E+03</rscale>
<asrwt>0</asrwt>
<pdfrwt beam="1">  1       21 0.10267633E+00 0.44878918E+03</pdfrwt>
<pdfrwt beam="2">  1       21 0.10605633E-01 0.44878918E+03</pdfrwt>
<totfact> 0.51709416E+04</totfact>
</mgrwt>
</event>
<event>
 7    0  0.4793433E-002  0.4147289E+03  0.7546771E-02  0.1038796E+00
         21   -1    0    0  502  501  0.00000000000E+00  0.00000000000E+00  0.39489901214E+03  0.39489901214E+03  0.00000000000E+00 0. -1.
         21   -1    0    0  501  502 -0.00000000000E+00 -0.00000000000E+00 -0.10888861752E+03  0.10888861752E+03  0.00000000000E+00 0. -1.
      99926    2    1    2    0    0  0.17763568394E-14 -0.17763568394E-14  0.28601039462E+03  0.50378762965E+03  0.41472886319E+03 0.  0.
      99925    2    3    3    0    0  0.15768827971E+02 -0.12190231559E+02  0.26688517774E+03  0.37568400089E+03  0.26365415367E+03 0.  0.
         25    1    4    4    0    0 -0.88097210042E+01  0.23284348369E+02  0.16571565671E+03  0.20911470307E+03  0.12509000000E+03 0.  0.
         25    1    4    4    0    0  0.24578548975E+02 -0.35474579928E+02  0.10116952103E+03  0.16656929782E+03  0.12509000000E+03 0.  0.
         25    1    3    3    0    0 -0.15768827971E+02  0.12190231559E+02  0.19125216880E+02  0.12810362876E+03  0.12509000000E+03 0.  0.
<mgrwt>
<rscale>  2 0.41472886E+03</rscale>
<asrwt>0</asrwt>
<pdfrwt beam="1">  1       21 0.58073384E-01 0.41472886E+03</pdfrwt>
<pdfrwt beam="2">  1       21 0.16013032E-01 0.41472886E+03</pdfrwt>
<totfact> 0.90671830E+04</totfact>
</mgrwt>
</event>
<event>
 7    0  0.4793433E-002  0.4382943E+03  0.7546771E-02  0.1031271E+00
         21   -1    0    0  502  501  0.00000000000E+00  0.00000000000E+00  0.49228600646E+03  0.49228600646E+03  0.00000000000E+00 0.  1.
         21   -1    0    0  501  502 -0.00000000000E+00 -0.00000000000E+00 -0.97556049625E+02  0.97556049625E+02  0.00000000000E+00 0.  1.
      99926    2    1    2    0    0  0.00000000000E+00  0.71054273576E-14  0.39472995683E+03  0.58984205608E+03  0.43829432155E+03 0.  0.
      99925    2    3    3    0    0 -0.33228603789E+02 -0.53800099134E+02  0.15383119523E+03  0.31113376374E+03  0.26294788750E+03 0.  0.
         25    1    4    4    0    0 -0.90598028690E+01  0.13321774408E+02  0.64313217871E+02  0.14157417771E+03  0.12509000000E+03 0.  0.
         25    1    3    3    0    0  0.33228603789E+02  0.53800099134E+02  0.24089876160E+03  0.27870829234E+03  0.12509000000E+03 0.  0.
         25    1    4    4    0    0 -0.24168800920E+02 -0.67121873542E+02  0.89517977359E+02  0.16955958603E+03  0.12509000000E+03 0.  0.
<mgrwt>
<rscale>  2 0.43829432E+03</rscale>
<asrwt>0</asrwt>
<pdfrwt beam="1">  1       21 0.72395000E-01 0.43829432E+03</pdfrwt>
<pdfrwt beam="2">  1       21 0.14346478E-01 0.43829432E+03</pdfrwt>
<totfact> 0.67829254E+04</totfact>
</mgrwt>
</event>
<event>
 7    0  0.4793433E-002  0.4556964E+03  0.7546771E-02  0.1026037E+00
         21   -1    0    0  502  501  0.00000000000E+00  0.00000000000E+00  0.28788747676E+03  0.28788747676E+03  0.00000000000E+00 0.  1.
         21   -1    0    0  501  502 -0.00000000000E+00 -0.00000000000E+00 -0.18033018861E+03  0.18033018861E+03  0.00000000000E+00 0.  1.
      99926    2    1    2    0    0 -0.71054273576E-14  0.00000000000E+00  0.10755728815E+03  0.46821766538E+03  0.45569640325E+03 0.  0.
      99925    2    3    3    0    0 -0.48581575015E+02 -0.49177966156E+02 -0.23234716389E+02  0.27448408972E+03  0.26461863441E+03 0.  0.
         25    1    3    3    0    0  0.48581575015E+02  0.49177966156E+02  0.13079200454E+03  0.19373357566E+03  0.12509000000E+03 0.  0.
         25    1    4    4    0    0  0.16690913303E+02 -0.38391863839E+02 -0.14575311686E+02  0.13271197989E+03  0.12509000000E+03 0.  0.
         25    1    4    4    0    0 -0.65272488318E+02 -0.10786102317E+02 -0.86594047027E+01  0.14177210982E+03  0.12509000000E+03 0.  0.
<mgrwt>
<rscale>  2 0.45569640E+03</rscale>
<asrwt>0</asrwt>
<pdfrwt beam="1">  1       21 0.42336394E-01 0.45569640E+03</pdfrwt>
<pdfrwt beam="2">  1       21 0.26519145E-01 0.45569640E+03</pdfrwt>
<totfact> 0.67196702E+04</totfact>
</mgrwt>
</event>
<event>
 7    0  0.4793433E-002  0.4517595E+03  0.7546771E-02  0.1027199E+00
         21   -1    0    0  502  501  0.00000000000E+00  0.00000000000E+00  0.48448092655E+03  0.48448092655E+03  0.00000000000E+00 0.  1.
         21   -1    0    0  501  502 -0.00000000000E+00 -0.00000000000E+00 -0.10531202910E+03  0.10531202910E+03  0.00000000000E+00 0.  1.
      99926    2    1    2    0    0  0.00000000000E+00  0.00000000000E+00  0.37916889745E+03  0.58979295565E+03  0.45175953531E+03 0.  0.
      99925    2    3    3    0    0  0.35797626368E+02  0.86544988884E+02  0.16358045099E+03  0.32352731479E+03  0.26294458412E+03 0.  0.
         25    1    4    4    0    0 -0.16067172606E+02  0.34470073416E+02  0.10240211294E+03  0.16607239636E+03  0.12509000000E+03 0.  0.
         25    1    3    3    0    0 -0.35797626368E+02 -0.86544988884E+02  0.21558844646E+03  0.26626564086E+03  0.12509000000E+03 0.  0.
         25    1    4    4    0    0  0.51864798974E+02  0.52074915467E+02  0.61178338050E+02  0.15745491844E+03  0.12509000000E+03 0.  0.
<mgrwt>
<rscale>  2 0.45175954E+03</rscale>
<asrwt>0</asrwt>
<pdfrwt beam="1">  1       21 0.71247194E-01 0.45175954E+03</pdfrwt>
<pdfrwt beam="2">  1       21 0.15487063E-01 0.45175954E+03</pdfrwt>
<totfact> 0.60854605E+04</totfact>
</mgrwt>
</event>
<event>
 7    0  0.4793433E-002  0.4546845E+03  0.7546771E-02  0.1026334E+00
         21   -1    0    0  502  501  0.00000000000E+00  0.00000000000E+00  0.38756668560E+03  0.38756668560E+03  0.00000000000E+00 0.  1.
         21   -1    0    0  501  502 -0.00000000000E+00 -0.00000000000E+00 -0.13335637432E+03  0.13335637432E+03  0.00000000000E+00 0.  1.
      99926    2    1    2    0    0  0.00000000000E+00  0.00000000000E+00  0.25421031127E+03  0.52092305992E+03  0.45468445322E+03 0.  0.
      99925    2    3    3    0    0  0.69020791860E+02 -0.72290831409E+02  0.22013684324E+03  0.35722106440E+03  0.26297685275E+03 0.  0.
         25    1    3    3    0    0 -0.69020791860E+02  0.72290831409E+02  0.34073468037E+02  0.16370199552E+03  0.12509000000E+03 0.  0.
         25    1    4    4    0    0  0.69801236532E+02 -0.47255210891E+02  0.93511930911E+02  0.17747466552E+03  0.12509000000E+03 0.  0.
         25    1    4    4    0    0 -0.78044467248E+00 -0.25035620518E+02  0.12662491233E+03  0.17974639888E+03  0.12509000000E+03 0.  0.
<mgrwt>
<rscale>  2 0.45468445E+03</rscale>
<asrwt>0</asrwt>
<pdfrwt beam="1">  1       21 0.56995100E-01 0.45468445E+03</pdfrwt>
<pdfrwt beam="2">  1       21 0.19611232E-01 0.45468445E+03</pdfrwt>
<totfact> 0.63984439E+04</totfact>
</mgrwt>
</event>
<event>
 7    0  0.4793433E-002  0.4536495E+03  0.7546771E-02  0.1026639E+00
         21   -1    0    0  502  501  0.00000000000E+00  0.00000000000E+00  0.45877318297E+02  0.45877318297E+02  0.00000000000E+00 0. -1.
         21   -1    0    0  501  502 -0.00000000000E+00 -0.00000000000E+00 -0.11214575935E+04  0.11214575935E+04  0.00000000000E+00 0. -1.
      99926    2    1    2    0    0  0.00000000000E+00  0.00000000000E+00 -0.10755802752E+04  0.11673349118E+04  0.45364949894E+03 0.  0.
      99925    2    3    3    0    0  0.10454862912E+03  0.16088863100E+01 -0.57400785161E+03  0.63993050475E+03  0.26285553604E+03 0.  0.
         25    1    4    4    0    0  0.91555154656E+01  0.11894885970E+01 -0.24449498756E+03  0.27479182191E+03  0.12509000000E+03 0.  0.
         25    1    4    4    0    0  0.95393113659E+02  0.41939771306E+00 -0.32951286406E+03  0.36513868284E+03  0.12509000000E+03 0.  0.
         25    1    3    3    0    0 -0.10454862912E+03 -0.16088863100E+01 -0.50157242356E+03  0.52740440702E+03  0.12509000000E+03 0.  0.
<mgrwt>
<rscale>  2 0.45364950E+03</rscale>
<asrwt>0</asrwt>
<pdfrwt beam="1">  1       21 0.67466658E-02 0.45364950E+03</pdfrwt>
<pdfrwt beam="2">  1       21 0.16492020E+00 0.45364950E+03</pdfrwt>
<totfact> 0.33560631E+04</totfact>
</mgrwt>
</event>
<event>
 7    0  0.4793433E-002  0.4538748E+03  0.7546771E-02  0.1026573E+00
         21   -1    0    0  502  501  0.00000000000E+00  0.00000000000E+00  0.16942030095E+04  0.16942030095E+04  0.00000000000E+00 0.  1.
         21   -1    0    0  501  502 -0.00000000000E+00 -0.00000000000E+00 -0.30398117185E+02  0.30398117185E+02  0.00000000000E+00 0.  1.
      99926    2    1    2    0    0  0.00000000000E+00 -0.14210854715E-13  0.16638048924E+04  0.17246011267E+04  0.45387479163E+03 0.  0.
      99925    2    3    3    0    0 -0.65578103982E+02  0.80710352128E+02  0.88866143102E+03  0.93257237573E+03  0.26297803771E+03 0.  0.
         25    1    3    3    0    0  0.65578103982E+02 -0.80710352128E+02  0.77514346133E+03  0.79202875100E+03  0.12509000000E+03 0.  0.
         25    1    4    4    0    0 -0.40100824010E+02  0.40001077611E+02  0.58087056675E+03  0.59688046182E+03  0.12509000000E+03 0.  0.
         25    1    4    4    0    0 -0.25477279973E+02  0.40709274517E+02  0.30779086428E+03  0.33569191390E+03  0.12509000000E+03 0.  0.
<mgrwt>
<rscale>  2 0.45387479E+03</rscale>
<asrwt>0</asrwt>
<pdfrwt beam="1">  1       21 0.24914744E+00 0.45387479E+03</pdfrwt>
<pdfrwt beam="2">  1       21 0.44703125E-02 0.45387479E+03</pdfrwt>
<totfact> 0.18918980E+04</totfact>
</mgrwt>
</event>
<event>
 7    0  0.4793433E-002  0.4516850E+03  0.7546771E-02  0.1027221E+00
         21   -1    0    0  502  501  0.00000000000E+00  0.00000000000E+00  0.87143874756E+02  0.87143874756E+02  0.00000000000E+00 0.  1.
         21   -1    0    0  501  502 -0.00000000000E+00 -0.00000000000E+00 -0.58529453619E+03  0.58529453619E+03  0.00000000000E+00 0.  1.
      99926    2    1    2    0    0  0.14210854715E-13 -0.71054273576E-14 -0.49815066144E+03  0.67243841095E+03  0.45168499536E+03 0.  0.
      99925    2    3    3    0    0 -0.10483213591E+03  0.33253667322E+02 -0.30308573391E+03  0.41593613579E+03  0.26276667188E+03 0.  0.
         25    1    4    4    0    0 -0.43301851262E+02 -0.55900058179E+01 -0.97388637805E+02  0.16443343140E+03  0.12509000000E+03 0.  0.
         25    1    4    4    0    0 -0.61530284648E+02  0.38843673140E+02 -0.20569709610E+03  0.25150270439E+03  0.12509000000E+03 0.  0.
         25    1    3    3    0    0  0.10483213591E+03 -0.33253667322E+02 -0.19506492753E+03  0.25650227516E+03  0.12509000000E+03 0.  0.
<mgrwt>
<rscale>  2 0.45168500E+03</rscale>
<asrwt>0</asrwt>
<pdfrwt beam="1">  1       21 0.12815275E-01 0.45168500E+03</pdfrwt>
<pdfrwt beam="2">  1       21 0.86072729E-01 0.45168500E+03</pdfrwt>
<totfact> 0.55870387E+04</totfact>
</mgrwt>
</event>
<event>
 7    0  0.4793433E-002  0.4569665E+03  0.7546771E-02  0.1025665E+00
         21   -1    0    0  502  501  0.00000000000E+00  0.00000000000E+00  0.19664498655E+03  0.19664498655E+03  0.00000000000E+00 0.  1.
         21   -1    0    0  501  502 -0.00000000000E+00 -0.00000000000E+00 -0.26547633999E+03  0.26547633999E+03  0.00000000000E+00 0.  1.
      99926    2    1    2    0    0  0.00000000000E+00  0.88817841970E-15 -0.68831353441E+02  0.46212132653E+03  0.45696648151E+03 0.  0.
      99925    2    3    3    0    0 -0.75540895761E+02 -0.71692457970E+01 -0.12902626526E+03  0.30391652089E+03  0.26449886489E+03 0.  0.
         25    1    4    4    0    0 -0.81209052831E+02 -0.18700526683E+01 -0.80774761019E+02  0.16961862361E+03  0.12509000000E+03 0.  0.
         25    1    4    4    0    0  0.56681570700E+01 -0.52991931288E+01 -0.48251504243E+02  0.13429789728E+03  0.12509000000E+03 0.  0.
         25    1    3    3    0    0  0.75540895761E+02  0.71692457970E+01  0.60194911822E+02  0.15820480564E+03  0.12509000000E+03 0.  0.
<mgrwt>
<rscale>  2 0.45696648E+03</rscale>
<asrwt>0</asrwt>
<pdfrwt beam="1">  1       21 0.28918380E-01 0.45696648E+03</pdfrwt>
<pdfrwt beam="2">  1       21 0.39040638E-01 0.45696648E+03</pdfrwt>
<totfact> 0.66969846E+04</totfact>
</mgrwt>
</event>
<event>
 7    0  0.4793433E-002  0.4504293E+03  0.7546771E-02  0.1027594E+00
         21   -1    0    0  502  501  0.00000000000E+00  0.00000000000E+00  0.21193884631E+03  0.21193884631E+03  0.00000000000E+00 0.  1.
         21   -1    0    0  501  502 -0.00000000000E+00 -0.00000000000E+00 -0.23932201930E+03  0.23932201930E+03  0.00000000000E+00 0.  1.
      99926    2    1    2    0    0 -0.14210854715E-13 -0.35527136788E-14 -0.27383172986E+02  0.45126086562E+03  0.45042927377E+03 0.  0.
      99925    2    3    3    0    0  0.10645611996E+03  0.18704653740E+02  0.91582414340E+00  0.28353754914E+03  0.26212579707E+03 0.  0.
         25    1    4    4    0    0  0.64644787885E+02 -0.27924942223E+02  0.41214346936E+01  0.14360795703E+03  0.12509000000E+03 0.  0.
         25    1    4    4    0    0  0.41811332079E+02  0.46629595963E+02 -0.32056105502E+01  0.13992959211E+03  0.12509000000E+03 0.  0.
         25    1    3    3    0    0 -0.10645611996E+03 -0.18704653740E+02 -0.28298997129E+02  0.16772331647E+03  0.12509000000E+03 0.  0.
<mgrwt>
<rscale>  2 0.45042927E+03</rscale>
<asrwt>0</asrwt>
<pdfrwt beam="1">  1       21 0.31167477E-01 0.45042927E+03</pdfrwt>
<pdfrwt beam="2">  1       21 0.35194415E-01 0.45042927E+03</pdfrwt>
<totfact> 0.71388793E+04</totfact>
</mgrwt>
</event>
<event>
 7    0  0.4793433E-002  0.4555359E+03  0.7546771E-02  0.1026084E+00
         21   -1    0    0  502  501  0.00000000000E+00  0.00000000000E+00  0.10180970799E+04  0.10180970799E+04  0.00000000000E+00 0.  1.
         21   -1    0    0  501  502 -0.00000000000E+00 -0.00000000000E+00 -0.50956080520E+02  0.50956080520E+02  0.00000000000E+00 0.  1.
      99926    2    1    2    0    0  0.14210854715E-13  0.00000000000E+00  0.96714099939E+03  0.10690531604E+04  0.45553589005E+03 0.  0.
      99925    2    3    3    0    0  0.10149696185E+03  0.50624324003E+02  0.59357536668E+03  0.65909798546E+03  0.26308550523E+03 0.  0.
         25    1    3    3    0    0 -0.10149696185E+03 -0.50624324003E+02  0.37356563272E+03  0.40995517498E+03  0.12509000000E+03 0.  0.
         25    1    4    4    0    0  0.25151917680E+02  0.51897504526E+02  0.24702337149E+03  0.28283214828E+03  0.12509000000E+03 0.  0.
         25    1    4    4    0    0  0.76345044165E+02 -0.12731805228E+01  0.34655199518E+03  0.37626583717E+03  0.12509000000E+03 0.  0.
<mgrwt>
<rscale>  2 0.45553589E+03</rscale>
<asrwt>0</asrwt>
<pdfrwt beam="1">  1       21 0.14972015E+00 0.45553589E+03</pdfrwt>
<pdfrwt beam="2">  1       21 0.74935419E-02 0.45553589E+03</pdfrwt>
<totfact> 0.36433355E+04</totfact>
</mgrwt>
</event>
<event>
 7    0  0.4793433E-002  0.4552935E+03  0.7546771E-02  0.1026155E+00
         21   -1    0    0  502  501  0.00000000000E+00  0.00000000000E+00  0.33652013958E+02  0.33652013958E+02  0.00000000000E+00 0. -1.
         21   -1    0    0  501  502 -0.00000000000E+00 -0.00000000000E+00 -0.15399682611E+04  0.15399682611E+04  0.00000000000E+00 0. -1.
      99926    2    1    2    0    0  0.00000000000E+00  0.00000000000E+00 -0.15063162471E+04  0.15736202750E+04  0.45529345885E+03 0.  0.
      99925    2    3    3    0    0  0.18148878767E+02 -0.78878466255E+02 -0.12225110897E+04  0.12530831170E+04  0.26293105425E+03 0.  0.
         25    1    4    4    0    0  0.17095943786E+02 -0.57769414537E+02 -0.47471553892E+03  0.49460279775E+03  0.12509000000E+03 0.  0.
         25    1    4    4    0    0  0.10529349815E+01 -0.21109051718E+02 -0.74779555080E+03  0.75848031921E+03  0.12509000000E+03 0.  0.
         25    1    3    3    0    0 -0.18148878767E+02  0.78878466255E+02 -0.28380515740E+03  0.32053715808E+03  0.12509000000E+03 0.  0.
<mgrwt>
<rscale>  2 0.45529346E+03</rscale>
<asrwt>0</asrwt>
<pdfrwt beam="1">  1       21 0.49488276E-02 0.45529346E+03</pdfrwt>
<pdfrwt beam="2">  1       21 0.22646583E+00 0.45529346E+03</pdfrwt>
<totfact> 0.21980986E+04</totfact>
</mgrwt>
</event>
<event>
 7    0  0.4793433E-002  0.4583005E+03  0.7546771E-02  0.1025275E+00
         21   -1    0    0  502  501  0.00000000000E+00  0.00000000000E+00  0.14445792197E+03  0.14445792197E+03  0.00000000000E+00 0. -1.
         21   -1    0    0  501  502 -0.00000000000E+00 -0.00000000000E+00 -0.36349573088E+03  0.36349573088E+03  0.00000000000E+00 0. -1.
      99926    2    1    2    0    0  0.00000000000E+00  0.00000000000E+00 -0.21903780891E+03  0.50795365285E+03  0.45830050372E+03 0.  0.
      99925    2    3    3    0    0  0.40105895802E+02  0.92411672056E+02 -0.72970527876E+02  0.29085561348E+03  0.26291422544E+03 0.  0.
         25    1    4    4    0    0  0.42784585294E+02  0.32910052295E+02 -0.45004104499E+01  0.13631344055E+03  0.12509000000E+03 0.  0.
         25    1    3    3    0    0 -0.40105895802E+02 -0.92411672056E+02 -0.14606728103E+03  0.21709803937E+03  0.12509000000E+03 0.  0.
         25    1    4    4    0    0 -0.26786894921E+01  0.59501619760E+02 -0.68470117426E+02  0.15454217292E+03  0.12509000000E+03 0.  0.
<mgrwt>
<rscale>  2 0.45830050E+03</rscale>
<asrwt>0</asrwt>
<pdfrwt beam="1">  1       21 0.21243812E-01 0.45830050E+03</pdfrwt>
<pdfrwt beam="2">  1       21 0.53455254E-01 0.45830050E+03</pdfrwt>
<totfact> 0.63047550E+04</totfact>
</mgrwt>
</event>
<event>
 6    0  0.4793433E-002  0.4564653E+03  0.7546771E-02  0.1025811E+00
         21   -1    0    0  502  501  0.00000000000E+00  0.00000000000E+00  0.65479834840E+03  0.65479834840E+03  0.00000000000E+00 0.  1.
         21   -1    0    0  501  502 -0.00000000000E+00 -0.00000000000E+00 -0.79551409187E+02  0.79551409187E+02  0.00000000000E+00 0.  1.
      99926    2    1    2    0    0  0.00000000000E+00  0.14210854715E-13  0.57524693921E+03  0.73434975758E+03  0.45646525102E+03 0.  0.
         25    1    3    3    0    0  0.20549254590E+02 -0.65796613141E+02  0.20300772361E+03  0.24821585387E+03  0.12509000000E+03 0.  0.
         25    1    3    3    0    0  0.46608241881E+02 -0.53421525876E+01  0.25790550242E+03  0.29045416693E+03  0.12509000000E+03 0.  0.
         25    1    3    3    0    0 -0.67157496471E+02  0.71138765729E+02  0.11433371318E+03  0.19567973679E+03  0.12509000000E+03 0.  0.
<mgrwt>
<rscale>  2 0.45646525E+03</rscale>
<asrwt>0</asrwt>
<pdfrwt beam="1">  1       21 0.96293872E-01 0.45646525E+03</pdfrwt>
<pdfrwt beam="2">  1       21 0.11698737E-01 0.45646525E+03</pdfrwt>
<totfact> 0.50493136E+04</totfact>
</mgrwt>
</event>
<event>
 7    0  0.4793433E-002  0.4497487E+03  0.7546771E-02  0.1027797E+00
         21   -1    0    0  502  501  0.00000000000E+00  0.00000000000E+00  0.98585770217E+02  0.98585770217E+02  0.00000000000E+00 0.  1.
         21   -1    0    0  501  502 -0.00000000000E+00 -0.00000000000E+00 -0.51293885772E+03  0.51293885772E+03  0.00000000000E+00 0.  1.
      99926    2    1    2    0    0  0.00000000000E+00  0.00000000000E+00 -0.41435308750E+03  0.61152462793E+03  0.44974869588E+03 0.  0.
      99925    2    3    3    0    0 -0.93696352677E+01 -0.10218150606E+03 -0.21541471722E+03  0.35510147470E+03  0.26299183769E+03 0.  0.
         25    1    4    4    0    0 -0.12146757525E+02 -0.43724382707E+02 -0.56505602730E+02  0.14456748113E+03  0.12509000000E+03 0.  0.
         25    1    4    4    0    0  0.27771222572E+01 -0.58457123350E+02 -0.15890911449E+03  0.21053399356E+03  0.12509000000E+03 0.  0.
         25    1    3    3    0    0  0.93696352677E+01  0.10218150606E+03 -0.19893837028E+03  0.25642315323E+03  0.12509000000E+03 0.  0.
<mgrwt>
<rscale>  2 0.44974870E+03</rscale>
<asrwt>0</asrwt>
<pdfrwt beam="1">  1       21 0.14497908E-01 0.44974870E+03</pdfrwt>
<pdfrwt beam="2">  1       21 0.75432184E-01 0.44974870E+03</pdfrwt>
<totfact> 0.60442658E+04</totfact>
</mgrwt>
</event>
<event>
 7    0  0.4793433E-002  0.4536991E+03  0.7546771E-02  0.1026625E+00
         21   -1    0    0  502  501  0.00000000000E+00  0.00000000000E+00  0.55986382502E+03  0.55986382502E+03  0.00000000000E+00 0. -1.
         21   -1    0    0  501  502 -0.00000000000E+00 -0.00000000000E+00 -0.91916472274E+02  0.91916472274E+02  0.00000000000E+00 0. -1.
      99926    2    1    2    0    0  0.00000000000E+00  0.00000000000E+00  0.46794735274E+03  0.65178029729E+03  0.45369905334E+03 0.  0.
      99925    2    3    3    0    0 -0.43631273066E+02  0.12686794202E+02  0.14808688978E+03  0.30533713225E+03  0.26312809555E+03 0.  0.
         25    1    4    4    0    0 -0.34629743641E+02  0.19586740929E+01  0.31072706528E+02  0.13347687717E+03  0.12509000000E+03 0.  0.
         25    1    3    3    0    0  0.43631273066E+02 -0.12686794202E+02  0.31986046297E+03  0.34644316504E+03  0.12509000000E+03 0.  0.
         25    1    4    4    0    0 -0.90015294252E+01  0.10728120109E+02  0.11701418325E+03  0.17186025508E+03  0.12509000000E+03 0.  0.
<mgrwt>
<rscale>  2 0.45369905E+03</rscale>
<asrwt>0</asrwt>
<pdfrwt beam="1">  1       21 0.82332914E-01 0.45369905E+03</pdfrwt>
<pdfrwt beam="2">  1       21 0.13517129E-01 0.45369905E+03</pdfrwt>
<totfact> 0.56173303E+04</totfact>
</mgrwt>
</event>
<event>
 7    0  0.4793433E-002  0.4555208E+03  0.7546771E-02  0.1026088E+00
         21   -1    0    0  502  501  0.00000000000E+00  0.00000000000E+00  0.35194670034E+03  0.35194670034E+03  0.00000000000E+00 0. -1.
         21   -1    0    0  501  502 -0.00000000000E+00 -0.00000000000E+00 -0.14739389086E+03  0.14739389086E+03  0.00000000000E+00 0. -1.
      99926    2    1    2    0    0  0.00000000000E+00  0.00000000000E+00  0.20455280948E+03  0.49934059120E+03  0.45552077247E+03 0.  0.
      99925    2    3    3    0    0 -0.36095804562E+02 -0.59497675178E+02  0.22719445810E+03  0.35441635993E+03  0.26296530937E+03 0.  0.
         25    1    4    4    0    0 -0.45384149216E+02 -0.47453963234E+02  0.15271165228E+03  0.20803835336E+03  0.12509000000E+03 0.  0.
         25    1    3    3    0    0  0.36095804562E+02  0.59497675178E+02 -0.22641648618E+02  0.14492423128E+03  0.12509000000E+03 0.  0.
         25    1    4    4    0    0  0.92883446537E+01 -0.12043711944E+02  0.74482805823E+02  0.14637800657E+03  0.12509000000E+03 0.  0.
<mgrwt>
<rscale>  2 0.45552077E+03</rscale>
<asrwt>0</asrwt>
<pdfrwt beam="1">  1       21 0.51756867E-01 0.45552077E+03</pdfrwt>
<pdfrwt beam="2">  1       21 0.21675572E-01 0.45552077E+03</pdfrwt>
<totfact> 0.65047689E+04</totfact>
</mgrwt>
</event>
<event>
 7    0  0.4793433E-002  0.4516146E+03  0.7546771E-02  0.1027242E+00
         21   -1    0    0  502  501  0.00000000000E+00  0.00000000000E+00  0.98514192527E+02  0.98514192527E+02  0.00000000000E+00 0. -1.
         21   -1    0    0  501  502 -0.00000000000E+00 -0.00000000000E+00 -0.51757965617E+03  0.51757965617E+03  0.00000000000E+00 0. -1.
      99926    2    1    2    0    0  0.00000000000E+00  0.00000000000E+00 -0.41906546364E+03  0.61609384870E+03  0.45161462286E+03 0.  0.
      99925    2    3    3    0    0 -0.88254572884E+01  0.88208397563E+02 -0.35400729996E+03  0.44954450808E+03  0.26250806888E+03 0.  0.
         25    1    4    4    0    0  0.22589555613E+02  0.71893223983E+02 -0.20657955587E+03  0.25298526574E+03  0.12509000000E+03 0.  0.
         25    1    3    3    0    0  0.88254572884E+01 -0.88208397563E+02 -0.65058163687E+02  0.16654934061E+03  0.12509000000E+03 0.  0.
         25    1    4    4    0    0 -0.31415012901E+02  0.16315173580E+02 -0.14742774409E+03  0.19655924235E+03  0.12509000000E+03 0.  0.
<mgrwt>
<rscale>  2 0.45161462E+03</rscale>
<asrwt>0</asrwt>
<pdfrwt beam="1">  1       21 0.14487381E-01 0.45161462E+03</pdfrwt>
<pdfrwt beam="2">  1       21 0.76114654E-01 0.45161462E+03</pdfrwt>
<totfact> 0.59267134E+04</totfact>
</mgrwt>
</event>
<event>
 7    0  0.4793433E-002  0.4634687E+03  0.7546771E-02  0.1023780E+00
         21   -1    0    0  502  501  0.00000000000E+00  0.00000000000E+00  0.83614959733E+03  0.83614959733E+03  0.00000000000E+00 0.  1.
         21   -1    0    0  501  502 -0.00000000000E+00 -0.00000000000E+00 -0.64223919230E+02  0.64223919230E+02  0.00000000000E+00 0.  1.
      99926    2    1    2    0    0  0.14210854715E-13  0.00000000000E+00  0.77192567810E+03  0.90037351656E+03  0.46346867943E+03 0.  0.
      99925    2    3    3    0    0  0.11235525426E+03  0.10495003498E+02  0.56682580948E+03  0.63495439052E+03  0.26294815363E+03 0.  0.
         25    1    3    3    0    0 -0.11235525426E+03 -0.10495003498E+02  0.20509986862E+03  0.26541912603E+03  0.12509000000E+03 0.  0.
         25    1    4    4    0    0  0.70117901426E+02 -0.32906851763E+02  0.28680858170E+03  0.32234461625E+03  0.12509000000E+03 0.  0.
         25    1    4    4    0    0  0.42237352829E+02  0.43401855261E+02  0.28001722778E+03  0.31260977427E+03  0.12509000000E+03 0.  0.
<mgrwt>
<rscale>  2 0.46346868E+03</rscale>
<asrwt>0</asrwt>
<pdfrwt beam="1">  1       21 0.12296317E+00 0.46346868E+03</pdfrwt>
<pdfrwt beam="2">  1       21 0.94446945E-02 0.46346868E+03</pdfrwt>
<totfact> 0.40466885E+04</totfact>
</mgrwt>
</event>
<event>
 7    0  0.4793433E-002  0.4738574E+03  0.7546771E-02  0.1020837E+00
         21   -1    0    0  502  501  0.00000000000E+00  0.00000000000E+00  0.66503469585E+03  0.66503469585E+03  0.00000000000E+00 0.  1.
         21   -1    0    0  501  502 -0.00000000000E+00 -0.00000000000E+00 -0.84409460025E+02  0.84409460025E+02  0.00000000000E+00 0.  1.
      99926    2    1    2    0    0  0.00000000000E+00  0.00000000000E+00  0.58062523582E+03  0.74944415587E+03  0.47385744512E+03 0.  0.
      99925    2    3    3    0    0  0.22562193068E+02  0.49417103004E+02  0.17261465013E+03  0.31924507549E+03  0.26300284819E+03 0.  0.
         25    1    4    4    0    0  0.47911451786E+02  0.40281290794E+02  0.78471218509E+02  0.16038494267E+03  0.12509000000E+03 0.  0.
         25    1    3    3    0    0 -0.22562193068E+02 -0.49417103004E+02  0.40801058569E+03  0.43019908038E+03  0.12509000000E+03 0.  0.
         25    1    4    4    0    0 -0.25349258718E+02  0.91358122100E+01  0.94143431617E+02  0.15886013282E+03  0.12509000000E+03 0.  0.
<mgrwt>
<rscale>  2 0.47385745E+03</rscale>
<asrwt>0</asrwt>
<pdfrwt beam="1">  1       21 0.97799217E-01 0.47385745E+03</pdfrwt>
<pdfrwt beam="2">  1       21 0.12413156E-01 0.47385745E+03</pdfrwt>
<totfact> 0.43486368E+04</totfact>
</mgrwt>
</event>
<event>
 7    0  0.4793433E-002  0.4391500E+03  0.7546771E-02  0.1031008E+00
         21   -1    0    0  502  501  0.00000000000E+00  0.00000000000E+00  0.22870477980E+04  0.22870477980E+04  0.00000000000E+00 0.  1.
         21   -1    0    0  501  502 -0.00000000000E+00 -0.00000000000E+00 -0.21080967522E+02  0.21080967522E+02  0.00000000000E+00 0.  1.
      99926    2    1    2    0    0  0.00000000000E+00  0.00000000000E+00  0.22659668305E+04  0.23081287655E+04  0.43914999875E+03 0.  0.
      99925    2    3    3    0    0  0.66226896795E+02 -0.66653092152E+02  0.13113117666E+04  0.13407392702E+04  0.26308668706E+03 0.  0.
         25    1    4    4    0    0  0.74572315926E+02 -0.42292514631E+02  0.71363245217E+03  0.72956731833E+03  0.12509000000E+03 0.  0.
         25    1    4    4    0    0 -0.83454191310E+01 -0.24360577521E+02  0.59767931440E+03  0.61117195184E+03  0.12509000000E+03 0.  0.
         25    1    3    3    0    0 -0.66226896795E+02  0.66653092152E+02  0.95465506394E+03  0.96738949537E+03  0.12509000000E+03 0.  0.
<mgrwt>
<rscale>  2 0.43915000E+03</rscale>
<asrwt>0</asrwt>
<pdfrwt beam="1">  1       21 0.33633039E+00 0.43915000E+03</pdfrwt>
<pdfrwt beam="2">  1       21 0.31001439E-02 0.43915000E+03</pdfrwt>
<totfact> 0.10539315E+04</totfact>
</mgrwt>
</event>
<event>
 7    0  0.4793433E-002  0.4600152E+03  0.7546771E-02  0.1024777E+00
         21   -1    0    0  502  501  0.00000000000E+00  0.00000000000E+00  0.39136166616E+03  0.39136166616E+03  0.00000000000E+00 0.  1.
         21   -1    0    0  501  502 -0.00000000000E+00 -0.00000000000E+00 -0.13517799459E+03  0.13517799459E+03  0.00000000000E+00 0.  1.
      99926    2    1    2    0    0  0.00000000000E+00  0.00000000000E+00  0.25618367157E+03  0.52653966075E+03  0.46001515275E+03 0.  0.
      99925    2    3    3    0    0  0.11232481240E+03 -0.91501148802E+01  0.19950402330E+03  0.34888640660E+03  0.26309557448E+03 0.  0.
         25    1    3    3    0    0 -0.11232481240E+03  0.91501148802E+01  0.56679648272E+02  0.17765325415E+03  0.12509000000E+03 0.  0.
         25    1    4    4    0    0  0.14570928376E+02  0.72723205830E+01  0.78205414849E+02  0.14842100125E+03  0.12509000000E+03 0.  0.
         25    1    4    4    0    0  0.97753884025E+02 -0.16422435463E+02  0.12129860845E+03  0.20046540535E+03  0.12509000000E+03 0.  0.
<mgrwt>
<rscale>  2 0.46001515E+03</rscale>
<asrwt>0</asrwt>
<pdfrwt beam="1">  1       21 0.57553186E-01 0.46001515E+03</pdfrwt>
<pdfrwt beam="2">  1       21 0.19879117E-01 0.46001515E+03</pdfrwt>
<totfact> 0.60980579E+04</totfact>
</mgrwt>
</event>
<event>
 7    0  0.4793433E-002  0.4597812E+03  0.7546771E-02  0.1024845E+00
         21   -1    0    0  502  501  0.00000000000E+00  0.00000000000E+00  0.19487331511E+03  0.19487331511E+03  0.00000000000E+00 0.  1.
         21   -1    0    0  501  502 -0.00000000000E+00 -0.00000000000E+00 -0.27120026145E+03  0.27120026145E+03  0.00000000000E+00 0.  1.
      99926    2    1    2    0    0  0.00000000000E+00  0.14210854715E-13 -0.76326946338E+02  0.46607357656E+03  0.45978122627E+03 0.  0.
      99925    2    3    3    0    0 -0.60438296064E+02  0.84487577597E+02 -0.10305099180E+03  0.30129305251E+03  0.26337626731E+03 0.  0.
         25    1    4    4    0    0 -0.17499782043E+02  0.77403847566E+02 -0.34256769230E+02  0.15204812504E+03  0.12509000000E+03 0.  0.
         25    1    4    4    0    0 -0.42938514022E+02  0.70837300312E+01 -0.68794222568E+02  0.14924492747E+03  0.12509000000E+03 0.  0.
         25    1    3    3    0    0  0.60438296064E+02 -0.84487577597E+02  0.26724045460E+02  0.16478052405E+03  0.12509000000E+03 0.  0.
<mgrwt>
<rscale>  2 0.45978123E+03</rscale>
<asrwt>0</asrwt>
<pdfrwt beam="1">  1       21 0.28657841E-01 0.45978123E+03</pdfrwt>
<pdfrwt beam="2">  1       21 0.39882391E-01 0.45978123E+03</pdfrwt>
<totfact> 0.65216283E+04</totfact>
</mgrwt>
</event>
<event>
 7    0  0.4793433E-002  0.4488650E+03  0.7546771E-02  0.1028061E+00
         21   -1    0    0  502  501  0.00000000000E+00  0.00000000000E+00  0.21100282586E+03  0.21100282586E+03  0.00000000000E+00 0. -1.
         21   -1    0    0  501  502 -0.00000000000E+00 -0.00000000000E+00 -0.23871697932E+03  0.23871697932E+03  0.00000000000E+00 0. -1.
      99926    2    1    2    0    0  0.00000000000E+00  0.00000000000E+00 -0.27714153460E+02  0.44971980517E+03  0.44886504527E+03 0.  0.
      99925    2    3    3    0    0  0.26904957278E+02 -0.10042120421E+03  0.92585831253E+01  0.28291816750E+03  0.26296135297E+03 0.  0.
         25    1    4    4    0    0  0.50062680680E+02 -0.33686853985E+02  0.10211646381E+02  0.13925825631E+03  0.12509000000E+03 0.  0.
         25    1    3    3    0    0 -0.26904957278E+02  0.10042120421E+03 -0.36972736585E+02  0.16680163768E+03  0.12509000000E+03 0.  0.
         25    1    4    4    0    0 -0.23157723402E+02 -0.66734350223E+02 -0.95306325602E+00  0.14365991119E+03  0.12509000000E+03 0.  0.
<mgrwt>
<rscale>  2 0.44886505E+03</rscale>
<asrwt>0</asrwt>
<pdfrwt beam="1">  1       21 0.31029828E-01 0.44886505E+03</pdfrwt>
<pdfrwt beam="2">  1       21 0.35105438E-01 0.44886505E+03</pdfrwt>
<totfact> 0.72414675E+04</totfact>
</mgrwt>
</event>
<event>
 7    0  0.4793433E-002  0.4537303E+03  0.7546771E-02  0.1026615E+00
         21   -1    0    0  502  501  0.00000000000E+00  0.00000000000E+00  0.16804500054E+03  0.16804500054E+03  0.00000000000E+00 0. -1.
         21   -1    0    0  501  502 -0.00000000000E+00 -0.00000000000E+00 -0.30627393782E+03  0.30627393782E+03  0.00000000000E+00 0. -1.
      99926    2    1    2    0    0 -0.71054273576E-14  0.00000000000E+00 -0.13822893728E+03  0.47431893836E+03  0.45373033421E+03 0.  0.
      99925    2    3    3    0    0 -0.63761976446E+02 -0.60012768442E+02 -0.14119179815E+02  0.27755038901E+03  0.26299761441E+03 0.  0.
         25    1    4    4    0    0  0.62444171279E+01 -0.33629814481E+02 -0.22213900509E+02  0.13157097949E+03  0.12509000000E+03 0.  0.
         25    1    3    3    0    0  0.63761976446E+02  0.60012768442E+02 -0.12410975747E+03  0.19676854935E+03  0.12509000000E+03 0.  0.
         25    1    4    4    0    0 -0.70006393574E+02 -0.26382953961E+02  0.80947206935E+01  0.14597940952E+03  0.12509000000E+03 0.  0.
<mgrwt>
<rscale>  2 0.45373033E+03</rscale>
<asrwt>0</asrwt>
<pdfrwt beam="1">  1       21 0.24712500E-01 0.45373033E+03</pdfrwt>
<pdfrwt beam="2">  1       21 0.45040285E-01 0.45373033E+03</pdfrwt>
<totfact> 0.67796567E+04</totfact>
</mgrwt>
</event>
<event>
 7    0  0.4793433E-002  0.4550059E+03  0.7546771E-02  0.1026240E+00
         21   -1    0    0  502  501  0.00000000000E+00  0.00000000000E+00  0.13577192921E+03  0.13577192921E+03  0.00000000000E+00 0. -1.
         21   -1    0    0  501  502 -0.00000000000E+00 -0.00000000000E+00 -0.38120983831E+03  0.38120983831E+03  0.00000000000E+00 0. -1.
      99926    2    1    2    0    0  0.00000000000E+00  0.71054273576E-14 -0.24543790910E+03  0.51698176751E+03  0.45500591284E+03 0.  0.
      99925    2    3    3    0    0  0.58887536889E+02  0.53305296344E+02 -0.24597117150E+03  0.36880285846E+03  0.26306754757E+03 0.  0.
         25    1    4    4    0    0  0.48962436865E+02  0.21011240591E+01 -0.87722181833E+02  0.16045069097E+03  0.12509000000E+03 0.  0.
         25    1    3    3    0    0 -0.58887536889E+02 -0.53305296344E+02  0.53326239427E+00  0.14817890905E+03  0.12509000000E+03 0.  0.
         25    1    4    4    0    0  0.99251000246E+01  0.51204172285E+02 -0.15824898966E+03  0.20835216749E+03  0.12509000000E+03 0.  0.
<mgrwt>
<rscale>  2 0.45500591E+03</rscale>
<asrwt>0</asrwt>
<pdfrwt beam="1">  1       21 0.19966460E-01 0.45500591E+03</pdfrwt>
<pdfrwt beam="2">  1       21 0.56060270E-01 0.45500591E+03</pdfrwt>
<totfact> 0.64090368E+04</totfact>
</mgrwt>
</event>
<event>
 7    0  0.4793433E-002  0.4522090E+03  0.7546771E-02  0.1027065E+00
         21   -1    0    0  502  501  0.00000000000E+00  0.00000000000E+00  0.35424600177E+03  0.35424600177E+03  0.00000000000E+00 0.  1.
         21   -1    0    0  501  502 -0.00000000000E+00 -0.00000000000E+00 -0.14431566213E+03  0.14431566213E+03  0.00000000000E+00 0.  1.
      99926    2    1    2    0    0  0.00000000000E+00  0.00000000000E+00  0.20993033964E+03  0.49856166390E+03  0.45220900611E+03 0.  0.
      99925    2    3    3    0    0 -0.93479917913E+02 -0.18279029259E+02  0.70522147324E+02  0.28843129925E+03  0.26295745504E+03 0.  0.
         25    1    4    4    0    0 -0.81848462265E+02  0.96462222241E+01  0.24702034529E+02  0.15182199771E+03  0.12509000000E+03 0.  0.
         25    1    4    4    0    0 -0.11631455648E+02 -0.27925251483E+02  0.45820112795E+02  0.13660930154E+03  0.12509000000E+03 0.  0.
         25    1    3    3    0    0  0.93479917913E+02  0.18279029259E+02  0.13940819231E+03  0.21013036465E+03  0.12509000000E+03 0.  0.
<mgrwt>
<rscale>  2 0.45220901E+03</rscale>
<asrwt>0</asrwt>
<pdfrwt beam="1">  1       21 0.52095000E-01 0.45220901E+03</pdfrwt>
<pdfrwt beam="2">  1       21 0.21222891E-01 0.45220901E+03</pdfrwt>
<totfact> 0.66840446E+04</totfact>
</mgrwt>
</event>
<event>
 7    0  0.4793433E-002  0.4555652E+03  0.7546771E-02  0.1026075E+00
         21   -1    0    0  502  501  0.00000000000E+00  0.00000000000E+00  0.96107583974E+02  0.96107583974E+02  0.00000000000E+00 0. -1.
         21   -1    0    0  501  502 -0.00000000000E+00 -0.00000000000E+00 -0.53986286402E+03  0.53986286402E+03  0.00000000000E+00 0. -1.
      99926    2    1    2    0    0  0.00000000000E+00 -0.35527136788E-14 -0.44375528004E+03  0.63597044799E+03  0.45556521174E+03 0.  0.
      99925    2    3    3    0    0  0.10517713041E+03 -0.10689651474E+02 -0.22055348800E+03  0.35912564403E+03  0.26296556756E+03 0.  0.
         25    1    3    3    0    0 -0.10517713041E+03  0.10689651474E+02 -0.22320179204E+03  0.27684480396E+03  0.12509000000E+03 0.  0.
         25    1    4    4    0    0  0.56287778203E+02  0.34912292650E+02 -0.10708154040E+03  0.17748562350E+03  0.12509000000E+03 0.  0.
         25    1    4    4    0    0  0.48889352205E+02 -0.45601944125E+02 -0.11347194760E+03  0.18164002053E+03  0.12509000000E+03 0.  0.
<mgrwt>
<rscale>  2 0.45556521E+03</rscale>
<asrwt>0</asrwt>
<pdfrwt beam="1">  1       21 0.14133469E-01 0.45556521E+03</pdfrwt>
<pdfrwt beam="2">  1       21 0.79391596E-01 0.45556521E+03</pdfrwt>
<totfact> 0.56265636E+04</totfact>
</mgrwt>
</event>
<event>
 7    0  0.4793433E-002  0.4528885E+03  0.7546771E-02  0.1026864E+00
         21   -1    0    0  502  501  0.00000000000E+00  0.00000000000E+00  0.77832180108E+02  0.77832180108E+02  0.00000000000E+00 0. -1.
         21   -1    0    0  501  502 -0.00000000000E+00 -0.00000000000E+00 -0.65881483472E+03  0.65881483472E+03  0.00000000000E+00 0. -1.
      99926    2    1    2    0    0  0.00000000000E+00 -0.71054273576E-14 -0.58098265461E+03  0.73664701483E+03  0.45288848461E+03 0.  0.
      99925    2    3    3    0    0 -0.69035788925E+02 -0.38399411220E+02 -0.49347599027E+03  0.56475932086E+03  0.26304768120E+03 0.  0.
         25    1    4    4    0    0 -0.72089286121E+02 -0.24838442746E+02 -0.22878378209E+03  0.27166770228E+03  0.12509000000E+03 0.  0.
         25    1    4    4    0    0  0.30534971956E+01 -0.13560968474E+02 -0.26469220818E+03  0.29309161858E+03  0.12509000000E+03 0.  0.
         25    1    3    3    0    0  0.69035788925E+02  0.38399411220E+02 -0.87506664338E+02  0.17188769397E+03  0.12509000000E+03 0.  0.
<mgrwt>
<rscale>  2 0.45288848E+03</rscale>
<asrwt>0</asrwt>
<pdfrwt beam="1">  1       21 0.11445909E-01 0.45288848E+03</pdfrwt>
<pdfrwt beam="2">  1       21 0.96884537E-01 0.45288848E+03</pdfrwt>
<totfact> 0.51812833E+04</totfact>
</mgrwt>
</event>
<event>
 7    0  0.4793433E-002  0.4606148E+03  0.7546771E-02  0.1024603E+00
         21   -1    0    0  502  501  0.00000000000E+00  0.00000000000E+00  0.12148673071E+03  0.12148673071E+03  0.00000000000E+00 0.  1.
         21   -1    0    0  501  502 -0.00000000000E+00 -0.00000000000E+00 -0.43660327718E+03  0.43660327718E+03  0.00000000000E+00 0.  1.
      99926    2    1    2    0    0  0.00000000000E+00 -0.88817841970E-15 -0.31511654647E+03  0.55809000789E+03  0.46061482722E+03 0.  0.
      99925    2    3    3    0    0 -0.10232783569E+03 -0.46708679822E+01 -0.12527578429E+03  0.30873117799E+03  0.26292226070E+03 0.  0.
         25    1    4    4    0    0 -0.81320924557E+02 -0.86376839337E+01 -0.98626039344E+02  0.17905950433E+03  0.12509000000E+03 0.  0.
         25    1    3    3    0    0  0.10232783569E+03  0.46708679822E+01 -0.18984076218E+03  0.24935882990E+03  0.12509000000E+03 0.  0.
         25    1    4    4    0    0 -0.21006911130E+02  0.39668159515E+01 -0.26649744944E+02  0.12967167366E+03  0.12509000000E+03 0.  0.
<mgrwt>
<rscale>  2 0.46061483E+03</rscale>
<asrwt>0</asrwt>
<pdfrwt beam="1">  1       21 0.17865695E-01 0.46061483E+03</pdfrwt>
<pdfrwt beam="2">  1       21 0.64206366E-01 0.46061483E+03</pdfrwt>
<totfact> 0.58684793E+04</totfact>
</mgrwt>
</event>
<event>
 7    0  0.4793433E-002  0.4582957E+03  0.7546771E-02  0.1025277E+00
         21   -1    0    0  502  501  0.00000000000E+00  0.00000000000E+00  0.43370027865E+03  0.43370027865E+03  0.00000000000E+00 0.  1.
         21   -1    0    0  501  502 -0.00000000000E+00 -0.00000000000E+00 -0.12107150912E+03  0.12107150912E+03  0.00000000000E+00 0.  1.
      99926    2    1    2    0    0  0.00000000000E+00  0.00000000000E+00  0.31262876952E+03  0.55477178777E+03  0.45829574401E+03 0.  0.
      99925    2    3    3    0    0  0.11331696143E+02  0.11430861327E+03  0.21845018885E+03  0.36057606289E+03  0.26286830489E+03 0.  0.
         25    1    4    4    0    0  0.70235417448E+01  0.36159242297E+02  0.58387171531E+02  0.14287543820E+03  0.12509000000E+03 0.  0.
         25    1    3    3    0    0 -0.11331696143E+02 -0.11430861327E+03  0.94178580676E+02  0.19419572488E+03  0.12509000000E+03 0.  0.
         25    1    4    4    0    0  0.43081543978E+01  0.78149370969E+02  0.16006301732E+03  0.21770062469E+03  0.12509000000E+03 0.  0.
<mgrwt>
<rscale>  2 0.45829574E+03</rscale>
<asrwt>0</asrwt>
<pdfrwt beam="1">  1       21 0.63779452E-01 0.45829574E+03</pdfrwt>
<pdfrwt beam="2">  1       21 0.17804634E-01 0.45829574E+03</pdfrwt>
<totfact> 0.59973262E+04</totfact>
</mgrwt>
</event>
<event>
 7    0  0.4793433E-002  0.4498046E+03  0.7546771E-02  0.1027780E+00
         21   -1    0    0  502  501  0.00000000000E+00  0.00000000000E+00  0.16200882829E+03  0.16200882829E+03  0.00000000000E+00 0. -1.
         21   -1    0    0  501  502 -0.00000000000E+00 -0.00000000000E+00 -0.31221161551E+03  0.31221161551E+03  0.00000000000E+00 0. -1.
      99926    2    1    2    0    0  0.00000000000E+00  0.00000000000E+00 -0.15020278723E+03  0.47422044380E+03  0.44980457093E+03 0.  0.
      99925    2    3    3    0    0 -0.31625142425E+02  0.41914189630E+02  0.48129402487E+01  0.26822449046E+03  0.26299099598E+03 0.  0.
         25    1    4    4    0    0 -0.13026786428E+01  0.11109993135E+02  0.39050352507E+02  0.13152021537E+03  0.12509000000E+03 0.  0.
         25    1    4    4    0    0 -0.30322463782E+02  0.30804196494E+02 -0.34237412258E+02  0.13670427510E+03  0.12509000000E+03 0.  0.
         25    1    3    3    0    0  0.31625142425E+02 -0.41914189630E+02 -0.15501572748E+03  0.20599595334E+03  0.12509000000E+03 0.  0.
<mgrwt>
<rscale>  2 0.44980457E+03</rscale>
<asrwt>0</asrwt>
<pdfrwt beam="1">  1       21 0.23824828E-01 0.44980457E+03</pdfrwt>
<pdfrwt beam="2">  1       21 0.45913472E-01 0.44980457E+03</pdfrwt>
<totfact> 0.69963978E+04</totfact>
</mgrwt>
</event>
<event>
 7    0  0.4793433E-002  0.4461288E+03  0.7546771E-02  0.1028883E+00
         21   -1    0    0  502  501  0.00000000000E+00  0.00000000000E+00  0.50992232498E+02  0.50992232498E+02  0.00000000000E+00 0.  1.
         21   -1    0    0  501  502 -0.00000000000E+00 -0.00000000000E+00 -0.97579010543E+03  0.97579010543E+03  0.00000000000E+00 0.  1.
      99926    2    1    2    0    0  0.00000000000E+00 -0.71054273576E-14 -0.92479787293E+03  0.10267823379E+04  0.44612875238E+03 0.  0.
      99925    2    3    3    0    0 -0.67746474911E+02  0.35223027348E+02 -0.75155728618E+03  0.79986813494E+03  0.26290764988E+03 0.  0.
         25    1    4    4    0    0 -0.42093679329E+02  0.55693299858E+02 -0.43210066171E+03  0.45522753809E+03  0.12509000000E+03 0.  0.
         25    1    3    3    0    0  0.67746474911E+02 -0.35223027348E+02 -0.17324058675E+03  0.22691420298E+03  0.12509000000E+03 0.  0.
         25    1    4    4    0    0 -0.25652795582E+02 -0.20470272510E+02 -0.31945662447E+03  0.34464059685E+03  0.12509000000E+03 0.  0.
<mgrwt>
<rscale>  2 0.44612875E+03</rscale>
<asrwt>0</asrwt>
<pdfrwt beam="1">  1       21 0.74988575E-02 0.44612875E+03</pdfrwt>
<pdfrwt beam="2">  1       21 0.14349855E+00 0.44612875E+03</pdfrwt>
<totfact> 0.40901220E+04</totfact>
</mgrwt>
</event>
<event>
 7    0  0.4793433E-002  0.4602956E+03  0.7546771E-02  0.1024696E+00
         21   -1    0    0  502  501  0.00000000000E+00  0.00000000000E+00  0.45943237185E+03  0.45943237185E+03  0.00000000000E+00 0.  1.
         21   -1    0    0  501  502 -0.00000000000E+00 -0.00000000000E+00 -0.11529009511E+03  0.11529009511E+03  0.00000000000E+00 0.  1.
      99926    2    1    2    0    0  0.00000000000E+00  0.00000000000E+00  0.34414227674E+03  0.57472246696E+03  0.46029556525E+03 0.  0.
      99925    2    3    3    0    0 -0.11118467189E+03  0.27230890223E+02  0.17653571330E+03  0.33630472254E+03  0.26235940175E+03 0.  0.
         25    1    3    3    0    0  0.11118467189E+03 -0.27230890223E+02  0.16760656344E+03  0.23841774442E+03  0.12509000000E+03 0.  0.
         25    1    4    4    0    0 -0.34637064160E+02  0.29858019217E+02  0.48931886060E+02  0.14189103248E+03  0.12509000000E+03 0.  0.
         25    1    4    4    0    0 -0.76547607734E+02 -0.26271289938E+01  0.12760382724E+03  0.19441369006E+03  0.12509000000E+03 0.  0.
<mgrwt>
<rscale>  2 0.46029557E+03</rscale>
<asrwt>0</asrwt>
<pdfrwt beam="1">  1       21 0.67563584E-01 0.46029557E+03</pdfrwt>
<pdfrwt beam="2">  1       21 0.16954426E-01 0.46029557E+03</pdfrwt>
<totfact> 0.57803169E+04</totfact>
</mgrwt>
</event>
<event>
 7    0  0.4793433E-002  0.4557186E+03  0.7546771E-02  0.1026030E+00
         21   -1    0    0  502  501  0.00000000000E+00  0.00000000000E+00  0.22768420390E+02  0.22768420390E+02  0.00000000000E+00 0.  1.
         21   -1    0    0  501  502 -0.00000000000E+00 -0.00000000000E+00 -0.22803449667E+04  0.22803449667E+04  0.00000000000E+00 0.  1.
      99926    2    1    2    0    0  0.00000000000E+00  0.00000000000E+00 -0.22575765463E+04  0.23031133871E+04  0.45571856595E+03 0.  0.
      99925    2    3    3    0    0 -0.11175840786E+02 -0.56261182960E+02 -0.92256563950E+03  0.96102849800E+03  0.26297945672E+03 0.  0.
         25    1    4    4    0    0 -0.30727746300E+02 -0.68540841399E+01 -0.36445475845E+03  0.38660826675E+03  0.12509000000E+03 0.  0.
         25    1    4    4    0    0  0.19551905515E+02 -0.49407098820E+02 -0.55811088106E+03  0.57442023126E+03  0.12509000000E+03 0.  0.
         25    1    3    3    0    0  0.11175840786E+02  0.56261182960E+02 -0.13350109068E+04  0.13420848891E+04  0.12509000000E+03 0.  0.
<mgrwt>
<rscale>  2 0.45571857E+03</rscale>
<asrwt>0</asrwt>
<pdfrwt beam="1">  1       21 0.33482973E-02 0.45571857E+03</pdfrwt>
<pdfrwt beam="2">  1       21 0.33534482E+00 0.45571857E+03</pdfrwt>
<totfact> 0.93100690E+03</totfact>
</mgrwt>
</event>
<event>
 7    0  0.4793433E-002  0.4549674E+03  0.7546771E-02  0.1026251E+00
         21   -1    0    0  502  501  0.00000000000E+00  0.00000000000E+00  0.24487784463E+03  0.24487784463E+03  0.00000000000E+00 0. -1.
         21   -1    0    0  501  502 -0.00000000000E+00 -0.00000000000E+00 -0.21132509106E+03  0.21132509106E+03  0.00000000000E+00 0. -1.
      99926    2    1    2    0    0  0.00000000000E+00  0.35527136788E-14  0.33552753573E+02  0.45620293569E+03  0.45496739582E+03 0.  0.
      99925    2    3    3    0    0  0.28272943791E+02  0.28441489140E+02  0.12727962467E+03  0.29483220686E+03  0.26290235772E+03 0.  0.
         25    1    4    4    0    0  0.19017160746E+02  0.30946188079E+02  0.24257792392E+02  0.13249629259E+03  0.12509000000E+03 0.  0.
         25    1    3    3    0    0 -0.28272943791E+02 -0.28441489140E+02 -0.93726871095E+02  0.16137072882E+03  0.12509000000E+03 0.  0.
         25    1    4    4    0    0  0.92557830458E+01 -0.25046989392E+01  0.10302183228E+03  0.16233591427E+03  0.12509000000E+03 0.  0.
<mgrwt>
<rscale>  2 0.45496740E+03</rscale>
<asrwt>0</asrwt>
<pdfrwt beam="1">  1       21 0.36011448E-01 0.45496740E+03</pdfrwt>
<pdfrwt beam="2">  1       21 0.31077219E-01 0.45496740E+03</pdfrwt>
<totfact> 0.68475604E+04</totfact>
</mgrwt>
</event>
<event>
 7    0  0.4793433E-002  0.4596036E+03  0.7546771E-02  0.1024896E+00
         21   -1    0    0  502  501  0.00000000000E+00  0.00000000000E+00  0.13091292376E+03  0.13091292376E+03  0.00000000000E+00 0.  1.
         21   -1    0    0  501  502 -0.00000000000E+00 -0.00000000000E+00 -0.40338923133E+03  0.40338923133E+03  0.00000000000E+00 0.  1.
      99926    2    1    2    0    0  0.17763568394E-14  0.00000000000E+00 -0.27247630757E+03  0.53430215509E+03  0.45960358435E+03 0.  0.
      99925    2    3    3    0    0  0.15297719181E+02 -0.10569587409E+03 -0.22785398803E+03  0.36387827908E+03  0.26283896993E+03 0.  0.
         25    1    3    3    0    0 -0.15297719181E+02  0.10569587409E+03 -0.44622319538E+02  0.17042387601E+03  0.12509000000E+03 0.  0.
         25    1    4    4    0    0  0.13346498848E+02 -0.41058541401E+02 -0.61491264035E+02  0.14591989757E+03  0.12509000000E+03 0.  0.
         25    1    4    4    0    0  0.19512203331E+01 -0.64637332691E+02 -0.16636272400E+03  0.21795838152E+03  0.12509000000E+03 0.  0.
<mgrwt>
<rscale>  2 0.45960358E+03</rscale>
<asrwt>0</asrwt>
<pdfrwt beam="1">  1       21 0.19251900E-01 0.45960358E+03</pdfrwt>
<pdfrwt beam="2">  1       21 0.59321946E-01 0.45960358E+03</pdfrwt>
<totfact> 0.60672103E+04</totfact>
</mgrwt>
</event>
<event>
 7    0  0.4793433E-002  0.4600048E+03  0.7546771E-02  0.1024780E+00
         21   -1    0    0  502  501  0.00000000000E+00  0.00000000000E+00  0.44687607400E+03  0.44687607400E+03  0.00000000000E+00 0. -1.
         21   -1    0    0  501  502 -0.00000000000E+00 -0.00000000000E+00 -0.11837980569E+03  0.11837980569E+03  0.00000000000E+00 0. -1.
      99926    2    1    2    0    0  0.00000000000E+00  0.14210854715E-13  0.32849626831E+03  0.56525587969E+03  0.46000479479E+03 0.  0.
      99925    2    3    3    0    0 -0.31166249537E+01 -0.64314945674E+02  0.32700969411E+03  0.42455817682E+03  0.26299844083E+03 0.  0.
         25    1    3    3    0    0  0.31166249537E+01  0.64314945674E+02  0.14865742061E+01  0.14069770286E+03  0.12509000000E+03 0.  0.
         25    1    4    4    0    0 -0.66977537461E+01 -0.71638243936E+02  0.15579780473E+03  0.21236139470E+03  0.12509000000E+03 0.  0.
         25    1    4    4    0    0  0.35811287924E+01  0.73232982621E+01  0.17121188938E+03  0.21219678213E+03  0.12509000000E+03 0.  0.
<mgrwt>
<rscale>  2 0.46000479E+03</rscale>
<asrwt>0</asrwt>
<pdfrwt beam="1">  1       21 0.65717069E-01 0.46000479E+03</pdfrwt>
<pdfrwt beam="2">  1       21 0.17408795E-01 0.46000479E+03</pdfrwt>
<totfact> 0.58518569E+04</totfact>
</mgrwt>
</event>
<event>
 7    0  0.4793433E-002  0.4590165E+03  0.7546771E-02  0.1025067E+00
         21   -1    0    0  502  501  0.00000000000E+00  0.00000000000E+00  0.68724418986E+02  0.68724418986E+02  0.00000000000E+00 0.  1.
         21   -1    0    0  501  502 -0.00000000000E+00 -0.00000000000E+00 -0.76645292293E+03  0.76645292293E+03  0.00000000000E+00 0.  1.
      99926    2    1    2    0    0  0.00000000000E+00 -0.17763568394E-14 -0.69772850394E+03  0.83517734191E+03  0.45901647817E+03 0.  0.
      99925    2    3    3    0    0 -0.44780675382E+02 -0.14588927341E+02 -0.24288227225E+03  0.36109850008E+03  0.26302506135E+03 0.  0.
         25    1    3    3    0    0  0.44780675382E+02  0.14588927341E+02 -0.45484623169E+03  0.47407884183E+03  0.12509000000E+03 0.  0.
         25    1    4    4    0    0  0.16467325703E+02 -0.20394458133E+02 -0.11662597014E+03  0.17302089974E+03  0.12509000000E+03 0.  0.
         25    1    4    4    0    0 -0.61248001085E+02  0.58055307913E+01 -0.12625630211E+03  0.18807760033E+03  0.12509000000E+03 0.  0.
<mgrwt>
<rscale>  2 0.45901648E+03</rscale>
<asrwt>0</asrwt>
<pdfrwt beam="1">  1       21 0.10106532E-01 0.45901648E+03</pdfrwt>
<pdfrwt beam="2">  1       21 0.11271367E+00 0.45901648E+03</pdfrwt>
<totfact> 0.44685040E+04</totfact>
</mgrwt>
</event>
<event>
 7    0  0.4793433E-002  0.4545585E+03  0.7546771E-02  0.1026371E+00
         21   -1    0    0  502  501  0.00000000000E+00  0.00000000000E+00  0.13337337841E+03  0.13337337841E+03  0.00000000000E+00 0. -1.
         21   -1    0    0  501  502 -0.00000000000E+00 -0.00000000000E+00 -0.38730263481E+03  0.38730263481E+03  0.00000000000E+00 0. -1.
      99926    2    1    2    0    0  0.71054273576E-14 -0.14210854715E-13 -0.25392925640E+03  0.52067601322E+03  0.45455851492E+03 0.  0.
      99925    2    3    3    0    0  0.61239123200E+02 -0.87103162896E+02 -0.20238041781E+03  0.34850754323E+03  0.26298760994E+03 0.  0.
         25    1    4    4    0    0  0.19404505916E+02 -0.72738190475E+02 -0.73165539476E+02  0.16330365419E+03  0.12509000000E+03 0.  0.
         25    1    3    3    0    0 -0.61239123200E+02  0.87103162896E+02 -0.51548838590E+02  0.17216846998E+03  0.12509000000E+03 0.  0.
         25    1    4    4    0    0  0.41834617285E+02 -0.14364972421E+02 -0.12921487833E+03  0.18520388905E+03  0.12509000000E+03 0.  0.
<mgrwt>
<rscale>  2 0.45455851E+03</rscale>
<asrwt>0</asrwt>
<pdfrwt beam="1">  1       21 0.19613732E-01 0.45455851E+03</pdfrwt>
<pdfrwt beam="2">  1       21 0.56956270E-01 0.45455851E+03</pdfrwt>
<totfact> 0.64065322E+04</totfact>
</mgrwt>
</event>
<event>
 7    0  0.4793433E-002  0.4472936E+03  0.7546771E-02  0.1028532E+00
         21   -1    0    0  502  501  0.00000000000E+00  0.00000000000E+00  0.15151677395E+03  0.15151677395E+03  0.00000000000E+00 0.  1.
         21   -1    0    0  501  502 -0.00000000000E+00 -0.00000000000E+00 -0.33011461118E+03  0.33011461118E+03  0.00000000000E+00 0.  1.
      99926    2    1    2    0    0  0.00000000000E+00  0.14210854715E-13 -0.17859783723E+03  0.48163138513E+03  0.44729364368E+03 0.  0.
      99925    2    3    3    0    0  0.17994938065E+02  0.80984620179E+02 -0.42235488943E+02  0.27883955928E+03  0.26284089635E+03 0.  0.
         25    1    4    4    0    0 -0.15208210974E+02  0.36299342533E+02  0.11753680775E+02  0.13166088660E+03  0.12509000000E+03 0.  0.
         25    1    4    4    0    0  0.33203149039E+02  0.44685277646E+02 -0.53989169718E+02  0.14717867268E+03  0.12509000000E+03 0.  0.
         25    1    3    3    0    0 -0.17994938065E+02 -0.80984620179E+02 -0.13636234828E+03  0.20279182585E+03  0.12509000000E+03 0.  0.
<mgrwt>
<rscale>  2 0.44729364E+03</rscale>
<asrwt>0</asrwt>
<pdfrwt beam="1">  1       21 0.22281879E-01 0.44729364E+03</pdfrwt>
<pdfrwt beam="2">  1       21 0.48546266E-01 0.44729364E+03</pdfrwt>
<totfact> 0.70815638E+04</totfact>
</mgrwt>
</event>
<event>
 7    0  0.4793433E-002  0.4523485E+03  0.7546771E-02  0.1027024E+00
         21   -1    0    0  502  501  0.00000000000E+00  0.00000000000E+00  0.34850161100E+02  0.34850161100E+02  0.00000000000E+00 0.  1.
         21   -1    0    0  501  502 -0.00000000000E+00 -0.00000000000E+00 -0.14678494274E+04  0.14678494274E+04  0.00000000000E+00 0.  1.
      99926    2    1    2    0    0  0.00000000000E+00  0.00000000000E+00 -0.14329992663E+04  0.15026995885E+04  0.45234848962E+03 0.  0.
      99925    2    3    3    0    0 -0.49020288556E+02  0.29749570049E+02 -0.58931036083E+03  0.64786246781E+03  0.26296587269E+03 0.  0.
         25    1    4    4    0    0 -0.50246315422E+02  0.41198098888E+02 -0.26672838385E+03  0.30168446168E+03  0.12509000000E+03 0.  0.
         25    1    4    4    0    0  0.12260268658E+01 -0.11448528839E+02 -0.32258197698E+03  0.34617800613E+03  0.12509000000E+03 0.  0.
         25    1    3    3    0    0  0.49020288556E+02 -0.29749570049E+02 -0.84368890547E+03  0.85483712070E+03  0.12509000000E+03 0.  0.
<mgrwt>
<rscale>  2 0.45234849E+03</rscale>
<asrwt>0</asrwt>
<pdfrwt beam="1">  1       21 0.51250252E-02 0.45234849E+03</pdfrwt>
<pdfrwt beam="2">  1       21 0.21586014E+00 0.45234849E+03</pdfrwt>
<totfact> 0.24207780E+04</totfact>
</mgrwt>
</event>
<event>
 7    0  0.4793433E-002  0.4427584E+03  0.7546771E-02  0.1029904E+00
         21   -1    0    0  502  501  0.00000000000E+00  0.00000000000E+00  0.25770084297E+03  0.25770084297E+03  0.00000000000E+00 0.  1.
         21   -1    0    0  501  502 -0.00000000000E+00 -0.00000000000E+00 -0.19017686936E+03  0.19017686936E+03  0.00000000000E+00 0.  1.
      99926    2    1    2    0    0  0.00000000000E+00  0.17763568394E-14  0.67523973609E+02  0.44787771234E+03  0.44275835192E+03 0.  0.
      99925    2    3    3    0    0 -0.35551323878E+02 -0.14663471254E+02  0.13773526464E+03  0.29936492667E+03  0.26300084064E+03 0.  0.
         25    1    4    4    0    0 -0.27818028787E+02 -0.14665424649E+02  0.11329642438E+03  0.17167558150E+03  0.12509000000E+03 0.  0.
         25    1    3    3    0    0  0.35551323878E+02  0.14663471254E+02 -0.70211291031E+02  0.14851278567E+03  0.12509000000E+03 0.  0.
         25    1    4    4    0    0 -0.77332950911E+01  0.19533949390E-02  0.24438840262E+02  0.12768934517E+03  0.12509000000E+03 0.  0.
<mgrwt>
<rscale>  2 0.44275835E+03</rscale>
<asrwt>0</asrwt>
<pdfrwt beam="1">  1       21 0.37897183E-01 0.44275835E+03</pdfrwt>
<pdfrwt beam="2">  1       21 0.27967186E-01 0.44275835E+03</pdfrwt>
<totfact> 0.76249331E+04</totfact>
</mgrwt>
</event>
<event>
 7    0  0.4793433E-002  0.4533042E+03  0.7546771E-02  0.1026741E+00
         21   -1    0    0  502  501  0.00000000000E+00  0.00000000000E+00  0.30605431407E+03  0.30605431407E+03  0.00000000000E+00 0. -1.
         21   -1    0    0  501  502 -0.00000000000E+00 -0.00000000000E+00 -0.16784989403E+03  0.16784989403E+03  0.00000000000E+00 0. -1.
      99926    2    1    2    0    0  0.00000000000E+00  0.00000000000E+00  0.13820442003E+03  0.47390420810E+03  0.45330424301E+03 0.  0.
      99925    2    3    3    0    0 -0.55987711123E+02 -0.88391451424E+02  0.12792384989E+03  0.31050019742E+03  0.26286534337E+03 0.  0.
         25    1    3    3    0    0  0.55987711123E+02  0.88391451424E+02  0.10280570140E+02  0.16340401067E+03  0.12509000000E+03 0.  0.
         25    1    4    4    0    0  0.75379787156E+01 -0.37707228989E+02  0.81938193285E+02  0.15440217570E+03  0.12509000000E+03 0.  0.
         25    1    4    4    0    0 -0.63525689839E+02 -0.50684222435E+02  0.45985656608E+02  0.15609802173E+03  0.12509000000E+03 0.  0.
<mgrwt>
<rscale>  2 0.45330424E+03</rscale>
<asrwt>0</asrwt>
<pdfrwt beam="1">  1       21 0.45007987E-01 0.45330424E+03</pdfrwt>
<pdfrwt beam="2">  1       21 0.24683808E-01 0.45330424E+03</pdfrwt>
<totfact> 0.68057849E+04</totfact>
</mgrwt>
</event>
<event>
 7    0  0.4793433E-002  0.4452538E+03  0.7546771E-02  0.1029147E+00
         21   -1    0    0  502  501  0.00000000000E+00  0.00000000000E+00  0.87570517004E+02  0.87570517004E+02  0.00000000000E+00 0. -1.
         21   -1    0    0  501  502 -0.00000000000E+00 -0.00000000000E+00 -0.56597511583E+03  0.56597511583E+03  0.00000000000E+00 0. -1.
      99926    2    1    2    0    0  0.00000000000E+00 -0.14210854715E-13 -0.47840459882E+03  0.65354563283E+03  0.44525378608E+03 0.  0.
      99925    2    3    3    0    0 -0.36255742850E+02  0.80441175891E+02 -0.38374521994E+03  0.47356461223E+03  0.26309273357E+03 0.  0.
         25    1    4    4    0    0 -0.39497683895E+02  0.65945777459E+02 -0.24933875215E+03  0.28935485830E+03  0.12509000000E+03 0.  0.
         25    1    3    3    0    0  0.36255742850E+02 -0.80441175891E+02 -0.94659378881E+02  0.17998102061E+03  0.12509000000E+03 0.  0.
         25    1    4    4    0    0  0.32419410445E+01  0.14495398431E+02 -0.13440646779E+03  0.18420975393E+03  0.12509000000E+03 0.  0.
<mgrwt>
<rscale>  2 0.44525379E+03</rscale>
<asrwt>0</asrwt>
<pdfrwt beam="1">  1       21 0.12878017E-01 0.44525379E+03</pdfrwt>
<pdfrwt beam="2">  1       21 0.83231638E-01 0.44525379E+03</pdfrwt>
<totfact> 0.59976592E+04</totfact>
</mgrwt>
</event>
<event>
 7    0  0.4793433E-002  0.4561144E+03  0.7546771E-02  0.1025914E+00
         21   -1    0    0  502  501  0.00000000000E+00  0.00000000000E+00  0.98184692735E+02  0.98184692735E+02  0.00000000000E+00 0.  1.
         21   -1    0    0  501  502 -0.00000000000E+00 -0.00000000000E+00 -0.52971694361E+03  0.52971694361E+03  0.00000000000E+00 0.  1.
      99926    2    1    2    0    0  0.00000000000E+00 -0.71054273576E-14 -0.43153225087E+03  0.62790163634E+03  0.45611443890E+03 0.  0.
      99925    2    3    3    0    0 -0.56325574110E+02  0.45065682358E+02 -0.39314756162E+03  0.47848818817E+03  0.26302557858E+03 0.  0.
         25    1    4    4    0    0 -0.45115158309E+01  0.43909318479E+02 -0.23878481506E+03  0.27315577612E+03  0.12509000000E+03 0.  0.
         25    1    3    3    0    0  0.56325574110E+02 -0.45065682358E+02 -0.38384689249E+02  0.14941344817E+03  0.12509000000E+03 0.  0.
         25    1    4    4    0    0 -0.51814058279E+02  0.11563638799E+01 -0.15436274656E+03  0.20533241205E+03  0.12509000000E+03 0.  0.
<mgrwt>
<rscale>  2 0.45611444E+03</rscale>
<asrwt>0</asrwt>
<pdfrwt beam="1">  1       21 0.14438926E-01 0.45611444E+03</pdfrwt>
<pdfrwt beam="2">  1       21 0.77899549E-01 0.45611444E+03</pdfrwt>
<totfact> 0.56494208E+04</totfact>
</mgrwt>
</event>
<event>
 7    0  0.4793433E-002  0.4412174E+03  0.7546771E-02  0.1030374E+00
         21   -1    0    0  502  501  0.00000000000E+00  0.00000000000E+00  0.17387386855E+03  0.17387386855E+03  0.00000000000E+00 0.  1.
         21   -1    0    0  501  502 -0.00000000000E+00 -0.00000000000E+00 -0.27990524061E+03  0.27990524061E+03  0.00000000000E+00 0.  1.
      99926    2    1    2    0    0  0.00000000000E+00 -0.35527136788E-14 -0.10603137207E+03  0.45377910916E+03  0.44121743851E+03 0.  0.
      99925    2    3    3    0    0  0.70438598936E+02  0.18988814035E+02  0.22714221487E+01  0.27294997817E+03  0.26301018982E+03 0.  0.
         25    1    4    4    0    0  0.63779364151E+02  0.37066089880E+02  0.13722975406E+02  0.14586819552E+03  0.12509000000E+03 0.  0.
         25    1    3    3    0    0 -0.70438598936E+02 -0.18988814035E+02 -0.10830279422E+03  0.18082913099E+03  0.12509000000E+03 0.  0.
         25    1    4    4    0    0  0.66592347851E+01 -0.18077275846E+02 -0.11451553257E+02  0.12708178265E+03  0.12509000000E+03 0.  0.
<mgrwt>
<rscale>  2 0.44121744E+03</rscale>
<asrwt>0</asrwt>
<pdfrwt beam="1">  1       21 0.25569687E-01 0.44121744E+03</pdfrwt>
<pdfrwt beam="2">  1       21 0.41162535E-01 0.44121744E+03</pdfrwt>
<totfact> 0.76710894E+04</totfact>
</mgrwt>
</event>
<event>
 7    0  0.4793433E-002  0.4593838E+03  0.7546771E-02  0.1024960E+00
         21   -1    0    0  502  501  0.00000000000E+00  0.00000000000E+00  0.24437856335E+03  0.24437856335E+03  0.00000000000E+00 0.  1.
         21   -1    0    0  501  502 -0.00000000000E+00 -0.00000000000E+00 -0.21588785733E+03  0.21588785733E+03  0.00000000000E+00 0.  1.
      99926    2    1    2    0    0  0.00000000000E+00  0.00000000000E+00  0.28490706017E+02  0.46026642068E+03  0.45938378038E+03 0.  0.
      99925    2    3    3    0    0  0.18084791264E+02  0.91982421199E+02  0.88351607446E+02  0.29287866394E+03  0.26302866720E+03 0.  0.
         25    1    4    4    0    0  0.13139609022E+02  0.38225046754E+02  0.85097814436E+02  0.15659805122E+03  0.12509000000E+03 0.  0.
         25    1    3    3    0    0 -0.18084791264E+02 -0.91982421199E+02 -0.59860901429E+02  0.16738775673E+03  0.12509000000E+03 0.  0.
         25    1    4    4    0    0  0.49451822427E+01  0.53757374445E+02  0.32537930102E+01  0.13628061272E+03  0.12509000000E+03 0.  0.
<mgrwt>
<rscale>  2 0.45938378E+03</rscale>
<asrwt>0</asrwt>
<pdfrwt beam="1">  1       21 0.35938024E-01 0.45938378E+03</pdfrwt>
<pdfrwt beam="2">  1       21 0.31748214E-01 0.45938378E+03</pdfrwt>
<totfact> 0.65828897E+04</totfact>
</mgrwt>
</event>
<event>
 7    0  0.4793433E-002  0.4472027E+03  0.7546771E-02  0.1028560E+00
         21   -1    0    0  502  501  0.00000000000E+00  0.00000000000E+00  0.13939119679E+03  0.13939119679E+03  0.00000000000E+00 0.  1.
         21   -1    0    0  501  502 -0.00000000000E+00 -0.00000000000E+00 -0.35868530994E+03  0.35868530994E+03  0.00000000000E+00 0.  1.
      99926    2    1    2    0    0  0.00000000000E+00  0.17763568394E-14 -0.21929411315E+03  0.49807650673E+03  0.44720274876E+03 0.  0.
      99925    2    3    3    0    0 -0.10493573289E+03 -0.92940267229E+01 -0.12834050678E+03  0.31094566058E+03  0.26290308326E+03 0.  0.
         25    1    4    4    0    0 -0.24203431210E+02 -0.31497225507E+02 -0.44136622137E+02  0.13846815811E+03  0.12509000000E+03 0.  0.
         25    1    4    4    0    0 -0.80732301676E+02  0.22203198784E+02 -0.84203884641E+02  0.17247750247E+03  0.12509000000E+03 0.  0.
         25    1    3    3    0    0  0.10493573289E+03  0.92940267229E+01 -0.90953606370E+02  0.18713084615E+03  0.12509000000E+03 0.  0.
<mgrwt>
<rscale>  2 0.44720275E+03</rscale>
<asrwt>0</asrwt>
<pdfrwt beam="1">  1       21 0.20498706E-01 0.44720275E+03</pdfrwt>
<pdfrwt beam="2">  1       21 0.52747839E-01 0.44720275E+03</pdfrwt>
<totfact> 0.69615927E+04</totfact>
</mgrwt>
</event>
<event>
 7    0  0.4793433E-002  0.4476349E+03  0.7546771E-02  0.1028430E+00
         21   -1    0    0  502  501  0.00000000000E+00  0.00000000000E+00  0.48052210263E+03  0.48052210263E+03  0.00000000000E+00 0.  1.
         21   -1    0    0  501  502 -0.00000000000E+00 -0.00000000000E+00 -0.10424964409E+03  0.10424964409E+03  0.00000000000E+00 0.  1.
      99926    2    1    2    0    0  0.00000000000E+00  0.00000000000E+00  0.37627245854E+03  0.58477174672E+03  0.44763493240E+03 0.  0.
      99925    2    3    3    0    0  0.93733229533E+02 -0.42837676166E+02  0.27251455334E+03  0.39232903886E+03  0.26274875477E+03 0.  0.
         25    1    4    4    0    0  0.37049424956E+02 -0.70305200743E+01  0.18184666096E+03  0.22391472552E+03  0.12509000000E+03 0.  0.
         25    1    4    4    0    0  0.56683804577E+02 -0.35807156091E+02  0.90667892378E+02  0.16841431334E+03  0.12509000000E+03 0.  0.
         25    1    3    3    0    0 -0.93733229533E+02  0.42837676166E+02  0.10375790520E+03  0.19244270786E+03  0.12509000000E+03 0.  0.
<mgrwt>
<rscale>  2 0.44763493E+03</rscale>
<asrwt>0</asrwt>
<pdfrwt beam="1">  1       21 0.70665014E-01 0.44763493E+03</pdfrwt>
<pdfrwt beam="2">  1       21 0.15330830E-01 0.44763493E+03</pdfrwt>
<totfact> 0.63226786E+04</totfact>
</mgrwt>
</event>
<event>
 7    0  0.4793433E-002  0.4498201E+03  0.7546771E-02  0.1027776E+00
         21   -1    0    0  502  501  0.00000000000E+00  0.00000000000E+00  0.59664907603E+02  0.59664907603E+02  0.00000000000E+00 0. -1.
         21   -1    0    0  501  502 -0.00000000000E+00 -0.00000000000E+00 -0.84781046708E+03  0.84781046708E+03  0.00000000000E+00 0. -1.
      99926    2    1    2    0    0  0.71054273576E-14  0.00000000000E+00 -0.78814555948E+03  0.90747537469E+03  0.44982011153E+03 0.  0.
      99925    2    3    3    0    0  0.52351901664E+02  0.71663497916E+02 -0.62318941096E+03  0.68223235576E+03  0.26305810531E+03 0.  0.
         25    1    4    4    0    0  0.59286420783E+02  0.26545807541E+02 -0.26613072806E+03  0.30115217434E+03  0.12509000000E+03 0.  0.
         25    1    3    3    0    0 -0.52351901664E+02 -0.71663497916E+02 -0.16495614852E+03  0.22524301893E+03  0.12509000000E+03 0.  0.
         25    1    4    4    0    0 -0.69345191189E+01  0.45117690375E+02 -0.35705868290E+03  0.38108018142E+03  0.12509000000E+03 0.  0.
<mgrwt>
<rscale>  2 0.44982011E+03</rscale>
<asrwt>0</asrwt>
<pdfrwt beam="1">  1       21 0.87742518E-02 0.44982011E+03</pdfrwt>
<pdfrwt beam="2">  1       21 0.12467800E+00 0.44982011E+03</pdfrwt>
<totfact> 0.44696568E+04</totfact>
</mgrwt>
</event>
<event>
 7    0  0.4793433E-002  0.4479812E+03  0.7546771E-02  0.1028326E+00
         21   -1    0    0  502  501  0.00000000000E+00  0.00000000000E+00  0.58792081853E+03  0.58792081853E+03  0.00000000000E+00 0.  1.
         21   -1    0    0  501  502 -0.00000000000E+00 -0.00000000000E+00 -0.85337657580E+02  0.85337657580E+02  0.00000000000E+00 0.  1.
      99926    2    1    2    0    0 -0.14210854715E-13  0.00000000000E+00  0.50258316095E+03  0.67325847611E+03  0.44798118486E+03 0.  0.
      99925    2    3    3    0    0 -0.83411340284E+02 -0.26933578987E+02  0.40907784999E+03  0.49416738018E+03  0.26300920690E+03 0.  0.
         25    1    4    4    0    0 -0.74526414513E+02 -0.39901922054E+02  0.23177074766E+03  0.27660718973E+03  0.12509000000E+03 0.  0.
         25    1    3    3    0    0  0.83411340284E+02  0.26933578987E+02  0.93505310964E+02  0.17909109594E+03  0.12509000000E+03 0.  0.
         25    1    4    4    0    0 -0.88849257716E+01  0.12968343068E+02  0.17730710234E+03  0.21756019044E+03  0.12509000000E+03 0.  0.
<mgrwt>
<rscale>  2 0.44798118E+03</rscale>
<asrwt>0</asrwt>
<pdfrwt beam="1">  1       21 0.86458942E-01 0.44798118E+03</pdfrwt>
<pdfrwt beam="2">  1       21 0.12549656E-01 0.44798118E+03</pdfrwt>
<totfact> 0.57492539E+04</totfact>
</mgrwt>
</event>
<event>
 6    0  0.4793433E-002  0.4468775E+03  0.7546771E-02  0.1028657E+00
         21   -1    0    0  502  501  0.00000000000E+00  0.00000000000E+00  0.24763670943E+03  0.24763670943E+03  0.00000000000E+00 0.  1.
         21   -1    0    0  501  502 -0.00000000000E+00 -0.00000000000E+00 -0.20160529789E+03  0.20160529789E+03  0.00000000000E+00 0.  1.
      99926    2    1    2    0    0  0.00000000000E+00  0.00000000000E+00  0.46031411547E+02  0.44924200732E+03  0.44687748913E+03 0.  0.
         25    1    3    3    0    0  0.43407428700E+02 -0.56441342212E+02  0.27030179081E+02  0.14645125011E+03  0.12509000000E+03 0.  0.
         25    1    3    3    0    0  0.54586988281E+01  0.10030285050E+03  0.18669387541E+02  0.16151319866E+03  0.12509000000E+03 0.  0.
         25    1    3    3    0    0 -0.48866127528E+02 -0.43861508287E+02  0.33184492504E+00  0.14127755855E+03  0.12509000000E+03 0.  0.
<mgrwt>
<rscale>  2 0.44687749E+03</rscale>
<asrwt>0</asrwt>
<pdfrwt beam="1">  1       21 0.36417163E-01 0.44687749E+03</pdfrwt>
<pdfrwt beam="2">  1       21 0.29647838E-01 0.44687749E+03</pdfrwt>
<totfact> 0.73626653E+04</totfact>
</mgrwt>
</event>
<event>
 7    0  0.4793433E-002  0.4750166E+03  0.7546771E-02  0.1020514E+00
         21   -1    0    0  502  501  0.00000000000E+00  0.00000000000E+00  0.22529587144E+03  0.22529587144E+03  0.00000000000E+00 0.  1.
         21   -1    0    0  501  502 -0.00000000000E+00 -0.00000000000E+00 -0.25038272541E+03  0.25038272541E+03  0.00000000000E+00 0.  1.
      99926    2    1    2    0    0 -0.17763568394E-14  0.00000000000E+00 -0.25086853969E+02  0.47567859686E+03  0.47501660736E+03 0.  0.
      99925    2    3    3    0    0 -0.13371154678E+02  0.66321268909E+02 -0.12775264595E+03  0.30027884934E+03  0.26319071094E+03 0.  0.
         25    1    3    3    0    0  0.13371154678E+02 -0.66321268909E+02  0.10266579198E+03  0.17539974752E+03  0.12509000000E+03 0.  0.
         25    1    4    4    0    0  0.34151909459E+02  0.32916707806E+02 -0.65688200577E+02  0.14903794942E+03  0.12509000000E+03 0.  0.
         25    1    4    4    0    0 -0.47523064137E+02  0.33404561103E+02 -0.62064445376E+02  0.15124089992E+03  0.12509000000E+03 0.  0.
<mgrwt>
<rscale>  2 0.47501661E+03</rscale>
<asrwt>0</asrwt>
<pdfrwt beam="1">  1       21 0.33131746E-01 0.47501661E+03</pdfrwt>
<pdfrwt beam="2">  1       21 0.36820989E-01 0.47501661E+03</pdfrwt>
<totfact> 0.57337477E+04</totfact>
</mgrwt>
</event>
<event>
 7    0  0.4793433E-002  0.4619024E+03  0.7546771E-02  0.1024231E+00
         21   -1    0    0  502  501  0.00000000000E+00  0.00000000000E+00  0.82751442701E+02  0.82751442701E+02  0.00000000000E+00 0.  1.
         21   -1    0    0  501  502 -0.00000000000E+00 -0.00000000000E+00 -0.64456212677E+03  0.64456212677E+03  0.00000000000E+00 0.  1.
      99926    2    1    2    0    0 -0.14210854715E-13 -0.33306690739E-15 -0.56181068407E+03  0.72731356948E+03  0.46190235289E+03 0.  0.
      99925    2    3    3    0    0  0.11842703922E+03 -0.86177323207E+00 -0.37637537455E+03  0.47421384923E+03  0.26304875207E+03 0.  0.
         25    1    3    3    0    0 -0.11842703922E+03  0.86177323207E+00 -0.18543530952E+03  0.25309972024E+03  0.12509000000E+03 0.  0.
         25    1    4    4    0    0  0.89830166631E+02 -0.28595779735E+02 -0.21945469389E+03  0.26962019254E+03  0.12509000000E+03 0.  0.
         25    1    4    4    0    0  0.28596872585E+02  0.27734006503E+02 -0.15692068066E+03  0.20459365669E+03  0.12509000000E+03 0.  0.
<mgrwt>
<rscale>  2 0.46190235E+03</rscale>
<asrwt>0</asrwt>
<pdfrwt beam="1">  1       21 0.12169330E-01 0.46190235E+03</pdfrwt>
<pdfrwt beam="2">  1       21 0.94788545E-01 0.46190235E+03</pdfrwt>
<totfact> 0.48744699E+04</totfact>
</mgrwt>
</event>
<event>
 7    0  0.4793433E-002  0.4555053E+03  0.7546771E-02  0.1026093E+00
         21   -1    0    0  502  501  0.00000000000E+00  0.00000000000E+00  0.41152200469E+03  0.41152200469E+03  0.00000000000E+00 0.  1.
         21   -1    0    0  501  502 -0.00000000000E+00 -0.00000000000E+00 -0.12604735392E+03  0.12604735392E+03  0.00000000000E+00 0.  1.
      99926    2    1    2    0    0  0.00000000000E+00  0.35527136788E-14  0.28547465077E+03  0.53756935860E+03  0.45550525691E+03 0.  0.
      99925    2    3    3    0    0 -0.11050091465E+03  0.18025326611E+02  0.20268515289E+03  0.35038769925E+03  0.26297320024E+03 0.  0.
         25    1    3    3    0    0  0.11050091465E+03 -0.18025326611E+02  0.82789497881E+02  0.18718165935E+03  0.12509000000E+03 0.  0.
         25    1    4    4    0    0 -0.70067194589E+02  0.47068829799E+02  0.99403767045E+02  0.18070280435E+03  0.12509000000E+03 0.  0.
         25    1    4    4    0    0 -0.40433720065E+02 -0.29043503188E+02  0.10328138584E+03  0.16968489490E+03  0.12509000000E+03 0.  0.
<mgrwt>
<rscale>  2 0.45550526E+03</rscale>
<asrwt>0</asrwt>
<pdfrwt beam="1">  1       21 0.60517941E-01 0.45550526E+03</pdfrwt>
<pdfrwt beam="2">  1       21 0.18536376E-01 0.45550526E+03</pdfrwt>
<totfact> 0.62445405E+04</totfact>
</mgrwt>
</event>
<event>
 7    0  0.4793433E-002  0.4597495E+03  0.7546771E-02  0.1024854E+00
         21   -1    0    0  502  501  0.00000000000E+00  0.00000000000E+00  0.20591998635E+03  0.20591998635E+03  0.00000000000E+00 0.  1.
         21   -1    0    0  501  502 -0.00000000000E+00 -0.00000000000E+00 -0.25661621883E+03  0.25661621883E+03  0.00000000000E+00 0.  1.
      99926    2    1    2    0    0  0.00000000000E+00  0.00000000000E+00 -0.50696232477E+02  0.46253620519E+03  0.45974953303E+03 0.  0.
      99925    2    3    3    0    0 -0.98325872476E+01  0.45766049862E+02 -0.14031951791E+03  0.30169139649E+03  0.26293900532E+03 0.  0.
         25    1    3    3    0    0  0.98325872476E+01 -0.45766049862E+02  0.89623285433E+02  0.16084480869E+03  0.12509000000E+03 0.  0.
         25    1    4    4    0    0 -0.40830844152E+02  0.67423179052E+01 -0.58778697485E+02  0.14427425295E+03  0.12509000000E+03 0.  0.
         25    1    4    4    0    0  0.30998256905E+02  0.39023731956E+02 -0.81540820425E+02  0.15741714355E+03  0.12509000000E+03 0.  0.
<mgrwt>
<rscale>  2 0.45974953E+03</rscale>
<asrwt>0</asrwt>
<pdfrwt beam="1">  1       21 0.30282351E-01 0.45974953E+03</pdfrwt>
<pdfrwt beam="2">  1       21 0.37737679E-01 0.45974953E+03</pdfrwt>
<totfact> 0.65480408E+04</totfact>
</mgrwt>
</event>
<event>
 7    0  0.4793433E-002  0.4538870E+03  0.7546771E-02  0.1026569E+00
         21   -1    0    0  502  501  0.00000000000E+00  0.00000000000E+00  0.28137918393E+03  0.28137918393E+03  0.00000000000E+00 0.  1.
         21   -1    0    0  501  502 -0.00000000000E+00 -0.00000000000E+00 -0.18303898214E+03  0.18303898214E+03  0.00000000000E+00 0.  1.
      99926    2    1    2    0    0 -0.14210854715E-13 -0.35527136788E-14  0.98340201798E+02  0.46441816607E+03  0.45388703185E+03 0.  0.
      99925    2    3    3    0    0 -0.10938739994E+03 -0.47529243773E+01  0.86728109750E+02  0.29777320714E+03  0.26298084400E+03 0.  0.
         25    1    4    4    0    0 -0.69656816813E+02  0.34678147159E+02  0.36081491754E+02  0.15167078877E+03  0.12509000000E+03 0.  0.
         25    1    3    3    0    0  0.10938739994E+03  0.47529243773E+01  0.11612092048E+02  0.16664495893E+03  0.12509000000E+03 0.  0.
         25    1    4    4    0    0 -0.39730583128E+02 -0.39431071536E+02  0.50646617996E+02  0.14610241837E+03  0.12509000000E+03 0.  0.
<mgrwt>
<rscale>  2 0.45388703E+03</rscale>
<asrwt>0</asrwt>
<pdfrwt beam="1">  1       21 0.41379291E-01 0.45388703E+03</pdfrwt>
<pdfrwt beam="2">  1       21 0.26917498E-01 0.45388703E+03</pdfrwt>
<totfact> 0.68456026E+04</totfact>
</mgrwt>
</event>
<event>
 7    0  0.4793433E-002  0.4555072E+03  0.7546771E-02  0.1026092E+00
         21   -1    0    0  502  501  0.00000000000E+00  0.00000000000E+00  0.38080355575E+03  0.38080355575E+03  0.00000000000E+00 0. -1.
         21   -1    0    0  501  502 -0.00000000000E+00 -0.00000000000E+00 -0.13621643466E+03  0.13621643466E+03  0.00000000000E+00 0. -1.
      99926    2    1    2    0    0  0.00000000000E+00 -0.10547118734E-14  0.24458712109E+03  0.51701999042E+03  0.45550720157E+03 0.  0.
      99925    2    3    3    0    0  0.70444599579E+02 -0.13093737363E+00  0.52622369173E+02  0.27731093169E+03  0.26300148354E+03 0.  0.
         25    1    4    4    0    0  0.29708982631E+02 -0.14913414177E+02  0.64092654652E+02  0.14443133334E+03  0.12509000000E+03 0.  0.
         25    1    4    4    0    0  0.40735616948E+02  0.14782476803E+02 -0.11470285478E+02  0.13287959835E+03  0.12509000000E+03 0.  0.
         25    1    3    3    0    0 -0.70444599579E+02  0.13093737363E+00  0.19196475192E+03  0.23970905872E+03  0.12509000000E+03 0.  0.
<mgrwt>
<rscale>  2 0.45550720E+03</rscale>
<asrwt>0</asrwt>
<pdfrwt beam="1">  1       21 0.56000523E-01 0.45550720E+03</pdfrwt>
<pdfrwt beam="2">  1       21 0.20031829E-01 0.45550720E+03</pdfrwt>
<totfact> 0.63833476E+04</totfact>
</mgrwt>
</event>
<event>
 7    0  0.4793433E-002  0.4544090E+03  0.7546771E-02  0.1026415E+00
         21   -1    0    0  502  501  0.00000000000E+00  0.00000000000E+00  0.89354703532E+03  0.89354703532E+03  0.00000000000E+00 0. -1.
         21   -1    0    0  501  502 -0.00000000000E+00 -0.00000000000E+00 -0.57771867891E+02  0.57771867891E+02  0.00000000000E+00 0. -1.
      99926    2    1    2    0    0  0.00000000000E+00  0.00000000000E+00  0.83577516743E+03  0.95131890321E+03  0.45440898441E+03 0.  0.
      99925    2    3    3    0    0 -0.10805451208E+03 -0.70982109800E+01  0.46284610240E+03  0.54333635723E+03  0.26317621550E+03 0.  0.
         25    1    3    3    0    0  0.10805451208E+03  0.70982109800E+01  0.37292906504E+03  0.40798254599E+03  0.12509000000E+03 0.  0.
         25    1    4    4    0    0 -0.20369175913E+02  0.22371300115E+02  0.22217202959E+03  0.25675532561E+03  0.12509000000E+03 0.  0.
         25    1    4    4    0    0 -0.87685336169E+02 -0.29469511095E+02  0.24067407281E+03  0.28658103162E+03  0.12509000000E+03 0.  0.
<mgrwt>
<rscale>  2 0.45440898E+03</rscale>
<asrwt>0</asrwt>
<pdfrwt beam="1">  1       21 0.13140397E+00 0.45440898E+03</pdfrwt>
<pdfrwt beam="2">  1       21 0.84958635E-02 0.45440898E+03</pdfrwt>
<totfact> 0.41277890E+04</totfact>
</mgrwt>
</event>
<event>
 7    0  0.4793433E-002  0.4796967E+03  0.7546771E-02  0.1019219E+00
         21   -1    0    0  502  501  0.00000000000E+00  0.00000000000E+00  0.18616846645E+03  0.18616846645E+03  0.00000000000E+00 0.  1.
         21   -1    0    0  501  502 -0.00000000000E+00 -0.00000000000E+00 -0.30900635678E+03  0.30900635678E+03  0.00000000000E+00 0.  1.
      99926    2    1    2    0    0  0.00000000000E+00  0.17763568394E-14 -0.12283789033E+03  0.49517482322E+03  0.47969673571E+03 0.  0.
      99925    2    3    3    0    0 -0.46803467968E+02  0.90630733147E+01 -0.20613340662E+03  0.33750949715E+03  0.26296192772E+03 0.  0.
         25    1    4    4    0    0 -0.31965067634E+02  0.35622672918E+02 -0.13613266877E+03  0.19097212357E+03  0.12509000000E+03 0.  0.
         25    1    4    4    0    0 -0.14838400334E+02 -0.26559599604E+02 -0.70000737854E+02  0.14653737358E+03  0.12509000000E+03 0.  0.
         25    1    3    3    0    0  0.46803467968E+02 -0.90630733147E+01  0.83295516292E+02  0.15766532607E+03  0.12509000000E+03 0.  0.
<mgrwt>
<rscale>  2 0.47969674E+03</rscale>
<asrwt>0</asrwt>
<pdfrwt beam="1">  1       21 0.27377716E-01 0.47969674E+03</pdfrwt>
<pdfrwt beam="2">  1       21 0.45442111E-01 0.47969674E+03</pdfrwt>
<totfact> 0.54184131E+04</totfact>
</mgrwt>
</event>
<event>
 7    0  0.4793433E-002  0.4556759E+03  0.7546771E-02  0.1026043E+00
         21   -1    0    0  502  501  0.00000000000E+00  0.00000000000E+00  0.16431870933E+03  0.16431870933E+03  0.00000000000E+00 0.  1.
         21   -1    0    0  501  502 -0.00000000000E+00 -0.00000000000E+00 -0.31591129777E+03  0.31591129777E+03  0.00000000000E+00 0.  1.
      99926    2    1    2    0    0 -0.88817841970E-15  0.00000000000E+00 -0.15159258844E+03  0.48023000711E+03  0.45567592306E+03 0.  0.
      99925    2    3    3    0    0  0.72031859071E+01 -0.39862752550E+02 -0.20736942678E+03  0.33740322837E+03  0.26305500266E+03 0.  0.
         25    1    3    3    0    0 -0.72031859071E+01  0.39862752550E+02  0.55776838340E+02  0.14282677873E+03  0.12509000000E+03 0.  0.
         25    1    4    4    0    0 -0.30222564282E+02 -0.33859714025E+02 -0.12710587522E+03  0.18401982295E+03  0.12509000000E+03 0.  0.
         25    1    4    4    0    0  0.37425750189E+02 -0.60030385250E+01 -0.80263551563E+02  0.15338340542E+03  0.12509000000E+03 0.  0.
<mgrwt>
<rscale>  2 0.45567592E+03</rscale>
<asrwt>0</asrwt>
<pdfrwt beam="1">  1       21 0.24164516E-01 0.45567592E+03</pdfrwt>
<pdfrwt beam="2">  1       21 0.46457543E-01 0.45567592E+03</pdfrwt>
<totfact> 0.66326795E+04</totfact>
</mgrwt>
</event>
<event>
 7    0  0.4793433E-002  0.4441316E+03  0.7546771E-02  0.1029487E+00
         21   -1    0    0  502  501  0.00000000000E+00  0.00000000000E+00  0.80218361153E+02  0.80218361153E+02  0.00000000000E+00 0. -1.
         21   -1    0    0  501  502 -0.00000000000E+00 -0.00000000000E+00 -0.61473733249E+03  0.61473733249E+03  0.00000000000E+00 0. -1.
      99926    2    1    2    0    0  0.00000000000E+00  0.00000000000E+00 -0.53451897134E+03  0.69495569365E+03  0.44413160821E+03 0.  0.
      99925    2    3    3    0    0  0.50223285781E+02 -0.88832300862E+02 -0.32147428012E+03  0.42765604032E+03  0.26292664363E+03 0.  0.
         25    1    4    4    0    0  0.45969285353E+02 -0.78272364058E+02 -0.15265046449E+03  0.21723123758E+03  0.12509000000E+03 0.  0.
         25    1    4    4    0    0  0.42540004282E+01 -0.10559936803E+02 -0.16882381563E+03  0.21042480274E+03  0.12509000000E+03 0.  0.
         25    1    3    3    0    0 -0.50223285781E+02  0.88832300862E+02 -0.21304469122E+03  0.26729965333E+03  0.12509000000E+03 0.  0.
<mgrwt>
<rscale>  2 0.44413161E+03</rscale>
<asrwt>0</asrwt>
<pdfrwt beam="1">  1       21 0.11796818E-01 0.44413161E+03</pdfrwt>
<pdfrwt beam="2">  1       21 0.90402548E-01 0.44413161E+03</pdfrwt>
<totfact> 0.57980570E+04</totfact>
</mgrwt>
</event>
<event>
 7    0  0.4793433E-002  0.4428883E+03  0.7546771E-02  0.1029864E+00
         21   -1    0    0  502  501  0.00000000000E+00  0.00000000000E+00  0.93345874716E+03  0.93345874716E+03  0.00000000000E+00 0. -1.
         21   -1    0    0  501  502 -0.00000000000E+00 -0.00000000000E+00 -0.52533140058E+02  0.52533140058E+02  0.00000000000E+00 0. -1.
      99926    2    1    2    0    0  0.17763568394E-14  0.35527136788E-14  0.88092560710E+03  0.98599188722E+03  0.44288833402E+03 0.  0.
      99925    2    3    3    0    0 -0.12406280510E+02 -0.18857331892E+02  0.78092641646E+03  0.82426105840E+03  0.26277501727E+03 0.  0.
         25    1    4    4    0    0  0.16406557390E+02 -0.33224426169E+02  0.31985282316E+03  0.34543649808E+03  0.12509000000E+03 0.  0.
         25    1    4    4    0    0 -0.28812837900E+02  0.14367094277E+02  0.46107359330E+03  0.47882456032E+03  0.12509000000E+03 0.  0.
         25    1    3    3    0    0  0.12406280510E+02  0.18857331892E+02  0.99999190637E+02  0.16173082882E+03  0.12509000000E+03 0.  0.
<mgrwt>
<rscale>  2 0.44288833E+03</rscale>
<asrwt>0</asrwt>
<pdfrwt beam="1">  1       21 0.13727333E+00 0.44288833E+03</pdfrwt>
<pdfrwt beam="2">  1       21 0.77254623E-02 0.44288833E+03</pdfrwt>
<totfact> 0.43706831E+04</totfact>
</mgrwt>
</event>
<event>
 7    0  0.4793433E-002  0.4672926E+03  0.7546771E-02  0.1022687E+00
         21   -1    0    0  502  501  0.00000000000E+00  0.00000000000E+00  0.30952942730E+03  0.30952942730E+03  0.00000000000E+00 0. -1.
         21   -1    0    0  501  502 -0.00000000000E+00 -0.00000000000E+00 -0.17636639800E+03  0.17636639800E+03  0.00000000000E+00 0. -1.
      99926    2    1    2    0    0  0.00000000000E+00  0.00000000000E+00  0.13316302930E+03  0.48589582530E+03  0.46729258572E+03 0.  0.
      99925    2    3    3    0    0  0.72515598042E+02 -0.44030136426E+02  0.17747327637E+03  0.32839004455E+03  0.26295644632E+03 0.  0.
         25    1    4    4    0    0  0.76268386532E+01 -0.33238245472E+02  0.53032750998E+02  0.14008187038E+03  0.12509000000E+03 0.  0.
         25    1    4    4    0    0  0.64888759389E+02 -0.10791890954E+02  0.12444052538E+03  0.18830817417E+03  0.12509000000E+03 0.  0.
         25    1    3    3    0    0 -0.72515598042E+02  0.44030136426E+02 -0.44310247071E+02  0.15750578075E+03  0.12509000000E+03 0.  0.
<mgrwt>
<rscale>  2 0.46729259E+03</rscale>
<asrwt>0</asrwt>
<pdfrwt beam="1">  1       21 0.45519033E-01 0.46729259E+03</pdfrwt>
<pdfrwt beam="2">  1       21 0.25936235E-01 0.46729259E+03</pdfrwt>
<totfact> 0.60183637E+04</totfact>
</mgrwt>
</event>
<event>
 7    0  0.4793433E-002  0.4743903E+03  0.7546771E-02  0.1020688E+00
         21   -1    0    0  502  501  0.00000000000E+00  0.00000000000E+00  0.21611027951E+03  0.21611027951E+03  0.00000000000E+00 0.  1.
         21   -1    0    0  501  502 -0.00000000000E+00 -0.00000000000E+00 -0.26033720571E+03  0.26033720571E+03  0.00000000000E+00 0.  1.
      99926    2    1    2    0    0  0.00000000000E+00 -0.14210854715E-13 -0.44226926198E+02  0.47644748522E+03  0.47439032997E+03 0.  0.
      99925    2    3    3    0    0  0.37976732224E+02  0.11262306268E+03 -0.81609200922E+02  0.29989401173E+03  0.26296419938E+03 0.  0.
         25    1    4    4    0    0  0.39702398094E+02  0.36421989150E+02 -0.92477484593E+01  0.13651326185E+03  0.12509000000E+03 0.  0.
         25    1    4    4    0    0 -0.17256658705E+01  0.76201073531E+02 -0.72361452462E+02  0.16338074988E+03  0.12509000000E+03 0.  0.
         25    1    3    3    0    0 -0.37976732224E+02 -0.11262306268E+03  0.37382274724E+02  0.17655347349E+03  0.12509000000E+03 0.  0.
<mgrwt>
<rscale>  2 0.47439033E+03</rscale>
<asrwt>0</asrwt>
<pdfrwt beam="1">  1       21 0.31780924E-01 0.47439033E+03</pdfrwt>
<pdfrwt beam="2">  1       21 0.38284883E-01 0.47439033E+03</pdfrwt>
<totfact> 0.57567219E+04</totfact>
</mgrwt>
</event>
<event>
 7    0  0.4793433E-002  0.4583672E+03  0.7546771E-02  0.1025256E+00
         21   -1    0    0  502  501  0.00000000000E+00  0.00000000000E+00  0.43610929850E+03  0.43610929850E+03  0.00000000000E+00 0. -1.
         21   -1    0    0  501  502 -0.00000000000E+00 -0.00000000000E+00 -0.12044025368E+03  0.12044025368E+03  0.00000000000E+00 0. -1.
      99926    2    1    2    0    0  0.00000000000E+00  0.71054273576E-14  0.31566904483E+03  0.55654955218E+03  0.45836716524E+03 0.  0.
      99925    2    3    3    0    0 -0.53203233648E+02  0.49972063727E+02  0.30793313748E+03  0.41151457852E+03  0.26304683984E+03 0.  0.
         25    1    4    4    0    0  0.17305880265E+01 -0.16984706468E+01  0.11866024060E+03  0.17243445287E+03  0.12509000000E+03 0.  0.
         25    1    3    3    0    0  0.53203233648E+02 -0.49972063727E+02  0.77359073480E+01  0.14503497367E+03  0.12509000000E+03 0.  0.
         25    1    4    4    0    0 -0.54933821674E+02  0.51670534374E+02  0.18927289688E+03  0.23908012565E+03  0.12509000000E+03 0.  0.
<mgrwt>
<rscale>  2 0.45836717E+03</rscale>
<asrwt>0</asrwt>
<pdfrwt beam="1">  1       21 0.64133720E-01 0.45836717E+03</pdfrwt>
<pdfrwt beam="2">  1       21 0.17711802E-01 0.45836717E+03</pdfrwt>
<totfact> 0.59826222E+04</totfact>
</mgrwt>
</event>
<event>
 7    0  0.4793433E-002  0.4505634E+03  0.7546771E-02  0.1027554E+00
         21   -1    0    0  502  501  0.00000000000E+00  0.00000000000E+00  0.57797366743E+03  0.57797366743E+03  0.00000000000E+00 0. -1.
         21   -1    0    0  501  502 -0.00000000000E+00 -0.00000000000E+00 -0.87809943051E+02  0.87809943051E+02  0.00000000000E+00 0. -1.
      99926    2    1    2    0    0  0.00000000000E+00  0.00000000000E+00  0.49016372438E+03  0.66578361048E+03  0.45056335769E+03 0.  0.
      99925    2    3    3    0    0  0.90441235792E+02  0.51590991083E+02  0.26217049802E+03  0.38565923300E+03  0.26297989747E+03 0.  0.
         25    1    4    4    0    0  0.58638705534E+01  0.15908558145E+02  0.98349926770E+02  0.16002400881E+03  0.12509000000E+03 0.  0.
         25    1    4    4    0    0  0.84577365239E+02  0.35682432939E+02  0.16382057125E+03  0.22563522419E+03  0.12509000000E+03 0.  0.
         25    1    3    3    0    0 -0.90441235792E+02 -0.51590991083E+02  0.22799322636E+03  0.28012437748E+03  0.12509000000E+03 0.  0.
<mgrwt>
<rscale>  2 0.45056336E+03</rscale>
<asrwt>0</asrwt>
<pdfrwt beam="1">  1       21 0.84996126E-01 0.45056336E+03</pdfrwt>
<pdfrwt beam="2">  1       21 0.12913227E-01 0.45056336E+03</pdfrwt>
<totfact> 0.56759591E+04</totfact>
</mgrwt>
</event>
<event>
 7    0  0.4793433E-002  0.4557511E+03  0.7546771E-02  0.1026021E+00
         21   -1    0    0  502  501  0.00000000000E+00  0.00000000000E+00  0.15968370537E+03  0.15968370537E+03  0.00000000000E+00 0.  1.
         21   -1    0    0  501  502 -0.00000000000E+00 -0.00000000000E+00 -0.32518828153E+03  0.32518828153E+03  0.00000000000E+00 0.  1.
      99926    2    1    2    0    0  0.00000000000E+00 -0.88817841970E-15 -0.16550457616E+03  0.48487198691E+03  0.45575111515E+03 0.  0.
      99925    2    3    3    0    0 -0.10121048592E+03  0.24019336919E+01 -0.48773451998E+02  0.28606807549E+03  0.26307178194E+03 0.  0.
         25    1    3    3    0    0  0.10121048592E+03 -0.24019336919E+01 -0.11673112416E+03  0.19880391141E+03  0.12509000000E+03 0.  0.
         25    1    4    4    0    0 -0.79969817293E+02 -0.13232185736E+02  0.51038538888E+00  0.14905714009E+03  0.12509000000E+03 0.  0.
         25    1    4    4    0    0 -0.21240668625E+02  0.15634119428E+02 -0.49283837387E+02  0.13701093541E+03  0.12509000000E+03 0.  0.
<mgrwt>
<rscale>  2 0.45575112E+03</rscale>
<asrwt>0</asrwt>
<pdfrwt beam="1">  1       21 0.23482898E-01 0.45575112E+03</pdfrwt>
<pdfrwt beam="2">  1       21 0.47821806E-01 0.45575112E+03</pdfrwt>
<totfact> 0.65953006E+04</totfact>
</mgrwt>
</event>
<event>
 7    0  0.4793433E-002  0.4670519E+03  0.7546771E-02  0.1022756E+00
         21   -1    0    0  502  501  0.00000000000E+00  0.00000000000E+00  0.74594346863E+03  0.74594346863E+03  0.00000000000E+00 0. -1.
         21   -1    0    0  501  502 -0.00000000000E+00 -0.00000000000E+00 -0.73107900222E+02  0.73107900222E+02  0.00000000000E+00 0. -1.
      99926    2    1    2    0    0  0.00000000000E+00  0.00000000000E+00  0.67283556841E+03  0.81905136885E+03  0.46705186297E+03 0.  0.
      99925    2    3    3    0    0 -0.10909655139E+03  0.58567970672E+02  0.40065393340E+03  0.49491773090E+03  0.26284543233E+03 0.  0.
         25    1    3    3    0    0  0.10909655139E+03 -0.58567970672E+02  0.27218163501E+03  0.32413363795E+03  0.12509000000E+03 0.  0.
         25    1    4    4    0    0 -0.74496801689E+02  0.16033778553E+02  0.15114615310E+03  0.21047451916E+03  0.12509000000E+03 0.  0.
         25    1    4    4    0    0 -0.34599749705E+02  0.42534192119E+02  0.24950778030E+03  0.28444321175E+03  0.12509000000E+03 0.  0.
<mgrwt>
<rscale>  2 0.46705186E+03</rscale>
<asrwt>0</asrwt>
<pdfrwt beam="1">  1       21 0.10969757E+00 0.46705186E+03</pdfrwt>
<pdfrwt beam="2">  1       21 0.10751162E-01 0.46705186E+03</pdfrwt>
<totfact> 0.42675897E+04</totfact>
</mgrwt>
</event>
<event>
 7    0  0.4793433E-002  0.4493212E+03  0.7546771E-02  0.1027925E+00
         21   -1    0    0  502  501  0.00000000000E+00  0.00000000000E+00  0.20281176640E+03  0.20281176640E+03  0.00000000000E+00 0.  1.
         21   -1    0    0  501  502 -0.00000000000E+00 -0.00000000000E+00 -0.24886316467E+03  0.24886316467E+03  0.00000000000E+00 0.  1.
      99926    2    1    2    0    0 -0.71054273576E-14  0.00000000000E+00 -0.46051398274E+02  0.45167493107E+03  0.44932116807E+03 0.  0.
      99925    2    3    3    0    0  0.55796207793E+02 -0.23240056258E+01  0.63789129356E+02  0.27608715412E+03  0.26274787504E+03 0.  0.
         25    1    4    4    0    0  0.24808439279E+02  0.98770087193E+01 -0.78310545440E+01  0.12814775642E+03  0.12509000000E+03 0.  0.
         25    1    4    4    0    0  0.30987768514E+02 -0.12201014345E+02  0.71620183900E+02  0.14793939770E+03  0.12509000000E+03 0.  0.
         25    1    3    3    0    0 -0.55796207793E+02  0.23240056258E+01 -0.10984052763E+03  0.17558777696E+03  0.12509000000E+03 0.  0.
<mgrwt>
<rscale>  2 0.44932117E+03</rscale>
<asrwt>0</asrwt>
<pdfrwt beam="1">  1       21 0.29825260E-01 0.44932117E+03</pdfrwt>
<pdfrwt beam="2">  1       21 0.36597524E-01 0.44932117E+03</pdfrwt>
<totfact> 0.71997280E+04</totfact>
</mgrwt>
</event>
<event>
 7    0  0.4793433E-002  0.4549486E+03  0.7546771E-02  0.1026257E+00
         21   -1    0    0  502  501  0.00000000000E+00  0.00000000000E+00  0.33704577017E+03  0.33704577017E+03  0.00000000000E+00 0. -1.
         21   -1    0    0  501  502 -0.00000000000E+00 -0.00000000000E+00 -0.15352384276E+03  0.15352384276E+03  0.00000000000E+00 0. -1.
      99926    2    1    2    0    0  0.00000000000E+00  0.00000000000E+00  0.18352192740E+03  0.49056961293E+03  0.45494862050E+03 0.  0.
      99925    2    3    3    0    0 -0.10749856613E+02  0.10341231060E+03  0.67429606839E+02  0.29073317883E+03  0.26300069200E+03 0.  0.
         25    1    4    4    0    0 -0.13630258141E+02  0.77934974533E+02  0.68370943117E+02  0.16303906941E+03  0.12509000000E+03 0.  0.
         25    1    4    4    0    0  0.28804015277E+01  0.25477336065E+02 -0.94133627804E+00  0.12769410942E+03  0.12509000000E+03 0.  0.
         25    1    3    3    0    0  0.10749856613E+02 -0.10341231060E+03  0.11609232056E+03  0.19983643410E+03  0.12509000000E+03 0.  0.
<mgrwt>
<rscale>  2 0.45494862E+03</rscale>
<asrwt>0</asrwt>
<pdfrwt beam="1">  1       21 0.49565554E-01 0.45494862E+03</pdfrwt>
<pdfrwt beam="2">  1       21 0.22577036E-01 0.45494862E+03</pdfrwt>
<totfact> 0.65965286E+04</totfact>
</mgrwt>
</event>
<event>
 7    0  0.4793433E-002  0.4565320E+03  0.7546771E-02  0.1025792E+00
         21   -1    0    0  502  501  0.00000000000E+00  0.00000000000E+00  0.24299003039E+04  0.24299003039E+04  0.00000000000E+00 0. -1.
         21   -1    0    0  501  502 -0.00000000000E+00 -0.00000000000E+00 -0.21443414474E+02  0.21443414474E+02  0.00000000000E+00 0. -1.
      99926    2    1    2    0    0  0.00000000000E+00  0.00000000000E+00  0.24084568894E+04  0.24513437183E+04  0.45653196754E+03 0.  0.
      99925    2    3    3    0    0 -0.40847729976E+02 -0.10410904244E+03  0.13811696077E+04  0.14104431962E+04  0.26308419701E+03 0.  0.
         25    1    4    4    0    0 -0.31880033229E+02 -0.51596510156E+02  0.89045896279E+03  0.90124536553E+03  0.12509000000E+03 0.  0.
         25    1    4    4    0    0 -0.89676967463E+01 -0.52512532283E+02  0.49071064491E+03  0.50919783067E+03  0.12509000000E+03 0.  0.
         25    1    3    3    0    0  0.40847729976E+02  0.10410904244E+03  0.10272872817E+04  0.10409005221E+04  0.12509000000E+03 0.  0.
<mgrwt>
<rscale>  2 0.45653197E+03</rscale>
<asrwt>0</asrwt>
<pdfrwt beam="1">  1       21 0.35733809E+00 0.45653197E+03</pdfrwt>
<pdfrwt beam="2">  1       21 0.31534450E-02 0.45653197E+03</pdfrwt>
<totfact> 0.75522963E+03</totfact>
</mgrwt>
</event>
<event>
 7    0  0.4793433E-002  0.4530943E+03  0.7546771E-02  0.1026803E+00
         21   -1    0    0  502  501  0.00000000000E+00  0.00000000000E+00  0.89492861647E+02  0.89492861647E+02  0.00000000000E+00 0.  1.
         21   -1    0    0  501  502 -0.00000000000E+00 -0.00000000000E+00 -0.57349397184E+03  0.57349397184E+03  0.00000000000E+00 0.  1.
      99926    2    1    2    0    0 -0.71054273576E-14  0.00000000000E+00 -0.48400111019E+03  0.66298683348E+03  0.45309432430E+03 0.  0.
      99925    2    3    3    0    0 -0.37087696649E+02 -0.70794360606E+02 -0.41861624758E+03  0.50078317417E+03  0.26297696869E+03 0.  0.
         25    1    4    4    0    0  0.21728766406E+02 -0.26990138299E+02 -0.20252164944E+03  0.24054757003E+03  0.12509000000E+03 0.  0.
         25    1    3    3    0    0  0.37087696649E+02  0.70794360606E+02 -0.65384862611E+02  0.16220365931E+03  0.12509000000E+03 0.  0.
         25    1    4    4    0    0 -0.58816463055E+02 -0.43804222306E+02 -0.21609459814E+03  0.26023560414E+03  0.12509000000E+03 0.  0.
<mgrwt>
<rscale>  2 0.45309432E+03</rscale>
<asrwt>0</asrwt>
<pdfrwt beam="1">  1       21 0.13160715E-01 0.45309432E+03</pdfrwt>
<pdfrwt beam="2">  1       21 0.84337346E-01 0.45309432E+03</pdfrwt>
<totfact> 0.55792307E+04</totfact>
</mgrwt>
</event>
<event>
 7    0  0.4793433E-002  0.4559328E+03  0.7546771E-02  0.1025967E+00
         21   -1    0    0  502  501  0.00000000000E+00  0.00000000000E+00  0.12322209629E+03  0.12322209629E+03  0.00000000000E+00 0. -1.
         21   -1    0    0  501  502 -0.00000000000E+00 -0.00000000000E+00 -0.42174804579E+03  0.42174804579E+03  0.00000000000E+00 0. -1.
      99926    2    1    2    0    0  0.00000000000E+00  0.00000000000E+00 -0.29852594950E+03  0.54497014209E+03  0.45593279465E+03 0.  0.
      99925    2    3    3    0    0  0.66576642314E+02 -0.88073839935E+02 -0.15335135922E+03  0.32380816446E+03  0.26295558069E+03 0.  0.
         25    1    4    4    0    0  0.73835181998E+01 -0.11688168111E+02 -0.52878758478E+02  0.13650934332E+03  0.12509000000E+03 0.  0.
         25    1    4    4    0    0  0.59193124114E+02 -0.76385671824E+02 -0.10047260074E+03  0.18729882114E+03  0.12509000000E+03 0.  0.
         25    1    3    3    0    0 -0.66576642314E+02  0.88073839935E+02 -0.14517459028E+03  0.22116197762E+03  0.12509000000E+03 0.  0.
<mgrwt>
<rscale>  2 0.45593279E+03</rscale>
<asrwt>0</asrwt>
<pdfrwt beam="1">  1       21 0.18120897E-01 0.45593279E+03</pdfrwt>
<pdfrwt beam="2">  1       21 0.62021771E-01 0.45593279E+03</pdfrwt>
<totfact> 0.61743120E+04</totfact>
</mgrwt>
</event>
<event>
 7    0  0.4793433E-002  0.4508208E+03  0.7546771E-02  0.1027478E+00
         21   -1    0    0  502  501  0.00000000000E+00  0.00000000000E+00  0.18082552898E+03  0.18082552898E+03  0.00000000000E+00 0. -1.
         21   -1    0    0  501  502 -0.00000000000E+00 -0.00000000000E+00 -0.28098830754E+03  0.28098830754E+03  0.00000000000E+00 0. -1.
      99926    2    1    2    0    0  0.00000000000E+00  0.00000000000E+00 -0.10016277856E+03  0.46181383652E+03  0.45082084844E+03 0.  0.
      99925    2    3    3    0    0  0.18176860077E+02  0.10613559125E+03 -0.81645999070E+02  0.29572488085E+03  0.26304367322E+03 0.  0.
         25    1    4    4    0    0  0.38032489253E+02  0.82300134723E+02 -0.33036601440E+02  0.15798325085E+03  0.12509000000E+03 0.  0.
         25    1    3    3    0    0 -0.18176860077E+02 -0.10613559125E+03 -0.18516779494E+02  0.16608895567E+03  0.12509000000E+03 0.  0.
         25    1    4    4    0    0 -0.19855629176E+02  0.23835456525E+02 -0.48609397629E+02  0.13774163000E+03  0.12509000000E+03 0.  0.
<mgrwt>
<rscale>  2 0.45082085E+03</rscale>
<asrwt>0</asrwt>
<pdfrwt beam="1">  1       21 0.26591990E-01 0.45082085E+03</pdfrwt>
<pdfrwt beam="2">  1       21 0.41321809E-01 0.45082085E+03</pdfrwt>
<totfact> 0.70353250E+04</totfact>
</mgrwt>
</event>
<event>
 7    0  0.4793433E-002  0.4572800E+03  0.7546771E-02  0.1025573E+00
         21   -1    0    0  502  501  0.00000000000E+00  0.00000000000E+00  0.63263868389E+02  0.63263868389E+02  0.00000000000E+00 0.  1.
         21   -1    0    0  501  502 -0.00000000000E+00 -0.00000000000E+00 -0.82632075222E+03  0.82632075222E+03  0.00000000000E+00 0.  1.
      99926    2    1    2    0    0  0.00000000000E+00  0.00000000000E+00 -0.76305688383E+03  0.88958462061E+03  0.45727999001E+03 0.  0.
      99925    2    3    3    0    0  0.10226893691E+02  0.73973775516E+02 -0.65013091966E+03  0.70525749210E+03  0.26294715943E+03 0.  0.
         25    1    4    4    0    0  0.67286345243E+00  0.65486700595E+02 -0.26722872197E+03  0.30223775185E+03  0.12509000000E+03 0.  0.
         25    1    3    3    0    0 -0.10226893691E+02 -0.73973775516E+02 -0.11292596417E+03  0.18432712850E+03  0.12509000000E+03 0.  0.
         25    1    4    4    0    0  0.95540302387E+01  0.84870749205E+01 -0.38290219769E+03  0.40301974025E+03  0.12509000000E+03 0.  0.
<mgrwt>
<rscale>  2 0.45727999E+03</rscale>
<asrwt>0</asrwt>
<pdfrwt beam="1">  1       21 0.93035101E-02 0.45727999E+03</pdfrwt>
<pdfrwt beam="2">  1       21 0.12151776E+00 0.45727999E+03</pdfrwt>
<totfact> 0.42915719E+04</totfact>
</mgrwt>
</event>
<event>
 7    0  0.4793433E-002  0.4507325E+03  0.7546771E-02  0.1027504E+00
         21   -1    0    0  502  501  0.00000000000E+00  0.00000000000E+00  0.81067713363E+03  0.81067713363E+03  0.00000000000E+00 0.  1.
         21   -1    0    0  501  502 -0.00000000000E+00 -0.00000000000E+00 -0.62651270800E+02  0.62651270800E+02  0.00000000000E+00 0.  1.
      99926    2    1    2    0    0  0.00000000000E+00  0.00000000000E+00  0.74802586283E+03  0.87332840443E+03  0.45073252659E+03 0.  0.
      99925    2    3    3    0    0 -0.61474177714E+02  0.89685960903E+02  0.48928715820E+03  0.56605674696E+03  0.26305070138E+03 0.  0.
         25    1    4    4    0    0 -0.27404945061E+02  0.57051976683E+02  0.32706751012E+03  0.35584634793E+03  0.12509000000E+03 0.  0.
         25    1    4    4    0    0 -0.34069232652E+02  0.32633984221E+02  0.16221964808E+03  0.21021039904E+03  0.12509000000E+03 0.  0.
         25    1    3    3    0    0  0.61474177714E+02 -0.89685960903E+02  0.25873870463E+03  0.30727165747E+03  0.12509000000E+03 0.  0.
<mgrwt>
<rscale>  2 0.45073253E+03</rscale>
<asrwt>0</asrwt>
<pdfrwt beam="1">  1       21 0.11921722E+00 0.45073253E+03</pdfrwt>
<pdfrwt beam="2">  1       21 0.92134226E-02 0.45073253E+03</pdfrwt>
<totfact> 0.45922887E+04</totfact>
</mgrwt>
</event>
<event>
 7    0  0.4793433E-002  0.4560465E+03  0.7546771E-02  0.1025934E+00
         21   -1    0    0  502  501  0.00000000000E+00  0.00000000000E+00  0.10842539988E+03  0.10842539988E+03  0.00000000000E+00 0. -1.
         21   -1    0    0  501  502 -0.00000000000E+00 -0.00000000000E+00 -0.47954261852E+03  0.47954261852E+03  0.00000000000E+00 0. -1.
      99926    2    1    2    0    0  0.00000000000E+00 -0.35527136788E-14 -0.37111721864E+03  0.58796801840E+03  0.45604648961E+03 0.  0.
      99925    2    3    3    0    0 -0.10333740525E+03 -0.18535773065E+02 -0.29105625845E+03  0.40609042315E+03  0.26300853976E+03 0.  0.
         25    1    3    3    0    0  0.10333740525E+03  0.18535773065E+02 -0.80060960198E+02  0.18187759525E+03  0.12509000000E+03 0.  0.
         25    1    4    4    0    0 -0.33812059000E+02 -0.31211230371E+02 -0.18263555464E+03  0.22609876195E+03  0.12509000000E+03 0.  0.
         25    1    4    4    0    0 -0.69525346245E+02  0.12675457306E+02 -0.10842070380E+03  0.17999166120E+03  0.12509000000E+03 0.  0.
<mgrwt>
<rscale>  2 0.45604649E+03</rscale>
<asrwt>0</asrwt>
<pdfrwt beam="1">  1       21 0.15944912E-01 0.45604649E+03</pdfrwt>
<pdfrwt beam="2">  1       21 0.70520973E-01 0.45604649E+03</pdfrwt>
<totfact> 0.58936043E+04</totfact>
</mgrwt>
</event>
<event>
 7    0  0.4793433E-002  0.4527760E+03  0.7546771E-02  0.1026897E+00
         21   -1    0    0  502  501  0.00000000000E+00  0.00000000000E+00  0.17691997995E+03  0.17691997995E+03  0.00000000000E+00 0.  1.
         21   -1    0    0  501  502 -0.00000000000E+00 -0.00000000000E+00 -0.28968767476E+03  0.28968767476E+03  0.00000000000E+00 0.  1.
      99926    2    1    2    0    0  0.00000000000E+00  0.14210854715E-13 -0.11276769481E+03  0.46660765471E+03  0.45277604888E+03 0.  0.
      99925    2    3    3    0    0 -0.39755380104E+02 -0.71316194065E+02 -0.14868638232E+03  0.31297123326E+03  0.26301494783E+03 0.  0.
         25    1    4    4    0    0 -0.26929706282E+02 -0.75850154161E+02 -0.92546020417E+02  0.17518769638E+03  0.12509000000E+03 0.  0.
         25    1    3    3    0    0  0.39755380104E+02  0.71316194065E+02  0.35918687507E+02  0.15363642145E+03  0.12509000000E+03 0.  0.
         25    1    4    4    0    0 -0.12825673823E+02  0.45339600963E+01 -0.56140361899E+02  0.13778353689E+03  0.12509000000E+03 0.  0.
<mgrwt>
<rscale>  2 0.45277605E+03</rscale>
<asrwt>0</asrwt>
<pdfrwt beam="1">  1       21 0.26017644E-01 0.45277605E+03</pdfrwt>
<pdfrwt beam="2">  1       21 0.42601128E-01 0.45277605E+03</pdfrwt>
<totfact> 0.68896367E+04</totfact>
</mgrwt>
</event>
<event>
 7    0  0.4793433E-002  0.4550213E+03  0.7546771E-02  0.1026235E+00
         21   -1    0    0  502  501  0.00000000000E+00  0.00000000000E+00  0.32972527764E+02  0.32972527764E+02  0.00000000000E+00 0. -1.
         21   -1    0    0  501  502 -0.00000000000E+00 -0.00000000000E+00 -0.15698251845E+04  0.15698251845E+04  0.00000000000E+00 0. -1.
      99926    2    1    2    0    0  0.14210854715E-13 -0.14210854715E-13 -0.15368526568E+04  0.16027977123E+04  0.45502133788E+03 0.  0.
      99925    2    3    3    0    0  0.66023676955E+02 -0.85514515552E+02 -0.84834918238E+03  0.89473246061E+03  0.26301707654E+03 0.  0.
         25    1    3    3    0    0 -0.66023676955E+02  0.85514515552E+02 -0.68850347440E+03  0.70806525169E+03  0.12509000000E+03 0.  0.
         25    1    4    4    0    0  0.67248971684E+02 -0.20975694056E+02 -0.42354855918E+03  0.44721727831E+03  0.12509000000E+03 0.  0.
         25    1    4    4    0    0 -0.12252947293E+01 -0.64538821495E+02 -0.42480062319E+03  0.44751518230E+03  0.12509000000E+03 0.  0.
<mgrwt>
<rscale>  2 0.45502134E+03</rscale>
<asrwt>0</asrwt>
<pdfrwt beam="1">  1       21 0.48489000E-02 0.45502134E+03</pdfrwt>
<pdfrwt beam="2">  1       21 0.23085670E+00 0.45502134E+03</pdfrwt>
<totfact> 0.21363091E+04</totfact>
</mgrwt>
</event>
<event>
 7    0  0.4793433E-002  0.4525530E+03  0.7546771E-02  0.1026963E+00
         21   -1    0    0  502  501  0.00000000000E+00  0.00000000000E+00  0.11475520080E+03  0.11475520080E+03  0.00000000000E+00 0. -1.
         21   -1    0    0  501  502 -0.00000000000E+00 -0.00000000000E+00 -0.44617639394E+03  0.44617639394E+03  0.00000000000E+00 0. -1.
      99926    2    1    2    0    0  0.00000000000E+00  0.35527136788E-14 -0.33142119314E+03  0.56093159473E+03  0.45255303193E+03 0.  0.
      99925    2    3    3    0    0 -0.99615360214E+02 -0.14250297884E+02 -0.26676862710E+03  0.38786006797E+03  0.26295178444E+03 0.  0.
         25    1    4    4    0    0 -0.33027870244E+02 -0.44079597251E+02 -0.13336516512E+03  0.19096498756E+03  0.12509000000E+03 0.  0.
         25    1    3    3    0    0  0.99615360214E+02  0.14250297884E+02 -0.64652566040E+02  0.17307152676E+03  0.12509000000E+03 0.  0.
         25    1    4    4    0    0 -0.66587489969E+02  0.29829299367E+02 -0.13340346198E+03  0.19689508041E+03  0.12509000000E+03 0.  0.
<mgrwt>
<rscale>  2 0.45255303E+03</rscale>
<asrwt>0</asrwt>
<pdfrwt beam="1">  1       21 0.16875765E-01 0.45255303E+03</pdfrwt>
<pdfrwt beam="2">  1       21 0.65614175E-01 0.45255303E+03</pdfrwt>
<totfact> 0.62347860E+04</totfact>
</mgrwt>
</event>
<event>
 7    0  0.4793433E-002  0.4624172E+03  0.7546771E-02  0.1024082E+00
         21   -1    0    0  502  501  0.00000000000E+00  0.00000000000E+00  0.41859356444E+02  0.41859356444E+02  0.00000000000E+00 0.  1.
         21   -1    0    0  501  502 -0.00000000000E+00 -0.00000000000E+00 -0.12770720958E+04  0.12770720958E+04  0.00000000000E+00 0.  1.
      99926    2    1    2    0    0 -0.71054273576E-14 -0.14210854715E-13 -0.12352127393E+04  0.13189314522E+04  0.46241719718E+03 0.  0.
      99925    2    3    3    0    0 -0.39529159173E+02 -0.81059468607E+02 -0.54651150904E+03  0.61317647733E+03  0.26301591389E+03 0.  0.
         25    1    3    3    0    0  0.39529159173E+02  0.81059468607E+02 -0.68870123027E+03  0.70575497487E+03  0.12509000000E+03 0.  0.
         25    1    4    4    0    0 -0.54779329733E+02 -0.51482421472E+02 -0.24703391945E+03  0.28692242880E+03  0.12509000000E+03 0.  0.
         25    1    4    4    0    0  0.15250170559E+02 -0.29577047135E+02 -0.29947758958E+03  0.32625404853E+03  0.12509000000E+03 0.  0.
<mgrwt>
<rscale>  2 0.46241720E+03</rscale>
<asrwt>0</asrwt>
<pdfrwt beam="1">  1       21 0.61557878E-02 0.46241720E+03</pdfrwt>
<pdfrwt beam="2">  1       21 0.18780472E+00 0.46241720E+03</pdfrwt>
<totfact> 0.26979740E+04</totfact>
</mgrwt>
</event>
<event>
 7    0  0.4793433E-002  0.4041577E+03  0.7546771E-02  0.1042349E+00
         21   -1    0    0  502  501  0.00000000000E+00  0.00000000000E+00  0.22282638414E+03  0.22282638414E+03  0.00000000000E+00 0.  1.
         21   -1    0    0  501  502 -0.00000000000E+00 -0.00000000000E+00 -0.18326314610E+03  0.18326314610E+03  0.00000000000E+00 0.  1.
      99926    2    1    2    0    0 -0.35527136788E-14 -0.35527136788E-14  0.39563238033E+02  0.40608953024E+03  0.40415771274E+03 0.  0.
      99925    2    3    3    0    0  0.21017424164E+02 -0.85842981628E+01  0.74440931811E+02  0.27425863888E+03  0.26298465046E+03 0.  0.
         25    1    4    4    0    0  0.13834236717E+02 -0.41070926225E+02  0.55053066120E+02  0.14337557419E+03  0.12509000000E+03 0.  0.
         25    1    4    4    0    0  0.71831874474E+01  0.32486628062E+02  0.19387865691E+02  0.13088306468E+03  0.12509000000E+03 0.  0.
         25    1    3    3    0    0 -0.21017424164E+02  0.85842981628E+01 -0.34877693778E+02  0.13183089136E+03  0.12509000000E+03 0.  0.
<mgrwt>
<rscale>  2 0.40415771E+03</rscale>
<asrwt>0</asrwt>
<pdfrwt beam="1">  1       21 0.32768586E-01 0.40415771E+03</pdfrwt>
<pdfrwt beam="2">  1       21 0.26950462E-01 0.40415771E+03</pdfrwt>
<totfact> 0.11089463E+05</totfact>
</mgrwt>
</event>
<event>
 7    0  0.4793433E-002  0.4107128E+03  0.7546771E-02  0.1040132E+00
         21   -1    0    0  502  501  0.00000000000E+00  0.00000000000E+00  0.89780966076E+03  0.89780966076E+03  0.00000000000E+00 0. -1.
         21   -1    0    0  501  502 -0.00000000000E+00 -0.00000000000E+00 -0.46971266056E+02  0.46971266056E+02  0.00000000000E+00 0. -1.
      99926    2    1    2    0    0  0.17763568394E-14  0.00000000000E+00  0.85083839471E+03  0.94478092682E+03  0.41071282640E+03 0.  0.
      99925    2    3    3    0    0 -0.14602447767E+02  0.58798552667E+02  0.51748642934E+03  0.58361400947E+03  0.26294981692E+03 0.  0.
         25    1    3    3    0    0  0.14602447767E+02 -0.58798552667E+02  0.33335196536E+03  0.36116691735E+03  0.12509000000E+03 0.  0.
         25    1    4    4    0    0 -0.45333683766E+02  0.18908201996E+02  0.23876106640E+03  0.27398360884E+03  0.12509000000E+03 0.  0.
         25    1    4    4    0    0  0.30731235999E+02  0.39890350671E+02  0.27872536294E+03  0.30963040062E+03  0.12509000000E+03 0.  0.
<mgrwt>
<rscale>  2 0.41071283E+03</rscale>
<asrwt>0</asrwt>
<pdfrwt beam="1">  1       21 0.13203082E+00 0.41071283E+03</pdfrwt>
<pdfrwt beam="2">  1       21 0.69075397E-02 0.41071283E+03</pdfrwt>
<totfact> 0.59412216E+04</totfact>
</mgrwt>
</event>
<event>
 7    0  0.4793433E-002  0.4519225E+03  0.7546771E-02  0.1027150E+00
         21   -1    0    0  502  501  0.00000000000E+00  0.00000000000E+00  0.55903838247E+03  0.55903838247E+03  0.00000000000E+00 0. -1.
         21   -1    0    0  501  502 -0.00000000000E+00 -0.00000000000E+00 -0.91332698926E+02  0.91332698926E+02  0.00000000000E+00 0. -1.
      99926    2    1    2    0    0  0.14210854715E-13  0.66613381478E-15  0.46770568355E+03  0.65037108140E+03  0.45192249014E+03 0.  0.
      99925    2    3    3    0    0 -0.89932117274E+02 -0.14321282279E+01  0.38605364963E+03  0.47600250782E+03  0.26353582366E+03 0.  0.
         25    1    4    4    0    0 -0.27242913014E+02 -0.30645139921E+02  0.22489644535E+03  0.26059013823E+03  0.12509000000E+03 0.  0.
         25    1    4    4    0    0 -0.62689204261E+02  0.29213011693E+02  0.16115720428E+03  0.21541236959E+03  0.12509000000E+03 0.  0.
         25    1    3    3    0    0  0.89932117274E+02  0.14321282279E+01  0.81652033920E+02  0.17436857358E+03  0.12509000000E+03 0.  0.
<mgrwt>
<rscale>  2 0.45192249E+03</rscale>
<asrwt>0</asrwt>
<pdfrwt beam="1">  1       21 0.82211525E-01 0.45192249E+03</pdfrwt>
<pdfrwt beam="2">  1       21 0.13431279E-01 0.45192249E+03</pdfrwt>
<totfact> 0.57052643E+04</totfact>
</mgrwt>
</event>
<event>
 7    0  0.4793433E-002  0.4587607E+03  0.7546771E-02  0.1025141E+00
         21   -1    0    0  502  501  0.00000000000E+00  0.00000000000E+00  0.11007762866E+04  0.11007762866E+04  0.00000000000E+00 0. -1.
         21   -1    0    0  501  502 -0.00000000000E+00 -0.00000000000E+00 -0.47798389396E+02  0.47798389396E+02  0.00000000000E+00 0. -1.
      99926    2    1    2    0    0  0.00000000000E+00  0.00000000000E+00  0.10529778972E+04  0.11485746760E+04  0.45876065039E+03 0.  0.
      99925    2    3    3    0    0  0.90405343760E+02  0.49936514881E+02  0.79573779107E+03  0.84445831340E+03  0.26314336251E+03 0.  0.
         25    1    3    3    0    0 -0.90405343760E+02 -0.49936514881E+02  0.25724010616E+03  0.30411636263E+03  0.12509000000E+03 0.  0.
         25    1    4    4    0    0  0.73593546457E+02  0.36761669283E+02  0.34255363178E+03  0.37384211795E+03  0.12509000000E+03 0.  0.
         25    1    4    4    0    0  0.16811797302E+02  0.13174845597E+02  0.45318415930E+03  0.47061619545E+03  0.12509000000E+03 0.  0.
<mgrwt>
<rscale>  2 0.45876065E+03</rscale>
<asrwt>0</asrwt>
<pdfrwt beam="1">  1       21 0.16187885E+00 0.45876065E+03</pdfrwt>
<pdfrwt beam="2">  1       21 0.70291756E-02 0.45876065E+03</pdfrwt>
<totfact> 0.32856365E+04</totfact>
</mgrwt>
</event>
<event>
 7    0  0.4793433E-002  0.4571604E+03  0.7546771E-02  0.1025608E+00
         21   -1    0    0  502  501  0.00000000000E+00  0.00000000000E+00  0.44284627363E+02  0.44284627363E+02  0.00000000000E+00 0. -1.
         21   -1    0    0  501  502 -0.00000000000E+00 -0.00000000000E+00 -0.11798429878E+04  0.11798429878E+04  0.00000000000E+00 0. -1.
      99926    2    1    2    0    0  0.00000000000E+00  0.00000000000E+00 -0.11355583604E+04  0.12241276151E+04  0.45716039662E+03 0.  0.
      99925    2    3    3    0    0  0.19749481804E+02 -0.32233316922E+02 -0.42192766397E+03  0.49863102124E+03  0.26302264726E+03 0.  0.
         25    1    4    4    0    0  0.30219219265E+02 -0.50425460324E+02 -0.20227803244E+03  0.24498946665E+03  0.12509000000E+03 0.  0.
         25    1    4    4    0    0 -0.10469737460E+02  0.18192143402E+02 -0.21964963153E+03  0.25364155459E+03  0.12509000000E+03 0.  0.
         25    1    3    3    0    0 -0.19749481804E+02  0.32233316922E+02 -0.71363069642E+03  0.72549659388E+03  0.12509000000E+03 0.  0.
<mgrwt>
<rscale>  2 0.45716040E+03</rscale>
<asrwt>0</asrwt>
<pdfrwt beam="1">  1       21 0.65124460E-02 0.45716040E+03</pdfrwt>
<pdfrwt beam="2">  1       21 0.17350630E+00 0.45716040E+03</pdfrwt>
<totfact> 0.30877535E+04</totfact>
</mgrwt>
</event>
<event>
 7    0  0.4793433E-002  0.4565396E+03  0.7546771E-02  0.1025790E+00
         21   -1    0    0  502  501  0.00000000000E+00  0.00000000000E+00  0.70792729924E+03  0.70792729924E+03  0.00000000000E+00 0. -1.
         21   -1    0    0  501  502 -0.00000000000E+00 -0.00000000000E+00 -0.73605148679E+02  0.73605148679E+02  0.00000000000E+00 0. -1.
      99926    2    1    2    0    0  0.00000000000E+00 -0.14210854715E-13  0.63432215056E+03  0.78153244792E+03  0.45653956724E+03 0.  0.
      99925    2    3    3    0    0  0.35574666694E+02  0.10265393673E+03  0.33638642060E+03  0.44062689659E+03  0.26304533906E+03 0.  0.
         25    1    4    4    0    0  0.18696257694E+02  0.93703808404E+02  0.20118013989E+03  0.25544257779E+03  0.12509000000E+03 0.  0.
         25    1    4    4    0    0  0.16878409000E+02  0.89501283297E+01  0.13520628070E+03  0.18518431880E+03  0.12509000000E+03 0.  0.
         25    1    3    3    0    0 -0.35574666694E+02 -0.10265393673E+03  0.29793572996E+03  0.34090555133E+03  0.12509000000E+03 0.  0.
<mgrwt>
<rscale>  2 0.45653957E+03</rscale>
<asrwt>0</asrwt>
<pdfrwt beam="1">  1       21 0.10410695E+00 0.45653957E+03</pdfrwt>
<pdfrwt beam="2">  1       21 0.10824287E-01 0.45653957E+03</pdfrwt>
<totfact> 0.48087342E+04</totfact>
</mgrwt>
</event>
<event>
 7    0  0.4793433E-002  0.4509701E+03  0.7546771E-02  0.1027433E+00
         21   -1    0    0  502  501  0.00000000000E+00  0.00000000000E+00  0.53287672832E+02  0.53287672832E+02  0.00000000000E+00 0. -1.
         21   -1    0    0  501  502 -0.00000000000E+00 -0.00000000000E+00 -0.95413265858E+03  0.95413265858E+03  0.00000000000E+00 0. -1.
      99926    2    1    2    0    0 -0.35527136788E-14  0.14210854715E-13 -0.90084498574E+03  0.10074203314E+04  0.45097010521E+03 0.  0.
      99925    2    3    3    0    0  0.28094545083E+02  0.10568975412E+03 -0.55801074613E+03  0.62644467399E+03  0.26286367036E+03 0.  0.
         25    1    3    3    0    0 -0.28094545083E+02 -0.10568975412E+03 -0.34283423961E+03  0.38097565741E+03  0.12509000000E+03 0.  0.
         25    1    4    4    0    0  0.35697268102E+02  0.87854318518E+02 -0.33662206549E+03  0.37142240011E+03  0.12509000000E+03 0.  0.
         25    1    4    4    0    0 -0.76027230192E+01  0.17835435599E+02 -0.22138868064E+03  0.25502227388E+03  0.12509000000E+03 0.  0.
<mgrwt>
<rscale>  2 0.45097011E+03</rscale>
<asrwt>0</asrwt>
<pdfrwt beam="1">  1       21 0.78364228E-02 0.45097011E+03</pdfrwt>
<pdfrwt beam="2">  1       21 0.14031362E+00 0.45097011E+03</pdfrwt>
<totfact> 0.40127395E+04</totfact>
</mgrwt>
</event>
<event>
 7    0  0.4793433E-002  0.4543891E+03  0.7546771E-02  0.1026421E+00
         21   -1    0    0  502  501  0.00000000000E+00  0.00000000000E+00  0.24033681659E+03  0.24033681659E+03  0.00000000000E+00 0.  1.
         21   -1    0    0  501  502 -0.00000000000E+00 -0.00000000000E+00 -0.21477089432E+03  0.21477089432E+03  0.00000000000E+00 0.  1.
      99926    2    1    2    0    0  0.00000000000E+00  0.00000000000E+00  0.25565922261E+02  0.45510771091E+03  0.45438905373E+03 0.  0.
      99925    2    3    3    0    0 -0.99176920445E+02  0.38197004153E+02 -0.21064637860E+02  0.28447069877E+03  0.26303001124E+03 0.  0.
         25    1    4    4    0    0 -0.57998314184E+02 -0.18080084118E+02  0.38015452013E+01  0.13911381576E+03  0.12509000000E+03 0.  0.
         25    1    3    3    0    0  0.99176920445E+02 -0.38197004153E+02  0.46630560122E+02  0.17063701214E+03  0.12509000000E+03 0.  0.
         25    1    4    4    0    0 -0.41178606260E+02  0.56277088271E+02 -0.24866183061E+02  0.14535688301E+03  0.12509000000E+03 0.  0.
<mgrwt>
<rscale>  2 0.45438905E+03</rscale>
<asrwt>0</asrwt>
<pdfrwt beam="1">  1       21 0.35343650E-01 0.45438905E+03</pdfrwt>
<pdfrwt beam="2">  1       21 0.31583955E-01 0.45438905E+03</pdfrwt>
<totfact> 0.68873054E+04</totfact>
</mgrwt>
</event>
<event>
 7    0  0.4793433E-002  0.4532184E+03  0.7546771E-02  0.1026767E+00
         21   -1    0    0  502  501  0.00000000000E+00  0.00000000000E+00  0.16486918207E+03  0.16486918207E+03  0.00000000000E+00 0. -1.
         21   -1    0    0  501  502 -0.00000000000E+00 -0.00000000000E+00 -0.31146949317E+03  0.31146949317E+03  0.00000000000E+00 0. -1.
      99926    2    1    2    0    0  0.00000000000E+00 -0.17763568394E-14 -0.14660031110E+03  0.47633867524E+03  0.45321836052E+03 0.  0.
      99925    2    3    3    0    0  0.99084853467E+02  0.14985663167E+02 -0.41204692001E+02  0.28451030687E+03  0.26307016133E+03 0.  0.
         25    1    4    4    0    0  0.14839186714E+02  0.15097790786E+01 -0.42916780580E+02  0.13308583340E+03  0.12509000000E+03 0.  0.
         25    1    4    4    0    0  0.84245666753E+02  0.13475884088E+02  0.17120885788E+01  0.15142447347E+03  0.12509000000E+03 0.  0.
         25    1    3    3    0    0 -0.99084853467E+02 -0.14985663167E+02 -0.10539561910E+03  0.19182836837E+03  0.12509000000E+03 0.  0.
<mgrwt>
<rscale>  2 0.45321836E+03</rscale>
<asrwt>0</asrwt>
<pdfrwt beam="1">  1       21 0.24245468E-01 0.45321836E+03</pdfrwt>
<pdfrwt beam="2">  1       21 0.45804337E-01 0.45321836E+03</pdfrwt>
<totfact> 0.67922976E+04</totfact>
</mgrwt>
</event>
<event>
 7    0  0.4793433E-002  0.4269842E+03  0.7546771E-02  0.1034817E+00
         21   -1    0    0  502  501  0.00000000000E+00  0.00000000000E+00  0.96094190937E+03  0.96094190937E+03  0.00000000000E+00 0.  1.
         21   -1    0    0  501  502 -0.00000000000E+00 -0.00000000000E+00 -0.47431450113E+02  0.47431450113E+02  0.00000000000E+00 0.  1.
      99926    2    1    2    0    0  0.88817841970E-15  0.17763568394E-14  0.91351045926E+03  0.10083733595E+04  0.42698416006E+03 0.  0.
      99925    2    3    3    0    0  0.76115359140E+01 -0.86726249048E+01  0.78795149708E+03  0.83076223657E+03  0.26299274143E+03 0.  0.
         25    1    4    4    0    0 -0.25711007559E+02 -0.25965351398E+02  0.44864605180E+03  0.46718951538E+03  0.12509000000E+03 0.  0.
         25    1    3    3    0    0 -0.76115359140E+01  0.86726249048E+01  0.12555896217E+03  0.17761112292E+03  0.12509000000E+03 0.  0.
         25    1    4    4    0    0  0.33322543473E+02  0.17292726493E+02  0.33930544529E+03  0.36357272119E+03  0.12509000000E+03 0.  0.
<mgrwt>
<rscale>  2 0.42698416E+03</rscale>
<asrwt>0</asrwt>
<pdfrwt beam="1">  1       21 0.14131497E+00 0.42698416E+03</pdfrwt>
<pdfrwt beam="2">  1       21 0.69752139E-02 0.42698416E+03</pdfrwt>
<totfact> 0.48644880E+04</totfact>
</mgrwt>
</event>
<event>
 7    0  0.4793433E-002  0.4530687E+03  0.7546771E-02  0.1026811E+00
         21   -1    0    0  502  501  0.00000000000E+00  0.00000000000E+00  0.74680379456E+02  0.74680379456E+02  0.00000000000E+00 0.  1.
         21   -1    0    0  501  502 -0.00000000000E+00 -0.00000000000E+00 -0.68716585584E+03  0.68716585584E+03  0.00000000000E+00 0.  1.
      99926    2    1    2    0    0  0.71054273576E-14  0.00000000000E+00 -0.61248547639E+03  0.76184623530E+03  0.45306867852E+03 0.  0.
      99925    2    3    3    0    0 -0.59734592881E+02  0.88131274002E+02 -0.44157130401E+03  0.52479243241E+03  0.26284318053E+03 0.  0.
         25    1    4    4    0    0 -0.67710397411E+02  0.54570043568E+02 -0.26496483593E+03  0.30564106392E+03  0.12509000000E+03 0.  0.
         25    1    4    4    0    0  0.79758045295E+01  0.33561230434E+02 -0.17660646808E+03  0.21915136849E+03  0.12509000000E+03 0.  0.
         25    1    3    3    0    0  0.59734592881E+02 -0.88131274002E+02 -0.17091417238E+03  0.23705380289E+03  0.12509000000E+03 0.  0.
<mgrwt>
<rscale>  2 0.45306868E+03</rscale>
<asrwt>0</asrwt>
<pdfrwt beam="1">  1       21 0.10982409E-01 0.45306868E+03</pdfrwt>
<pdfrwt beam="2">  1       21 0.10105380E+00 0.45306868E+03</pdfrwt>
<totfact> 0.50425548E+04</totfact>
</mgrwt>
</event>
<event>
 6    0  0.4793433E-002  0.4473877E+03  0.7546771E-02  0.1028504E+00
         21   -1    0    0  502  501  0.00000000000E+00  0.00000000000E+00  0.50416170381E+03  0.50416170381E+03  0.00000000000E+00 0.  1.
         21   -1    0    0  501  502 -0.00000000000E+00 -0.00000000000E+00 -0.99251780937E+02  0.99251780937E+02  0.00000000000E+00 0.  1.
      99926    2    1    2    0    0  0.00000000000E+00  0.00000000000E+00  0.40490992287E+03  0.60341348475E+03  0.44738773780E+03 0.  0.
         25    1    3    3    0    0  0.59475383395E+02 -0.75822583929E+02  0.18428765208E+03  0.24268463543E+03  0.12509000000E+03 0.  0.
         25    1    3    3    0    0 -0.69356830284E+01  0.79369969267E+02  0.13276376185E+03  0.19905130063E+03  0.12509000000E+03 0.  0.
         25    1    3    3    0    0 -0.52539700366E+02 -0.35473853376E+01  0.87858508938E+02  0.16167754869E+03  0.12509000000E+03 0.  0.
<mgrwt>
<rscale>  2 0.44738774E+03</rscale>
<asrwt>0</asrwt>
<pdfrwt beam="1">  1       21 0.74141426E-01 0.44738774E+03</pdfrwt>
<pdfrwt beam="2">  1       21 0.14595850E-01 0.44738774E+03</pdfrwt>
<totfact> 0.62121049E+04</totfact>
</mgrwt>
</event>
<event>
 7    0  0.4793433E-002  0.4559214E+03  0.7546771E-02  0.1025971E+00
         21   -1    0    0  502  501  0.00000000000E+00  0.00000000000E+00  0.61529250941E+03  0.61529250941E+03  0.00000000000E+00 0.  1.
         21   -1    0    0  501  502 -0.00000000000E+00 -0.00000000000E+00 -0.84457536881E+02  0.84457536881E+02  0.00000000000E+00 0.  1.
      99926    2    1    2    0    0  0.00000000000E+00 -0.71054273576E-14  0.53083497253E+03  0.69975004629E+03  0.45592143975E+03 0.  0.
      99925    2    3    3    0    0 -0.88949227783E+02  0.61114639903E+02  0.39069014183E+03  0.48310506942E+03  0.26287783634E+03 0.  0.
         25    1    4    4    0    0 -0.55426366072E+02  0.55580941151E+02  0.26013651228E+03  0.29913180405E+03  0.12509000000E+03 0.  0.
         25    1    3    3    0    0  0.88949227783E+02 -0.61114639903E+02  0.14014483070E+03  0.21664497687E+03  0.12509000000E+03 0.  0.
         25    1    4    4    0    0 -0.33522861711E+02  0.55336987526E+01  0.13055362956E+03  0.18397326537E+03  0.12509000000E+03 0.  0.
<mgrwt>
<rscale>  2 0.45592144E+03</rscale>
<asrwt>0</asrwt>
<pdfrwt beam="1">  1       21 0.90484191E-01 0.45592144E+03</pdfrwt>
<pdfrwt beam="2">  1       21 0.12420226E-01 0.45592144E+03</pdfrwt>
<totfact> 0.52534533E+04</totfact>
</mgrwt>
</event>
<event>
 7    0  0.4793433E-002  0.4523919E+03  0.7546771E-02  0.1027011E+00
         21   -1    0    0  502  501  0.00000000000E+00  0.00000000000E+00  0.29394913181E+03  0.29394913181E+03  0.00000000000E+00 0.  1.
         21   -1    0    0  501  502 -0.00000000000E+00 -0.00000000000E+00 -0.17405940480E+03  0.17405940480E+03  0.00000000000E+00 0.  1.
      99926    2    1    2    0    0 -0.14210854715E-13  0.14210854715E-13  0.11988972702E+03  0.46800853661E+03  0.45239191383E+03 0.  0.
      99925    2    3    3    0    0  0.72731115635E+02 -0.81241511236E+02  0.54033790206E+02  0.28947419582E+03  0.26265121593E+03 0.  0.
         25    1    4    4    0    0  0.44166236051E+02 -0.66829358478E+02  0.60044281180E+02  0.16021748770E+03  0.12509000000E+03 0.  0.
         25    1    4    4    0    0  0.28564879584E+02 -0.14412152758E+02 -0.60104909739E+01  0.12925670812E+03  0.12509000000E+03 0.  0.
         25    1    3    3    0    0 -0.72731115635E+02  0.81241511236E+02  0.65855936811E+02  0.17853434079E+03  0.12509000000E+03 0.  0.
<mgrwt>
<rscale>  2 0.45239191E+03</rscale>
<asrwt>0</asrwt>
<pdfrwt beam="1">  1       21 0.43227814E-01 0.45239191E+03</pdfrwt>
<pdfrwt beam="2">  1       21 0.25596971E-01 0.45239191E+03</pdfrwt>
<totfact> 0.69000725E+04</totfact>
</mgrwt>
</event>
<event>
 7    0  0.4793433E-002  0.4498587E+03  0.7546771E-02  0.1027764E+00
         21   -1    0    0  502  501  0.00000000000E+00  0.00000000000E+00  0.97652234062E+02  0.97652234062E+02  0.00000000000E+00 0. -1.
         21   -1    0    0  501  502 -0.00000000000E+00 -0.00000000000E+00 -0.51809571704E+03  0.51809571704E+03  0.00000000000E+00 0. -1.
      99926    2    1    2    0    0  0.35527136788E-14  0.14210854715E-13 -0.42044348298E+03  0.61574795111E+03  0.44985866326E+03 0.  0.
      99925    2    3    3    0    0  0.22500776904E+02  0.10545578667E+03 -0.27791627755E+03  0.39759956058E+03  0.26309835678E+03 0.  0.
         25    1    3    3    0    0 -0.22500776904E+02 -0.10545578667E+03 -0.14252720543E+03  0.21814839053E+03  0.12509000000E+03 0.  0.
         25    1    4    4    0    0 -0.89300194366E+01  0.21959409424E+02 -0.95833329558E+02  0.15935336854E+03  0.12509000000E+03 0.  0.
         25    1    4    4    0    0  0.31430796341E+02  0.83496377244E+02 -0.18208294799E+03  0.23824619204E+03  0.12509000000E+03 0.  0.
<mgrwt>
<rscale>  2 0.44985866E+03</rscale>
<asrwt>0</asrwt>
<pdfrwt beam="1">  1       21 0.14360622E-01 0.44985866E+03</pdfrwt>
<pdfrwt beam="2">  1       21 0.76190548E-01 0.44985866E+03</pdfrwt>
<totfact> 0.60123506E+04</totfact>
</mgrwt>
</event>
<event>
 6    0  0.4793433E-002  0.4485558E+03  0.7546771E-02  0.1028154E+00
         21   -1    0    0  502  501  0.00000000000E+00  0.00000000000E+00  0.12730365349E+03  0.12730365349E+03  0.00000000000E+00 0. -1.
         21   -1    0    0  501  502 -0.00000000000E+00 -0.00000000000E+00 -0.39512277399E+03  0.39512277399E+03  0.00000000000E+00 0. -1.
      99926    2    1    2    0    0 -0.17763568394E-14  0.00000000000E+00 -0.26781912050E+03  0.52242642748E+03  0.44855578341E+03 0.  0.
         25    1    3    3    0    0 -0.38712935491E+02 -0.74846688753E+01 -0.13602224546E+03  0.18895573821E+03  0.12509000000E+03 0.  0.
         25    1    3    3    0    0  0.27088726796E+02 -0.73587086155E+02 -0.10599210390E+03  0.18174348010E+03  0.12509000000E+03 0.  0.
         25    1    3    3    0    0  0.11624208696E+02  0.81071755030E+02 -0.25804771146E+02  0.15172720918E+03  0.12509000000E+03 0.  0.
<mgrwt>
<rscale>  2 0.44855578E+03</rscale>
<asrwt>0</asrwt>
<pdfrwt beam="1">  1       21 0.18721125E-01 0.44855578E+03</pdfrwt>
<pdfrwt beam="2">  1       21 0.58106291E-01 0.44855578E+03</pdfrwt>
<totfact> 0.67083938E+04</totfact>
</mgrwt>
</event>
<event>
 7    0  0.4793433E-002  0.4547099E+03  0.7546771E-02  0.1026327E+00
         21   -1    0    0  502  501  0.00000000000E+00  0.00000000000E+00  0.14695446438E+04  0.14695446438E+04  0.00000000000E+00 0.  1.
         21   -1    0    0  501  502 -0.00000000000E+00 -0.00000000000E+00 -0.35174353416E+02  0.35174353416E+02  0.00000000000E+00 0.  1.
      99926    2    1    2    0    0 -0.14210854715E-13  0.00000000000E+00  0.14343702904E+04  0.15047189973E+04  0.45470994123E+03 0.  0.
      99925    2    3    3    0    0 -0.71792507670E+02 -0.21525209054E+02  0.62390007816E+03  0.68123434539E+03  0.26308064740E+03 0.  0.
         25    1    4    4    0    0 -0.14513211932E+02 -0.16465994030E+02  0.38616337359E+03  0.40651128088E+03  0.12509000000E+03 0.  0.
         25    1    3    3    0    0  0.71792507670E+02  0.21525209054E+02  0.81047021226E+03  0.82348465186E+03  0.12509000000E+03 0.  0.
         25    1    4    4    0    0 -0.57279295737E+02 -0.50592150242E+01  0.23773670457E+03  0.27472306451E+03  0.12509000000E+03 0.  0.
<mgrwt>
<rscale>  2 0.45470994E+03</rscale>
<asrwt>0</asrwt>
<pdfrwt beam="1">  1       21 0.21610947E+00 0.45470994E+03</pdfrwt>
<pdfrwt beam="2">  1       21 0.51727000E-02 0.45470994E+03</pdfrwt>
<totfact> 0.23717094E+04</totfact>
</mgrwt>
</event>
<event>
 7    0  0.4793433E-002  0.4583779E+03  0.7546771E-02  0.1025253E+00
         21   -1    0    0  502  501  0.00000000000E+00  0.00000000000E+00  0.14595603024E+03  0.14595603024E+03  0.00000000000E+00 0. -1.
         21   -1    0    0  501  502 -0.00000000000E+00 -0.00000000000E+00 -0.35988630076E+03  0.35988630076E+03  0.00000000000E+00 0. -1.
      99926    2    1    2    0    0  0.14210854715E-13  0.00000000000E+00 -0.21393027052E+03  0.50584233099E+03  0.45837790433E+03 0.  0.
      99925    2    3    3    0    0 -0.84423352774E+02 -0.42206227182E+02 -0.20919366653E+03  0.34906665806E+03  0.26301496829E+03 0.  0.
         25    1    4    4    0    0 -0.63629387177E+01 -0.38736242579E+02 -0.11201501511E+03  0.17244087447E+03  0.12509000000E+03 0.  0.
         25    1    4    4    0    0 -0.78060414057E+02 -0.34699846034E+01 -0.97178651424E+02  0.17662578359E+03  0.12509000000E+03 0.  0.
         25    1    3    3    0    0  0.84423352774E+02  0.42206227182E+02 -0.47366039897E+01  0.15677567293E+03  0.12509000000E+03 0.  0.
<mgrwt>
<rscale>  2 0.45837790E+03</rscale>
<asrwt>0</asrwt>
<pdfrwt beam="1">  1       21 0.21464122E-01 0.45837790E+03</pdfrwt>
<pdfrwt beam="2">  1       21 0.52924456E-01 0.45837790E+03</pdfrwt>
<totfact> 0.63151849E+04</totfact>
</mgrwt>
</event>
<event>
 7    0  0.4793433E-002  0.4550295E+03  0.7546771E-02  0.1026233E+00
         21   -1    0    0  502  501  0.00000000000E+00  0.00000000000E+00  0.12466362851E+03  0.12466362851E+03  0.00000000000E+00 0.  1.
         21   -1    0    0  501  502 -0.00000000000E+00 -0.00000000000E+00 -0.41522095375E+03  0.41522095375E+03  0.00000000000E+00 0.  1.
      99926    2    1    2    0    0  0.00000000000E+00  0.71054273576E-14 -0.29055732524E+03  0.53988458226E+03  0.45502945279E+03 0.  0.
      99925    2    3    3    0    0 -0.10059100909E+03  0.35544362710E+02 -0.13803474941E+03  0.31562447197E+03  0.26302711349E+03 0.  0.
         25    1    4    4    0    0 -0.36339278808E+02 -0.10826523236E+02 -0.94465830811E+02  0.16127324044E+03  0.12509000000E+03 0.  0.
         25    1    4    4    0    0 -0.64251730283E+02  0.46370885946E+02 -0.43568918601E+02  0.15435123153E+03  0.12509000000E+03 0.  0.
         25    1    3    3    0    0  0.10059100909E+03 -0.35544362710E+02 -0.15252257582E+03  0.22426011029E+03  0.12509000000E+03 0.  0.
<mgrwt>
<rscale>  2 0.45502945E+03</rscale>
<asrwt>0</asrwt>
<pdfrwt beam="1">  1       21 0.18332887E-01 0.45502945E+03</pdfrwt>
<pdfrwt beam="2">  1       21 0.61061905E-01 0.45502945E+03</pdfrwt>
<totfact> 0.62525362E+04</totfact>
</mgrwt>
</event>
<event>
 7    0  0.4793433E-002  0.4732447E+03  0.7546771E-02  0.1021008E+00
         21   -1    0    0  502  501  0.00000000000E+00  0.00000000000E+00  0.11915365453E+03  0.11915365453E+03  0.00000000000E+00 0. -1.
         21   -1    0    0  501  502 -0.00000000000E+00 -0.00000000000E+00 -0.46989865246E+03  0.46989865246E+03  0.00000000000E+00 0. -1.
      99926    2    1    2    0    0  0.17763568394E-14  0.00000000000E+00 -0.35074499793E+03  0.58905230699E+03  0.47324472189E+03 0.  0.
      99925    2    3    3    0    0  0.15135440242E+02 -0.12267903977E+03 -0.26545750801E+03  0.39360233286E+03  0.26301307862E+03 0.  0.
         25    1    4    4    0    0 -0.13959789396E+02 -0.79818483211E+02 -0.17914859284E+03  0.23303989444E+03  0.12509000000E+03 0.  0.
         25    1    4    4    0    0  0.29095229638E+02 -0.42860556560E+02 -0.86308915167E+02  0.16056243843E+03  0.12509000000E+03 0.  0.
         25    1    3    3    0    0 -0.15135440242E+02  0.12267903977E+03 -0.85287489924E+02  0.19544997413E+03  0.12509000000E+03 0.  0.
<mgrwt>
<rscale>  2 0.47324472E+03</rscale>
<asrwt>0</asrwt>
<pdfrwt beam="1">  1       21 0.17522596E-01 0.47324472E+03</pdfrwt>
<pdfrwt beam="2">  1       21 0.69102743E-01 0.47324472E+03</pdfrwt>
<totfact> 0.51516167E+04</totfact>
</mgrwt>
</event>
<event>
 7    0  0.4793433E-002  0.4525341E+03  0.7546771E-02  0.1026969E+00
         21   -1    0    0  502  501  0.00000000000E+00  0.00000000000E+00  0.46221265808E+02  0.46221265808E+02  0.00000000000E+00 0.  1.
         21   -1    0    0  501  502 -0.00000000000E+00 -0.00000000000E+00 -0.11076457346E+04  0.11076457346E+04  0.00000000000E+00 0.  1.
      99926    2    1    2    0    0  0.00000000000E+00  0.00000000000E+00 -0.10614244688E+04  0.11538670004E+04  0.45253414421E+03 0.  0.
      99925    2    3    3    0    0 -0.28314844950E+02 -0.91292942942E+02 -0.53662789622E+03  0.60596638665E+03  0.26474446334E+03 0.  0.
         25    1    4    4    0    0  0.10060504701E+02 -0.14814753487E+02 -0.29237892015E+03  0.31851786720E+03  0.12509000000E+03 0.  0.
         25    1    4    4    0    0 -0.38375349651E+02 -0.76478189455E+02 -0.24424897607E+03  0.28744851945E+03  0.12509000000E+03 0.  0.
         25    1    3    3    0    0  0.28314844950E+02  0.91292942942E+02 -0.52479657256E+03  0.54790061375E+03  0.12509000000E+03 0.  0.
<mgrwt>
<rscale>  2 0.45253414E+03</rscale>
<asrwt>0</asrwt>
<pdfrwt beam="1">  1       21 0.67972446E-02 0.45253414E+03</pdfrwt>
<pdfrwt beam="2">  1       21 0.16288909E+00 0.45253414E+03</pdfrwt>
<totfact> 0.34308096E+04</totfact>
</mgrwt>
</event>
<event>
 7    0  0.4793433E-002  0.4561706E+03  0.7546771E-02  0.1025898E+00
         21   -1    0    0  502  501  0.00000000000E+00  0.00000000000E+00  0.11695393885E+04  0.11695393885E+04  0.00000000000E+00 0.  1.
         21   -1    0    0  501  502 -0.00000000000E+00 -0.00000000000E+00 -0.44481525192E+02  0.44481525192E+02  0.00000000000E+00 0.  1.
      99926    2    1    2    0    0  0.00000000000E+00  0.00000000000E+00  0.11250578633E+04  0.12140209136E+04  0.45617056359E+03 0.  0.
      99925    2    3    3    0    0  0.41914108961E+02  0.77072101918E+02  0.51257735410E+03  0.58277073849E+03  0.26303856806E+03 0.  0.
         25    1    3    3    0    0 -0.41914108961E+02 -0.77072101918E+02  0.61248050916E+03  0.63125017515E+03  0.12509000000E+03 0.  0.
         25    1    4    4    0    0  0.42295773435E+02  0.26975219770E+02  0.18785786621E+03  0.23120268365E+03  0.12509000000E+03 0.  0.
         25    1    4    4    0    0 -0.38166447323E+00  0.50096882148E+02  0.32471948789E+03  0.35156805484E+03  0.12509000000E+03 0.  0.
<mgrwt>
<rscale>  2 0.45617056E+03</rscale>
<asrwt>0</asrwt>
<pdfrwt beam="1">  1       21 0.17199107E+00 0.45617056E+03</pdfrwt>
<pdfrwt beam="2">  1       21 0.65414015E-02 0.45617056E+03</pdfrwt>
<totfact> 0.31427186E+04</totfact>
</mgrwt>
</event>
<event>
 7    0  0.4793433E-002  0.4577005E+03  0.7546771E-02  0.1025450E+00
         21   -1    0    0  502  501  0.00000000000E+00  0.00000000000E+00  0.17103996059E+03  0.17103996059E+03  0.00000000000E+00 0.  1.
         21   -1    0    0  501  502 -0.00000000000E+00 -0.00000000000E+00 -0.30619998016E+03  0.30619998016E+03  0.00000000000E+00 0.  1.
      99926    2    1    2    0    0  0.00000000000E+00  0.71054273576E-14 -0.13516001958E+03  0.47723994075E+03  0.45770048083E+03 0.  0.
      99925    2    3    3    0    0 -0.10159907945E+03 -0.53883609984E+02 -0.71601060085E+02  0.29582035580E+03  0.26297747952E+03 0.  0.
         25    1    4    4    0    0 -0.75206465259E+02  0.54395350602E+01 -0.34355649421E+02  0.15004472568E+03  0.12509000000E+03 0.  0.
         25    1    4    4    0    0 -0.26392614187E+02 -0.59323145044E+02 -0.37245410664E+02  0.14577563012E+03  0.12509000000E+03 0.  0.
         25    1    3    3    0    0  0.10159907945E+03  0.53883609984E+02 -0.63558959492E+02  0.18141958494E+03  0.12509000000E+03 0.  0.
<mgrwt>
<rscale>  2 0.45770048E+03</rscale>
<asrwt>0</asrwt>
<pdfrwt beam="1">  1       21 0.25152936E-01 0.45770048E+03</pdfrwt>
<pdfrwt beam="2">  1       21 0.45029408E-01 0.45770048E+03</pdfrwt>
<totfact> 0.65486813E+04</totfact>
</mgrwt>
</event>
<event>
 7    0  0.4793433E-002  0.4556055E+03  0.7546771E-02  0.1026063E+00
         21   -1    0    0  502  501  0.00000000000E+00  0.00000000000E+00  0.23218263400E+02  0.23218263400E+02  0.00000000000E+00 0.  1.
         21   -1    0    0  501  502 -0.00000000000E+00 -0.00000000000E+00 -0.22350550108E+04  0.22350550108E+04  0.00000000000E+00 0.  1.
      99926    2    1    2    0    0 -0.71054273576E-14  0.00000000000E+00 -0.22118367474E+04  0.22582732742E+04  0.45560551338E+03 0.  0.
      99925    2    3    3    0    0  0.61357712976E+02  0.67316038006E+02 -0.10528169372E+04  0.10889697864E+04  0.26293625586E+03 0.  0.
         25    1    4    4    0    0  0.57184016072E+02  0.42609554869E+02 -0.67527602153E+03  0.69045694957E+03  0.12509000000E+03 0.  0.
         25    1    3    3    0    0 -0.61357712976E+02 -0.67316038006E+02 -0.11590198103E+04  0.11693034878E+04  0.12509000000E+03 0.  0.
         25    1    4    4    0    0  0.41736969040E+01  0.24706483137E+02 -0.37754091565E+03  0.39851283686E+03  0.12509000000E+03 0.  0.
<mgrwt>
<rscale>  2 0.45560551E+03</rscale>
<asrwt>0</asrwt>
<pdfrwt beam="1">  1       21 0.34144513E-02 0.45560551E+03</pdfrwt>
<pdfrwt beam="2">  1       21 0.32868448E+00 0.45560551E+03</pdfrwt>
<totfact> 0.98860912E+03</totfact>
</mgrwt>
</event>
<event>
 7    0  0.4793433E-002  0.4513728E+03  0.7546771E-02  0.1027313E+00
         21   -1    0    0  502  501  0.00000000000E+00  0.00000000000E+00  0.24984987794E+03  0.24984987794E+03  0.00000000000E+00 0. -1.
         21   -1    0    0  501  502 -0.00000000000E+00 -0.00000000000E+00 -0.20385979184E+03  0.20385979184E+03  0.00000000000E+00 0. -1.
      99926    2    1    2    0    0  0.00000000000E+00  0.26645352591E-14  0.45990086100E+02  0.45370966978E+03  0.45137276883E+03 0.  0.
      99925    2    3    3    0    0  0.10576591562E+03 -0.73376973885E+01  0.57291725845E+02  0.28934572644E+03  0.26305576756E+03 0.  0.
         25    1    4    4    0    0  0.77412053304E+02  0.21746014157E+02  0.80896094289E+01  0.14892436003E+03  0.12509000000E+03 0.  0.
         25    1    3    3    0    0 -0.10576591562E+03  0.73376973885E+01 -0.11301639745E+02  0.16436394334E+03  0.12509000000E+03 0.  0.
         25    1    4    4    0    0  0.28353862321E+02 -0.29083711545E+02  0.49202116417E+02  0.14042136641E+03  0.12509000000E+03 0.  0.
<mgrwt>
<rscale>  2 0.45137277E+03</rscale>
<asrwt>0</asrwt>
<pdfrwt beam="1">  1       21 0.36742629E-01 0.45137277E+03</pdfrwt>
<pdfrwt beam="2">  1       21 0.29979381E-01 0.45137277E+03</pdfrwt>
<totfact> 0.70663372E+04</totfact>
</mgrwt>
</event>
<event>
 7    0  0.4793433E-002  0.4494236E+03  0.7546771E-02  0.1027894E+00
         21   -1    0    0  502  501  0.00000000000E+00  0.00000000000E+00  0.53865089626E+03  0.53865089626E+03  0.00000000000E+00 0.  1.
         21   -1    0    0  501  502 -0.00000000000E+00 -0.00000000000E+00 -0.93744202947E+02  0.93744202947E+02  0.00000000000E+00 0.  1.
      99926    2    1    2    0    0  0.35527136788E-14  0.00000000000E+00  0.44490669331E+03  0.63239509921E+03  0.44942362615E+03 0.  0.
      99925    2    3    3    0    0 -0.28039037905E+02 -0.47280417677E+02  0.41205944794E+03  0.49186725438E+03  0.26290451072E+03 0.  0.
         25    1    3    3    0    0  0.28039037905E+02  0.47280417677E+02  0.32847245374E+02  0.14052784482E+03  0.12509000000E+03 0.  0.
         25    1    4    4    0    0 -0.11103144714E+02 -0.78097633382E+01  0.13319292137E+03  0.18322700300E+03  0.12509000000E+03 0.  0.
         25    1    4    4    0    0 -0.16935893191E+02 -0.39470654339E+02  0.27886652656E+03  0.30864025138E+03  0.12509000000E+03 0.  0.
<mgrwt>
<rscale>  2 0.44942363E+03</rscale>
<asrwt>0</asrwt>
<pdfrwt beam="1">  1       21 0.79213366E-01 0.44942363E+03</pdfrwt>
<pdfrwt beam="2">  1       21 0.13785912E-01 0.44942363E+03</pdfrwt>
<totfact> 0.59294346E+04</totfact>
</mgrwt>
</event>
<event>
 7    0  0.4793433E-002  0.4524996E+03  0.7546771E-02  0.1026979E+00
         21   -1    0    0  502  501  0.00000000000E+00  0.00000000000E+00  0.29238865261E+03  0.29238865261E+03  0.00000000000E+00 0. -1.
         21   -1    0    0  501  502 -0.00000000000E+00 -0.00000000000E+00 -0.17507170811E+03  0.17507170811E+03  0.00000000000E+00 0. -1.
      99926    2    1    2    0    0  0.00000000000E+00  0.00000000000E+00  0.11731694450E+03  0.46746036073E+03  0.45249963910E+03 0.  0.
      99925    2    3    3    0    0  0.40685730165E+02  0.15684062800E+02 -0.31214052412E+02  0.26843703645E+03  0.26302624775E+03 0.  0.
         25    1    4    4    0    0  0.11663980046E+02 -0.30411207937E+02 -0.26324748377E+02  0.13191433006E+03  0.12509000000E+03 0.  0.
         25    1    4    4    0    0  0.29021750118E+02  0.46095270737E+02 -0.48893040348E+01  0.13652270638E+03  0.12509000000E+03 0.  0.
         25    1    3    3    0    0 -0.40685730165E+02 -0.15684062800E+02  0.14853099691E+03  0.19902332428E+03  0.12509000000E+03 0.  0.
<mgrwt>
<rscale>  2 0.45249964E+03</rscale>
<asrwt>0</asrwt>
<pdfrwt beam="1">  1       21 0.42998331E-01 0.45249964E+03</pdfrwt>
<pdfrwt beam="2">  1       21 0.25745839E-01 0.45249964E+03</pdfrwt>
<totfact> 0.68983237E+04</totfact>
</mgrwt>
</event>
<event>
 7    0  0.4793433E-002  0.4563077E+03  0.7546771E-02  0.1025858E+00
         21   -1    0    0  502  501  0.00000000000E+00  0.00000000000E+00  0.12101765791E+03  0.12101765791E+03  0.00000000000E+00 0. -1.
         21   -1    0    0  501  502 -0.00000000000E+00 -0.00000000000E+00 -0.43013705375E+03  0.43013705375E+03  0.00000000000E+00 0. -1.
      99926    2    1    2    0    0  0.00000000000E+00  0.14210854715E-13 -0.30911939584E+03  0.55115471166E+03  0.45630769805E+03 0.  0.
      99925    2    3    3    0    0 -0.58551139819E+02 -0.76975037332E+02 -0.11977831227E+03  0.30447486576E+03  0.26268747104E+03 0.  0.
         25    1    3    3    0    0  0.58551139819E+02  0.76975037332E+02 -0.18934108356E+03  0.24667984589E+03  0.12509000000E+03 0.  0.
         25    1    4    4    0    0 -0.34652389106E+02 -0.75197088955E+02 -0.85126897354E+02  0.17248039602E+03  0.12509000000E+03 0.  0.
         25    1    4    4    0    0 -0.23898750713E+02 -0.17779483773E+01 -0.34651414920E+02  0.13199446974E+03  0.12509000000E+03 0.  0.
<mgrwt>
<rscale>  2 0.45630770E+03</rscale>
<asrwt>0</asrwt>
<pdfrwt beam="1">  1       21 0.17796714E-01 0.45630770E+03</pdfrwt>
<pdfrwt beam="2">  1       21 0.63255449E-01 0.45630770E+03</pdfrwt>
<totfact> 0.61155095E+04</totfact>
</mgrwt>
</event>
<event>
 7    0  0.4793433E-002  0.4529158E+03  0.7546771E-02  0.1026856E+00
         21   -1    0    0  502  501  0.00000000000E+00  0.00000000000E+00  0.11897049420E+04  0.11897049420E+04  0.00000000000E+00 0. -1.
         21   -1    0    0  501  502 -0.00000000000E+00 -0.00000000000E+00 -0.43105798557E+02  0.43105798557E+02  0.00000000000E+00 0. -1.
      99926    2    1    2    0    0  0.00000000000E+00  0.00000000000E+00  0.11465991434E+04  0.12328107405E+04  0.45291580485E+03 0.  0.
      99925    2    3    3    0    0  0.44577297092E+02 -0.61818128950E+02  0.94330031766E+03  0.98223832158E+03  0.26299812661E+03 0.  0.
         25    1    4    4    0    0  0.35655287610E+02 -0.60416913334E+01  0.56495792382E+03  0.57976957953E+03  0.12509000000E+03 0.  0.
         25    1    3    3    0    0 -0.44577297092E+02  0.61818128950E+02  0.20329882574E+03  0.25057241893E+03  0.12509000000E+03 0.  0.
         25    1    4    4    0    0  0.89220094820E+01 -0.55776437616E+02  0.37834239384E+03  0.40246874205E+03  0.12509000000E+03 0.  0.
<mgrwt>
<rscale>  2 0.45291580E+03</rscale>
<asrwt>0</asrwt>
<pdfrwt beam="1">  1       21 0.17495659E+00 0.45291580E+03</pdfrwt>
<pdfrwt beam="2">  1       21 0.63390888E-02 0.45291580E+03</pdfrwt>
<totfact> 0.31640457E+04</totfact>
</mgrwt>
</event>
<event>
 7    0  0.4793433E-002  0.4520770E+03  0.7546771E-02  0.1027104E+00
         21   -1    0    0  502  501  0.00000000000E+00  0.00000000000E+00  0.62778249191E+02  0.62778249191E+02  0.00000000000E+00 0.  1.
         21   -1    0    0  501  502 -0.00000000000E+00 -0.00000000000E+00 -0.81387099323E+03  0.81387099323E+03  0.00000000000E+00 0.  1.
      99926    2    1    2    0    0  0.71054273576E-14  0.00000000000E+00 -0.75109274404E+03  0.87664924242E+03  0.45207696700E+03 0.  0.
      99925    2    3    3    0    0  0.63532032563E+02 -0.48042714667E+02 -0.62200817246E+03  0.68004111361E+03  0.26309186229E+03 0.  0.
         25    1    4    4    0    0  0.68229907151E+02 -0.38299354740E+02 -0.29718319007E+03  0.33179439020E+03  0.12509000000E+03 0.  0.
         25    1    3    3    0    0 -0.63532032563E+02  0.48042714667E+02 -0.12908457158E+03  0.19660812881E+03  0.12509000000E+03 0.  0.
         25    1    4    4    0    0 -0.46978745883E+01 -0.97433599267E+01 -0.32482498239E+03  0.34824672342E+03  0.12509000000E+03 0.  0.
<mgrwt>
<rscale>  2 0.45207697E+03</rscale>
<asrwt>0</asrwt>
<pdfrwt beam="1">  1       21 0.92320966E-02 0.45207697E+03</pdfrwt>
<pdfrwt beam="2">  1       21 0.11968690E+00 0.45207697E+03</pdfrwt>
<totfact> 0.45286662E+04</totfact>
</mgrwt>
</event>
<event>
 7    0  0.4793433E-002  0.4727998E+03  0.7546771E-02  0.1021133E+00
         21   -1    0    0  502  501  0.00000000000E+00  0.00000000000E+00  0.27567572013E+03  0.27567572013E+03  0.00000000000E+00 0.  1.
         21   -1    0    0  501  502 -0.00000000000E+00 -0.00000000000E+00 -0.20271971232E+03  0.20271971232E+03  0.00000000000E+00 0.  1.
      99926    2    1    2    0    0  0.00000000000E+00  0.00000000000E+00  0.72956007810E+02  0.47839543245E+03  0.47279975752E+03 0.  0.
      99925    2    3    3    0    0 -0.10136271224E+03  0.39867457864E+02 -0.24950694648E+02  0.28578950286E+03  0.26303856970E+03 0.  0.
         25    1    4    4    0    0 -0.14381324890E+02 -0.33764667690E+01 -0.39005809561E+01  0.12601962413E+03  0.12509000000E+03 0.  0.
         25    1    3    3    0    0  0.10136271224E+03 -0.39867457864E+02  0.97906702458E+02  0.19260592959E+03  0.12509000000E+03 0.  0.
         25    1    4    4    0    0 -0.86981387346E+02  0.43243924633E+02 -0.21050113692E+02  0.15976987873E+03  0.12509000000E+03 0.  0.
<mgrwt>
<rscale>  2 0.47279976E+03</rscale>
<asrwt>0</asrwt>
<pdfrwt beam="1">  1       21 0.40540547E-01 0.47279976E+03</pdfrwt>
<pdfrwt beam="2">  1       21 0.29811722E-01 0.47279976E+03</pdfrwt>
<totfact> 0.58152795E+04</totfact>
</mgrwt>
</event>
<event>
 7    0  0.4793433E-002  0.4563534E+03  0.7546771E-02  0.1025844E+00
         21   -1    0    0  502  501  0.00000000000E+00  0.00000000000E+00  0.98683105265E+02  0.98683105265E+02  0.00000000000E+00 0. -1.
         21   -1    0    0  501  502 -0.00000000000E+00 -0.00000000000E+00 -0.52759384851E+03  0.52759384851E+03  0.00000000000E+00 0. -1.
      99926    2    1    2    0    0 -0.71054273576E-14  0.71054273576E-14 -0.42891074325E+03  0.62627695378E+03  0.45635336874E+03 0.  0.
      99925    2    3    3    0    0  0.62932407530E+02 -0.45614170571E+02 -0.38483906660E+03  0.47255330154E+03  0.26299120735E+03 0.  0.
         25    1    3    3    0    0 -0.62932407530E+02  0.45614170571E+02 -0.44071676652E+02  0.15372365224E+03  0.12509000000E+03 0.  0.
         25    1    4    4    0    0  0.44043364106E+02 -0.52840697398E+02 -0.24726013971E+03  0.28551189469E+03  0.12509000000E+03 0.  0.
         25    1    4    4    0    0  0.18889043424E+02  0.72265268271E+01 -0.13757892689E+03  0.18704140685E+03  0.12509000000E+03 0.  0.
<mgrwt>
<rscale>  2 0.45635337E+03</rscale>
<asrwt>0</asrwt>
<pdfrwt beam="1">  1       21 0.14512222E-01 0.45635337E+03</pdfrwt>
<pdfrwt beam="2">  1       21 0.77587329E-01 0.45635337E+03</pdfrwt>
<totfact> 0.56483371E+04</totfact>
</mgrwt>
</event>
<event>
 7    0  0.4793433E-002  0.4534576E+03  0.7546771E-02  0.1026696E+00
         21   -1    0    0  502  501  0.00000000000E+00  0.00000000000E+00  0.12305963710E+03  0.12305963710E+03  0.00000000000E+00 0. -1.
         21   -1    0    0  501  502 -0.00000000000E+00 -0.00000000000E+00 -0.41773199366E+03  0.41773199366E+03  0.00000000000E+00 0. -1.
      99926    2    1    2    0    0  0.00000000000E+00  0.00000000000E+00 -0.29467235656E+03  0.54079163076E+03  0.45345759469E+03 0.  0.
      99925    2    3    3    0    0 -0.18983336635E+02  0.10342487111E+03 -0.14077622877E+03  0.31631758486E+03  0.26302432753E+03 0.  0.
         25    1    4    4    0    0 -0.34547039919E+02  0.53726341772E+02 -0.10728606638E+03  0.17674225841E+03  0.12509000000E+03 0.  0.
         25    1    3    3    0    0  0.18983336635E+02 -0.10342487111E+03 -0.15389612779E+03  0.22447404590E+03  0.12509000000E+03 0.  0.
         25    1    4    4    0    0  0.15563703284E+02  0.49698529338E+02 -0.33490162383E+02  0.13957532645E+03  0.12509000000E+03 0.  0.
<mgrwt>
<rscale>  2 0.45345759E+03</rscale>
<asrwt>0</asrwt>
<pdfrwt beam="1">  1       21 0.18097006E-01 0.45345759E+03</pdfrwt>
<pdfrwt beam="2">  1       21 0.61431175E-01 0.45345759E+03</pdfrwt>
<totfact> 0.63247625E+04</totfact>
</mgrwt>
</event>
<event>
 7    0  0.4793433E-002  0.4447541E+03  0.7546771E-02  0.1029298E+00
         21   -1    0    0  502  501  0.00000000000E+00  0.00000000000E+00  0.43930194232E+03  0.43930194232E+03  0.00000000000E+00 0. -1.
         21   -1    0    0  501  502 -0.00000000000E+00 -0.00000000000E+00 -0.11256847709E+03  0.11256847709E+03  0.00000000000E+00 0. -1.
      99926    2    1    2    0    0 -0.71054273576E-14 -0.71054273576E-14  0.32673346523E+03  0.55187041941E+03  0.44475409218E+03 0.  0.
      99925    2    3    3    0    0  0.36809676835E+02  0.52580148175E+02  0.10683687921E+03  0.29086919157E+03  0.26281389528E+03 0.  0.
         25    1    4    4    0    0  0.44941216119E+01 -0.12466227781E+02  0.53654399678E+02  0.13675491461E+03  0.12509000000E+03 0.  0.
         25    1    4    4    0    0  0.32315555223E+02  0.65046375955E+02  0.53182479537E+02  0.15411427696E+03  0.12509000000E+03 0.  0.
         25    1    3    3    0    0 -0.36809676835E+02 -0.52580148175E+02  0.21989658602E+03  0.26100122784E+03  0.12509000000E+03 0.  0.
<mgrwt>
<rscale>  2 0.44475409E+03</rscale>
<asrwt>0</asrwt>
<pdfrwt beam="1">  1       21 0.64603227E-01 0.44475409E+03</pdfrwt>
<pdfrwt beam="2">  1       21 0.16554188E-01 0.44475409E+03</pdfrwt>
<totfact> 0.67012088E+04</totfact>
</mgrwt>
</event>
<event>
 7    0  0.4793433E-002  0.4698862E+03  0.7546771E-02  0.1021952E+00
         21   -1    0    0  502  501  0.00000000000E+00  0.00000000000E+00  0.51697852820E+03  0.51697852820E+03  0.00000000000E+00 0. -1.
         21   -1    0    0  501  502 -0.00000000000E+00 -0.00000000000E+00 -0.10677089449E+03  0.10677089449E+03  0.00000000000E+00 0. -1.
      99926    2    1    2    0    0  0.00000000000E+00  0.00000000000E+00  0.41020763371E+03  0.62374942269E+03  0.46988619852E+03 0.  0.
      99925    2    3    3    0    0  0.11235562786E+03  0.31491093452E+02  0.18958127897E+03  0.34457389980E+03  0.26301071273E+03 0.  0.
         25    1    4    4    0    0  0.30915010456E+02 -0.16203658067E+01  0.12184575330E+03  0.17734784790E+03  0.12509000000E+03 0.  0.
         25    1    4    4    0    0  0.81440617399E+02  0.33111459258E+02  0.67735525667E+02  0.16722605190E+03  0.12509000000E+03 0.  0.
         25    1    3    3    0    0 -0.11235562786E+03 -0.31491093452E+02  0.22062635474E+03  0.27917552289E+03  0.12509000000E+03 0.  0.
<mgrwt>
<rscale>  2 0.46988620E+03</rscale>
<asrwt>0</asrwt>
<pdfrwt beam="1">  1       21 0.76026253E-01 0.46988620E+03</pdfrwt>
<pdfrwt beam="2">  1       21 0.15701602E-01 0.46988620E+03</pdfrwt>
<totfact> 0.50977900E+04</totfact>
</mgrwt>
</event>
<event>
 7    0  0.4793433E-002  0.4359756E+03  0.7546771E-02  0.1031989E+00
         21   -1    0    0  502  501  0.00000000000E+00  0.00000000000E+00  0.90888720141E+03  0.90888720141E+03  0.00000000000E+00 0.  1.
         21   -1    0    0  501  502 -0.00000000000E+00 -0.00000000000E+00 -0.52282265068E+02  0.52282265068E+02  0.00000000000E+00 0.  1.
      99926    2    1    2    0    0  0.00000000000E+00  0.44408920985E-15  0.85660493634E+03  0.96116946647E+03  0.43597560290E+03 0.  0.
      99925    2    3    3    0    0  0.40333216709E+02 -0.54007592318E+00  0.36164186316E+03  0.44905325704E+03  0.26312911359E+03 0.  0.
         25    1    4    4    0    0  0.58732971413E+02  0.10174930069E+02  0.17193257045E+03  0.22081985421E+03  0.12509000000E+03 0.  0.
         25    1    3    3    0    0 -0.40333216709E+02  0.54007592318E+00  0.49496307318E+03  0.51211620943E+03  0.12509000000E+03 0.  0.
         25    1    4    4    0    0 -0.18399754703E+02 -0.10715005992E+02  0.18970929271E+03  0.22823340283E+03  0.12509000000E+03 0.  0.
<mgrwt>
<rscale>  2 0.43597560E+03</rscale>
<asrwt>0</asrwt>
<pdfrwt beam="1">  1       21 0.13365987E+00 0.43597560E+03</pdfrwt>
<pdfrwt beam="2">  1       21 0.76885690E-02 0.43597560E+03</pdfrwt>
<totfact> 0.47352611E+04</totfact>
</mgrwt>
</event>
<event>
 7    0  0.4793433E-002  0.4224184E+03  0.7546771E-02  0.1036282E+00
         21   -1    0    0  502  501  0.00000000000E+00  0.00000000000E+00  0.68063440751E+02  0.68063440751E+02  0.00000000000E+00 0.  1.
         21   -1    0    0  501  502 -0.00000000000E+00 -0.00000000000E+00 -0.65540808179E+03  0.65540808179E+03  0.00000000000E+00 0.  1.
      99926    2    1    2    0    0 -0.14210854715E-13  0.00000000000E+00 -0.58734464104E+03  0.72347152254E+03  0.42241841410E+03 0.  0.
      99925    2    3    3    0    0  0.73752532420E+02 -0.16514349037E+02 -0.34393260208E+03  0.43955412509E+03  0.26307039809E+03 0.  0.
         25    1    4    4    0    0  0.23994486621E+02  0.87622216830E+01 -0.22237470244E+03  0.25641865825E+03  0.12509000000E+03 0.  0.
         25    1    4    4    0    0  0.49758045799E+02 -0.25276570720E+02 -0.12155789964E+03  0.18313546684E+03  0.12509000000E+03 0.  0.
         25    1    3    3    0    0 -0.73752532420E+02  0.16514349037E+02 -0.24341203897E+03  0.28391739745E+03  0.12509000000E+03 0.  0.
<mgrwt>
<rscale>  2 0.42241841E+03</rscale>
<asrwt>0</asrwt>
<pdfrwt beam="1">  1       21 0.10009330E-01 0.42241841E+03</pdfrwt>
<pdfrwt beam="2">  1       21 0.96383540E-01 0.42241841E+03</pdfrwt>
<totfact> 0.67306258E+04</totfact>
</mgrwt>
</event>
<event>
 7    0  0.4793433E-002  0.4335040E+03  0.7546771E-02  0.1032759E+00
         21   -1    0    0  502  501  0.00000000000E+00  0.00000000000E+00  0.24160319276E+03  0.24160319276E+03  0.00000000000E+00 0. -1.
         21   -1    0    0  501  502 -0.00000000000E+00 -0.00000000000E+00 -0.19445700172E+03  0.19445700172E+03  0.00000000000E+00 0. -1.
      99926    2    1    2    0    0  0.00000000000E+00  0.00000000000E+00  0.47146191043E+02  0.43606019448E+03  0.43350401368E+03 0.  0.
      99925    2    3    3    0    0  0.68661994632E+02 -0.44365813301E+02 -0.10874692639E+02  0.27575821090E+03  0.26313786698E+03 0.  0.
         25    1    4    4    0    0  0.55231923773E+02  0.12822954406E+02 -0.63158012303E+01  0.13748596659E+03  0.12509000000E+03 0.  0.
         25    1    4    4    0    0  0.13430070859E+02 -0.57188767707E+02 -0.45588914084E+01  0.13827224431E+03  0.12509000000E+03 0.  0.
         25    1    3    3    0    0 -0.68661994632E+02  0.44365813301E+02  0.58020883681E+02  0.16030198358E+03  0.12509000000E+03 0.  0.
<mgrwt>
<rscale>  2 0.43350401E+03</rscale>
<asrwt>0</asrwt>
<pdfrwt beam="1">  1       21 0.35529881E-01 0.43350401E+03</pdfrwt>
<pdfrwt beam="2">  1       21 0.28596618E-01 0.43350401E+03</pdfrwt>
<totfact> 0.83361642E+04</totfact>
</mgrwt>
</event>
<event>
 7    0  0.4793433E-002  0.4563730E+03  0.7546771E-02  0.1025838E+00
         21   -1    0    0  502  501  0.00000000000E+00  0.00000000000E+00  0.33592876738E+03  0.33592876738E+03  0.00000000000E+00 0.  1.
         21   -1    0    0  501  502 -0.00000000000E+00 -0.00000000000E+00 -0.15500035155E+03  0.15500035155E+03  0.00000000000E+00 0.  1.
      99926    2    1    2    0    0  0.00000000000E+00 -0.88817841970E-15  0.18092841583E+03  0.49092911893E+03  0.45637299237E+03 0.  0.
      99925    2    3    3    0    0 -0.91364037244E+02  0.64148437655E+01  0.39996982575E+02  0.28141130465E+03  0.26306658140E+03 0.  0.
         25    1    4    4    0    0 -0.13146794554E+02 -0.23391973183E+02  0.22259046818E+02  0.12985759848E+03  0.12509000000E+03 0.  0.
         25    1    4    4    0    0 -0.78217242691E+02  0.29806816949E+02  0.17737935756E+02  0.15155370618E+03  0.12509000000E+03 0.  0.
         25    1    3    3    0    0  0.91364037244E+02 -0.64148437655E+01  0.14093143326E+03  0.20951781428E+03  0.12509000000E+03 0.  0.
<mgrwt>
<rscale>  2 0.45637299E+03</rscale>
<asrwt>0</asrwt>
<pdfrwt beam="1">  1       21 0.49401289E-01 0.45637299E+03</pdfrwt>
<pdfrwt beam="2">  1       21 0.22794169E-01 0.45637299E+03</pdfrwt>
<totfact> 0.65199175E+04</totfact>
</mgrwt>
</event>
<event>
 7    0  0.4793433E-002  0.4397045E+03  0.7546771E-02  0.1030837E+00
         21   -1    0    0  502  501  0.00000000000E+00  0.00000000000E+00  0.49151113836E+02  0.49151113836E+02  0.00000000000E+00 0.  1.
         21   -1    0    0  501  502 -0.00000000000E+00 -0.00000000000E+00 -0.98339628229E+03  0.98339628229E+03  0.00000000000E+00 0.  1.
      99926    2    1    2    0    0 -0.88817841970E-15  0.00000000000E+00 -0.93424516845E+03  0.10325473961E+04  0.43970454906E+03 0.  0.
      99925    2    3    3    0    0  0.70624548013E+01  0.94226823056E+02 -0.53405091213E+03  0.60274334386E+03  0.26298400972E+03 0.  0.
         25    1    4    4    0    0 -0.12788507787E+02  0.20712678784E+02 -0.18952462370E+03  0.22838487709E+03  0.12509000000E+03 0.  0.
         25    1    3    3    0    0 -0.70624548013E+01 -0.94226823056E+02 -0.40019425632E+03  0.42980405226E+03  0.12509000000E+03 0.  0.
         25    1    4    4    0    0  0.19850962588E+02  0.73514144272E+02 -0.34452628843E+03  0.37435846677E+03  0.12509000000E+03 0.  0.
<mgrwt>
<rscale>  2 0.43970455E+03</rscale>
<asrwt>0</asrwt>
<pdfrwt beam="1">  1       21 0.72281054E-02 0.43970455E+03</pdfrwt>
<pdfrwt beam="2">  1       21 0.14461709E+00 0.43970455E+03</pdfrwt>
<totfact> 0.42812518E+04</totfact>
</mgrwt>
</event>
<event>
 7    0  0.4793433E-002  0.4460921E+03  0.7546771E-02  0.1028894E+00
         21   -1    0    0  502  501  0.00000000000E+00  0.00000000000E+00  0.89458486186E+03  0.89458486186E+03  0.00000000000E+00 0.  1.
         21   -1    0    0  501  502 -0.00000000000E+00 -0.00000000000E+00 -0.55611876988E+02  0.55611876988E+02  0.00000000000E+00 0.  1.
      99926    2    1    2    0    0  0.00000000000E+00  0.00000000000E+00  0.83897298487E+03  0.95019673885E+03  0.44609211288E+03 0.  0.
      99925    2    3    3    0    0  0.80407245073E+02  0.66596248233E+02  0.53532765780E+03  0.60559787337E+03  0.26319707005E+03 0.  0.
         25    1    4    4    0    0  0.79587742317E+02  0.47873047945E+02  0.31878199772E+03  0.35481756949E+03  0.12509000000E+03 0.  0.
         25    1    3    3    0    0 -0.80407245073E+02 -0.66596248233E+02  0.30364532707E+03  0.34459886548E+03  0.12509000000E+03 0.  0.
         25    1    4    4    0    0  0.81950275604E+00  0.18723200288E+02  0.21654566008E+03  0.25078030388E+03  0.12509000000E+03 0.  0.
<mgrwt>
<rscale>  2 0.44609211E+03</rscale>
<asrwt>0</asrwt>
<pdfrwt beam="1">  1       21 0.13155659E+00 0.44609211E+03</pdfrwt>
<pdfrwt beam="2">  1       21 0.81782177E-02 0.44609211E+03</pdfrwt>
<totfact> 0.44127352E+04</totfact>
</mgrwt>
</event>
<event>
 7    0  0.4793433E-002  0.4399224E+03  0.7546771E-02  0.1030771E+00
         21   -1    0    0  502  501  0.00000000000E+00  0.00000000000E+00  0.81108004483E+03  0.81108004483E+03  0.00000000000E+00 0.  1.
         21   -1    0    0  501  502 -0.00000000000E+00 -0.00000000000E+00 -0.59652475636E+02  0.59652475636E+02  0.00000000000E+00 0.  1.
      99926    2    1    2    0    0  0.00000000000E+00  0.00000000000E+00  0.75142756919E+03  0.87073252046E+03  0.43992241413E+03 0.  0.
      99925    2    3    3    0    0  0.51765349678E+02  0.83372711805E+02  0.49395469112E+03  0.56812642082E+03  0.26295576177E+03 0.  0.
         25    1    3    3    0    0 -0.51765349678E+02 -0.83372711805E+02  0.25747287807E+03  0.30260609964E+03  0.12509000000E+03 0.  0.
         25    1    4    4    0    0  0.10561012150E+02  0.31453109994E+02  0.16272769642E+03  0.20791499318E+03  0.12509000000E+03 0.  0.
         25    1    4    4    0    0  0.41204337528E+02  0.51919601811E+02  0.33122699470E+03  0.36021142764E+03  0.12509000000E+03 0.  0.
<mgrwt>
<rscale>  2 0.43992241E+03</rscale>
<asrwt>0</asrwt>
<pdfrwt beam="1">  1       21 0.11927647E+00 0.43992241E+03</pdfrwt>
<pdfrwt beam="2">  1       21 0.87724234E-02 0.43992241E+03</pdfrwt>
<totfact> 0.50193267E+04</totfact>
</mgrwt>
</event>
<event>
 7    0  0.4793433E-002  0.4473510E+03  0.7546771E-02  0.1028515E+00
         21   -1    0    0  502  501  0.00000000000E+00  0.00000000000E+00  0.13188046998E+02  0.13188046998E+02  0.00000000000E+00 0.  1.
         21   -1    0    0  501  502 -0.00000000000E+00 -0.00000000000E+00 -0.37936423986E+04  0.37936423986E+04  0.00000000000E+00 0.  1.
      99926    2    1    2    0    0  0.00000000000E+00  0.00000000000E+00 -0.37804543516E+04  0.38068304456E+04  0.44735102211E+03 0.  0.
      99925    2    3    3    0    0  0.65549172139E+02 -0.65788963877E+02 -0.28260265357E+04  0.28397705480E+04  0.26314616260E+03 0.  0.
         25    1    4    4    0    0  0.22278031567E+02 -0.14609331417E+01 -0.15750770221E+04  0.15801941586E+04  0.12509000000E+03 0.  0.
         25    1    4    4    0    0  0.43271140571E+02 -0.64328030736E+02 -0.12509495136E+04  0.12595763894E+04  0.12509000000E+03 0.  0.
         25    1    3    3    0    0 -0.65549172139E+02  0.65788963877E+02 -0.95442781592E+03  0.96705989765E+03  0.12509000000E+03 0.  0.
<mgrwt>
<rscale>  2 0.44735102E+03</rscale>
<asrwt>0</asrwt>
<pdfrwt beam="1">  1       21 0.19394173E-02 0.44735102E+03</pdfrwt>
<pdfrwt beam="2">  1       21 0.55788900E+00 0.44735102E+03</pdfrwt>
<totfact> 0.72818349E+02</totfact>
</mgrwt>
</event>
<event>
 7    0  0.4793433E-002  0.4676305E+03  0.7546771E-02  0.1022591E+00
         21   -1    0    0  502  501  0.00000000000E+00  0.00000000000E+00  0.13869439603E+04  0.13869439603E+04  0.00000000000E+00 0.  1.
         21   -1    0    0  501  502 -0.00000000000E+00 -0.00000000000E+00 -0.39417282166E+02  0.39417282166E+02  0.00000000000E+00 0.  1.
      99926    2    1    2    0    0  0.00000000000E+00 -0.14210854715E-13  0.13475266782E+04  0.14263612425E+04  0.46763045851E+03 0.  0.
      99925    2    3    3    0    0 -0.59543538269E+02 -0.67248551752E+02  0.57515200163E+03  0.63878397663E+03  0.26301586103E+03 0.  0.
         25    1    4    4    0    0 -0.54051315036E+02 -0.38966876484E+02  0.22580020984E+03  0.26659558320E+03  0.12509000000E+03 0.  0.
         25    1    4    4    0    0 -0.54922232330E+01 -0.28281675269E+02  0.34935179180E+03  0.37218839343E+03  0.12509000000E+03 0.  0.
         25    1    3    3    0    0  0.59543538269E+02  0.67248551752E+02  0.77237467653E+03  0.78757726586E+03  0.12509000000E+03 0.  0.
<mgrwt>
<rscale>  2 0.46763046E+03</rscale>
<asrwt>0</asrwt>
<pdfrwt beam="1">  1       21 0.20396231E+00 0.46763046E+03</pdfrwt>
<pdfrwt beam="2">  1       21 0.57966601E-02 0.46763046E+03</pdfrwt>
<totfact> 0.23269114E+04</totfact>
</mgrwt>
</event>
<event>
 7    0  0.4793433E-002  0.4468490E+03  0.7546771E-02  0.1028666E+00
         21   -1    0    0  502  501  0.00000000000E+00  0.00000000000E+00  0.16742888795E+04  0.16742888795E+04  0.00000000000E+00 0. -1.
         21   -1    0    0  501  502 -0.00000000000E+00 -0.00000000000E+00 -0.29814757492E+02  0.29814757492E+02  0.00000000000E+00 0. -1.
      99926    2    1    2    0    0  0.00000000000E+00  0.00000000000E+00  0.16444741220E+04  0.17041036369E+04  0.44684904347E+03 0.  0.
      99925    2    3    3    0    0  0.31870935912E+02  0.94753000082E+02  0.11661996833E+04  0.11997348886E+04  0.26334049042E+03 0.  0.
         25    1    3    3    0    0 -0.31870935912E+02 -0.94753000082E+02  0.47827443862E+03  0.50436874836E+03  0.12509000000E+03 0.  0.
         25    1    4    4    0    0 -0.25192481086E+02  0.50328581041E+02  0.57497110328E+03  0.59110650892E+03  0.12509000000E+03 0.  0.
         25    1    4    4    0    0  0.57063416998E+02  0.44424419042E+02  0.59122858006E+03  0.60862837967E+03  0.12509000000E+03 0.  0.
<mgrwt>
<rscale>  2 0.44684904E+03</rscale>
<asrwt>0</asrwt>
<pdfrwt beam="1">  1       21 0.24621889E+00 0.44684904E+03</pdfrwt>
<pdfrwt beam="2">  1       21 0.43845243E-02 0.44684904E+03</pdfrwt>
<totfact> 0.20439735E+04</totfact>
</mgrwt>
</event>
<event>
 7    0  0.4793433E-002  0.4535970E+03  0.7546771E-02  0.1026655E+00
         21   -1    0    0  502  501  0.00000000000E+00  0.00000000000E+00  0.17176528386E+03  0.17176528386E+03  0.00000000000E+00 0.  1.
         21   -1    0    0  501  502 -0.00000000000E+00 -0.00000000000E+00 -0.29946421519E+03  0.29946421519E+03  0.00000000000E+00 0.  1.
      99926    2    1    2    0    0  0.00000000000E+00  0.00000000000E+00 -0.12769893133E+03  0.47122949904E+03  0.45359698379E+03 0.  0.
      99925    2    3    3    0    0  0.69959663799E+02 -0.50375602852E+02 -0.15449077660E+03  0.31696554669E+03  0.26299753196E+03 0.  0.
         25    1    4    4    0    0  0.49905209704E+02 -0.63246251565E+02 -0.93942745569E+02  0.17596410383E+03  0.12509000000E+03 0.  0.
         25    1    4    4    0    0  0.20054454096E+02  0.12870648713E+02 -0.60548031031E+02  0.14100144286E+03  0.12509000000E+03 0.  0.
         25    1    3    3    0    0 -0.69959663799E+02  0.50375602852E+02  0.26791845271E+02  0.15426395235E+03  0.12509000000E+03 0.  0.
<mgrwt>
<rscale>  2 0.45359698E+03</rscale>
<asrwt>0</asrwt>
<pdfrwt beam="1">  1       21 0.25259601E-01 0.45359698E+03</pdfrwt>
<pdfrwt beam="2">  1       21 0.44038854E-01 0.45359698E+03</pdfrwt>
<totfact> 0.68099296E+04</totfact>
</mgrwt>
</event>
<event>
 7    0  0.4793433E-002  0.4488169E+03  0.7546771E-02  0.1028075E+00
         21   -1    0    0  502  501  0.00000000000E+00  0.00000000000E+00  0.36604336117E+03  0.36604336117E+03  0.00000000000E+00 0.  1.
         21   -1    0    0  501  502 -0.00000000000E+00 -0.00000000000E+00 -0.13757702017E+03  0.13757702017E+03  0.00000000000E+00 0.  1.
      99926    2    1    2    0    0  0.00000000000E+00  0.00000000000E+00  0.22846634099E+03  0.50362038134E+03  0.44881691093E+03 0.  0.
      99925    2    3    3    0    0  0.68983522967E+02 -0.52156397056E+02  0.73319702043E+02  0.28637166702E+03  0.26297136112E+03 0.  0.
         25    1    4    4    0    0  0.62802868282E+02 -0.66312547047E+01  0.60051034798E+02  0.15245264407E+03  0.12509000000E+03 0.  0.
         25    1    3    3    0    0 -0.68983522967E+02  0.52156397056E+02  0.15514663895E+03  0.21724871432E+03  0.12509000000E+03 0.  0.
         25    1    4    4    0    0  0.61806546848E+01 -0.45525142352E+02  0.13268667245E+02  0.13391902295E+03  0.12509000000E+03 0.  0.
<mgrwt>
<rscale>  2 0.44881691E+03</rscale>
<asrwt>0</asrwt>
<pdfrwt beam="1">  1       21 0.53829906E-01 0.44881691E+03</pdfrwt>
<pdfrwt beam="2">  1       21 0.20231915E-01 0.44881691E+03</pdfrwt>
<totfact> 0.68308193E+04</totfact>
</mgrwt>
</event>
<event>
 7    0  0.4793433E-002  0.4467089E+03  0.7546771E-02  0.1028708E+00
         21   -1    0    0  502  501  0.00000000000E+00  0.00000000000E+00  0.17135479442E+03  0.17135479442E+03  0.00000000000E+00 0.  1.
         21   -1    0    0  501  502 -0.00000000000E+00 -0.00000000000E+00 -0.29113406594E+03  0.29113406594E+03  0.00000000000E+00 0.  1.
      99926    2    1    2    0    0  0.00000000000E+00  0.00000000000E+00 -0.11977927153E+03  0.46248886036E+03  0.44670893439E+03 0.  0.
      99925    2    3    3    0    0  0.16151084676E+02  0.33641118249E+02  0.25864565922E+02  0.26690711821E+03  0.26301682762E+03 0.  0.
         25    1    3    3    0    0 -0.16151084676E+02 -0.33641118249E+02 -0.14564383745E+03  0.19558174214E+03  0.12509000000E+03 0.  0.
         25    1    4    4    0    0 -0.11208467294E+02  0.12381559009E+02 -0.22878074773E+02  0.12825695750E+03  0.12509000000E+03 0.  0.
         25    1    4    4    0    0  0.27359551969E+02  0.21259559240E+02  0.48742640696E+02  0.13865016071E+03  0.12509000000E+03 0.  0.
<mgrwt>
<rscale>  2 0.44670893E+03</rscale>
<asrwt>0</asrwt>
<pdfrwt beam="1">  1       21 0.25199234E-01 0.44670893E+03</pdfrwt>
<pdfrwt beam="2">  1       21 0.42813833E-01 0.44670893E+03</pdfrwt>
<totfact> 0.72661123E+04</totfact>
</mgrwt>
</event>
<event>
 7    0  0.4793433E-002  0.4741656E+03  0.7546771E-02  0.1020751E+00
         21   -1    0    0  502  501  0.00000000000E+00  0.00000000000E+00  0.42882142281E+03  0.42882142281E+03  0.00000000000E+00 0. -1.
         21   -1    0    0  501  502 -0.00000000000E+00 -0.00000000000E+00 -0.13107614977E+03  0.13107614977E+03  0.00000000000E+00 0. -1.
      99926    2    1    2    0    0  0.00000000000E+00  0.00000000000E+00  0.29774527303E+03  0.55989757258E+03  0.47416562947E+03 0.  0.
      99925    2    3    3    0    0  0.12166229042E+03 -0.24813659314E+02  0.13748955006E+03  0.32168162969E+03  0.26297958839E+03 0.  0.
         25    1    4    4    0    0  0.78084120330E+02 -0.22652308054E+02  0.32613390687E+02  0.15271345147E+03  0.12509000000E+03 0.  0.
         25    1    3    3    0    0 -0.12166229042E+03  0.24813659314E+02  0.16025572298E+03  0.23821594289E+03  0.12509000000E+03 0.  0.
         25    1    4    4    0    0  0.43578170089E+02 -0.21613512596E+01  0.10487615937E+03  0.16896817822E+03  0.12509000000E+03 0.  0.
<mgrwt>
<rscale>  2 0.47416563E+03</rscale>
<asrwt>0</asrwt>
<pdfrwt beam="1">  1       21 0.63061973E-01 0.47416563E+03</pdfrwt>
<pdfrwt beam="2">  1       21 0.19275905E-01 0.47416563E+03</pdfrwt>
<totfact> 0.52750479E+04</totfact>
</mgrwt>
</event>
<event>
 7    0  0.4793433E-002  0.4508600E+03  0.7546771E-02  0.1027466E+00
         21   -1    0    0  502  501  0.00000000000E+00  0.00000000000E+00  0.35901698027E+03  0.35901698027E+03  0.00000000000E+00 0.  1.
         21   -1    0    0  501  502 -0.00000000000E+00 -0.00000000000E+00 -0.14154952957E+03  0.14154952957E+03  0.00000000000E+00 0.  1.
      99926    2    1    2    0    0  0.00000000000E+00  0.71054273576E-14  0.21746745070E+03  0.50056650984E+03  0.45085999895E+03 0.  0.
      99925    2    3    3    0    0 -0.79523422938E+02  0.41574235000E+02  0.68320771285E+02  0.28621952037E+03  0.26306176887E+03 0.  0.
         25    1    4    4    0    0 -0.30921598851E+02 -0.39654937318E+01  0.50506301949E-01  0.12891617845E+03  0.12509000000E+03 0.  0.
         25    1    4    4    0    0 -0.48601824086E+02  0.45539728732E+02  0.68270264983E+02  0.15730334192E+03  0.12509000000E+03 0.  0.
         25    1    3    3    0    0  0.79523422938E+02 -0.41574235000E+02  0.14914667942E+03  0.21434698946E+03  0.12509000000E+03 0.  0.
<mgrwt>
<rscale>  2 0.45086000E+03</rscale>
<asrwt>0</asrwt>
<pdfrwt beam="1">  1       21 0.52796615E-01 0.45086000E+03</pdfrwt>
<pdfrwt beam="2">  1       21 0.20816107E-01 0.45086000E+03</pdfrwt>
<totfact> 0.67419309E+04</totfact>
</mgrwt>
</event>
<event>
 7    0  0.4793433E-002  0.4555175E+03  0.7546771E-02  0.1026089E+00
         21   -1    0    0  502  501  0.00000000000E+00  0.00000000000E+00  0.96564597154E+03  0.96564597154E+03  0.00000000000E+00 0. -1.
         21   -1    0    0  501  502 -0.00000000000E+00 -0.00000000000E+00 -0.53719539933E+02  0.53719539933E+02  0.00000000000E+00 0. -1.
      99926    2    1    2    0    0 -0.35527136788E-14 -0.14210854715E-13  0.91192643160E+03  0.10193655115E+04  0.45551754008E+03 0.  0.
      99925    2    3    3    0    0  0.30219593886E+02  0.92596428318E+02  0.70462685516E+03  0.75839052247E+03  0.26300162958E+03 0.  0.
         25    1    4    4    0    0  0.16930139902E+02  0.24833010203E+02  0.24022704611E+03  0.27250660508E+03  0.12509000000E+03 0.  0.
         25    1    3    3    0    0 -0.30219593886E+02 -0.92596428318E+02  0.20729957644E+03  0.26097498900E+03  0.12509000000E+03 0.  0.
         25    1    4    4    0    0  0.13289453984E+02  0.67763418114E+02  0.46439980906E+03  0.48588391738E+03  0.12509000000E+03 0.  0.
<mgrwt>
<rscale>  2 0.45551754E+03</rscale>
<asrwt>0</asrwt>
<pdfrwt beam="1">  1       21 0.14200675E+00 0.45551754E+03</pdfrwt>
<pdfrwt beam="2">  1       21 0.78999330E-02 0.45551754E+03</pdfrwt>
<totfact> 0.38267037E+04</totfact>
</mgrwt>
</event>
<event>
 7    0  0.4793433E-002  0.4510129E+03  0.7546771E-02  0.1027420E+00
         21   -1    0    0  502  501  0.00000000000E+00  0.00000000000E+00  0.80427204296E+03  0.80427204296E+03  0.00000000000E+00 0.  1.
         21   -1    0    0  501  502 -0.00000000000E+00 -0.00000000000E+00 -0.63228799547E+02  0.63228799547E+02  0.00000000000E+00 0.  1.
      99926    2    1    2    0    0  0.00000000000E+00 -0.35527136788E-14  0.74104324341E+03  0.86750084251E+03  0.45101288578E+03 0.  0.
      99925    2    3    3    0    0  0.77893679188E+02 -0.79365273902E+01  0.32135421275E+03  0.42262242734E+03  0.26307940306E+03 0.  0.
         25    1    4    4    0    0  0.37915511192E+02  0.35223075563E+02  0.14212759799E+03  0.19628044541E+03  0.12509000000E+03 0.  0.
         25    1    4    4    0    0  0.39978167995E+02 -0.43159602954E+02  0.17922661477E+03  0.22634198193E+03  0.12509000000E+03 0.  0.
         25    1    3    3    0    0 -0.77893679188E+02  0.79365273902E+01  0.41968903066E+03  0.44487841517E+03  0.12509000000E+03 0.  0.
<mgrwt>
<rscale>  2 0.45101289E+03</rscale>
<asrwt>0</asrwt>
<pdfrwt beam="1">  1       21 0.11827529E+00 0.45101289E+03</pdfrwt>
<pdfrwt beam="2">  1       21 0.92983534E-02 0.45101289E+03</pdfrwt>
<totfact> 0.46090636E+04</totfact>
</mgrwt>
</event>
<event>
 7    0  0.4793433E-002  0.4460735E+03  0.7546771E-02  0.1028899E+00
         21   -1    0    0  502  501  0.00000000000E+00  0.00000000000E+00  0.23657443047E+03  0.23657443047E+03  0.00000000000E+00 0.  1.
         21   -1    0    0  501  502 -0.00000000000E+00 -0.00000000000E+00 -0.21027371066E+03  0.21027371066E+03  0.00000000000E+00 0.  1.
      99926    2    1    2    0    0 -0.71054273576E-14 -0.14210854715E-13  0.26300719808E+02  0.44684814113E+03  0.44607346185E+03 0.  0.
      99925    2    3    3    0    0  0.42844617917E+02  0.65910230396E+02  0.85724284188E+02  0.28760465505E+03  0.26303605257E+03 0.  0.
         25    1    3    3    0    0 -0.42844617917E+02 -0.65910230396E+02 -0.59423564380E+02  0.15924348608E+03  0.12509000000E+03 0.  0.
         25    1    4    4    0    0  0.47059721445E+02  0.37881421771E+02  0.77523323979E+02  0.15908171912E+03  0.12509000000E+03 0.  0.
         25    1    4    4    0    0 -0.42151035282E+01  0.28028808624E+02  0.82009602087E+01  0.12852293593E+03  0.12509000000E+03 0.  0.
<mgrwt>
<rscale>  2 0.44607346E+03</rscale>
<asrwt>0</asrwt>
<pdfrwt beam="1">  1       21 0.34790357E-01 0.44607346E+03</pdfrwt>
<pdfrwt beam="2">  1       21 0.30922604E-01 0.44607346E+03</pdfrwt>
<totfact> 0.74299718E+04</totfact>
</mgrwt>
</event>
<event>
 7    0  0.4793433E-002  0.4530081E+03  0.7546771E-02  0.1026829E+00
         21   -1    0    0  502  501  0.00000000000E+00  0.00000000000E+00  0.21654254398E+03  0.21654254398E+03  0.00000000000E+00 0. -1.
         21   -1    0    0  501  502 -0.00000000000E+00 -0.00000000000E+00 -0.23692382014E+03  0.23692382014E+03  0.00000000000E+00 0. -1.
      99926    2    1    2    0    0  0.00000000000E+00 -0.88817841970E-15 -0.20381276157E+02  0.45346636412E+03  0.45300810916E+03 0.  0.
      99925    2    3    3    0    0 -0.97803523353E+02 -0.68096417209E+01  0.40128741884E+02  0.28340499054E+03  0.26286150790E+03 0.  0.
         25    1    4    4    0    0 -0.74559588461E+02 -0.15160603453E+01  0.53974457386E+02  0.15531317015E+03  0.12509000000E+03 0.  0.
         25    1    3    3    0    0  0.97803523353E+02  0.68096417209E+01 -0.60510018041E+02  0.17006137358E+03  0.12509000000E+03 0.  0.
         25    1    4    4    0    0 -0.23243934892E+02 -0.52935813756E+01 -0.13845715502E+02  0.12809182039E+03  0.12509000000E+03 0.  0.
<mgrwt>
<rscale>  2 0.45300811E+03</rscale>
<asrwt>0</asrwt>
<pdfrwt beam="1">  1       21 0.31844492E-01 0.45300811E+03</pdfrwt>
<pdfrwt beam="2">  1       21 0.34841738E-01 0.45300811E+03</pdfrwt>
<totfact> 0.69760446E+04</totfact>
</mgrwt>
</event>
<event>
 7    0  0.4793433E-002  0.4451586E+03  0.7546771E-02  0.1029176E+00
         21   -1    0    0  502  501  0.00000000000E+00  0.00000000000E+00  0.36585710098E+03  0.36585710098E+03  0.00000000000E+00 0.  1.
         21   -1    0    0  501  502 -0.00000000000E+00 -0.00000000000E+00 -0.13541229381E+03  0.13541229381E+03  0.00000000000E+00 0.  1.
      99926    2    1    2    0    0  0.00000000000E+00 -0.14210854715E-13  0.23044480717E+03  0.50126939480E+03  0.44515862005E+03 0.  0.
      99925    2    3    3    0    0  0.68821231475E+02 -0.74293915383E+02  0.17025045577E+03  0.32943570833E+03  0.26322370803E+03 0.  0.
         25    1    4    4    0    0  0.15996292024E+02 -0.10132988866E+02  0.10989454386E+03  0.16757946680E+03  0.12509000000E+03 0.  0.
         25    1    3    3    0    0 -0.68821231475E+02  0.74293915383E+02  0.60194351403E+02  0.17183368647E+03  0.12509000000E+03 0.  0.
         25    1    4    4    0    0  0.52824939452E+02 -0.64160926517E+02  0.60355911906E+02  0.16185624153E+03  0.12509000000E+03 0.  0.
<mgrwt>
<rscale>  2 0.44515862E+03</rscale>
<asrwt>0</asrwt>
<pdfrwt beam="1">  1       21 0.53802515E-01 0.44515862E+03</pdfrwt>
<pdfrwt beam="2">  1       21 0.19913573E-01 0.44515862E+03</pdfrwt>
<totfact> 0.70531899E+04</totfact>
</mgrwt>
</event>
<event>
 7    0  0.4793433E-002  0.4464813E+03  0.7546771E-02  0.1028777E+00
         21   -1    0    0  502  501  0.00000000000E+00  0.00000000000E+00  0.12908588181E+03  0.12908588181E+03  0.00000000000E+00 0. -1.
         21   -1    0    0  501  502 -0.00000000000E+00 -0.00000000000E+00 -0.38607164278E+03  0.38607164278E+03  0.00000000000E+00 0. -1.
      99926    2    1    2    0    0 -0.22204460493E-15  0.71054273576E-14 -0.25698576097E+03  0.51515752459E+03  0.44648134765E+03 0.  0.
      99925    2    3    3    0    0 -0.79559750406E+00  0.41956789038E+02 -0.51959635084E+02  0.27134565958E+03  0.26299744899E+03 0.  0.
         25    1    4    4    0    0 -0.52375625689E+01 -0.24497565787E+01  0.83074287574E+01  0.12549882406E+03  0.12509000000E+03 0.  0.
         25    1    4    4    0    0  0.44419650648E+01  0.44406545617E+02 -0.60267063842E+02  0.14584683552E+03  0.12509000000E+03 0.  0.
         25    1    3    3    0    0  0.79559750406E+00 -0.41956789038E+02 -0.20502612589E+03  0.24381186501E+03  0.12509000000E+03 0.  0.
<mgrwt>
<rscale>  2 0.44648135E+03</rscale>
<asrwt>0</asrwt>
<pdfrwt beam="1">  1       21 0.18983218E-01 0.44648135E+03</pdfrwt>
<pdfrwt beam="2">  1       21 0.56775242E-01 0.44648135E+03</pdfrwt>
<totfact> 0.68748528E+04</totfact>
</mgrwt>
</event>
<event>
 7    0  0.4793433E-002  0.4425155E+03  0.7546771E-02  0.1029978E+00
         21   -1    0    0  502  501  0.00000000000E+00  0.00000000000E+00  0.13535711896E+03  0.13535711896E+03  0.00000000000E+00 0. -1.
         21   -1    0    0  501  502 -0.00000000000E+00 -0.00000000000E+00 -0.36167279136E+03  0.36167279136E+03  0.00000000000E+00 0. -1.
      99926    2    1    2    0    0  0.00000000000E+00  0.00000000000E+00 -0.22631567240E+03  0.49702991032E+03  0.44251547789E+03 0.  0.
      99925    2    3    3    0    0 -0.85287812346E+02 -0.27386155563E+02 -0.19653072829E+03  0.34031787042E+03  0.26299793405E+03 0.  0.
         25    1    4    4    0    0 -0.69479737091E+02 -0.30723882454E+02 -0.72126341156E+02  0.16315976222E+03  0.12509000000E+03 0.  0.
         25    1    3    3    0    0  0.85287812346E+02  0.27386155563E+02 -0.29784944115E+02  0.15671203989E+03  0.12509000000E+03 0.  0.
         25    1    4    4    0    0 -0.15808075255E+02  0.33377268903E+01 -0.12440438713E+03  0.17715810820E+03  0.12509000000E+03 0.  0.
<mgrwt>
<rscale>  2 0.44251548E+03</rscale>
<asrwt>0</asrwt>
<pdfrwt beam="1">  1       21 0.19905459E-01 0.44251548E+03</pdfrwt>
<pdfrwt beam="2">  1       21 0.53187176E-01 0.44251548E+03</pdfrwt>
<totfact> 0.72391838E+04</totfact>
</mgrwt>
</event>
<event>
 7    0  0.4793433E-002  0.4620807E+03  0.7546771E-02  0.1024179E+00
         21   -1    0    0  502  501  0.00000000000E+00  0.00000000000E+00  0.89922988361E+02  0.89922988361E+02  0.00000000000E+00 0.  1.
         21   -1    0    0  501  502 -0.00000000000E+00 -0.00000000000E+00 -0.59361511202E+03  0.59361511202E+03  0.00000000000E+00 0.  1.
      99926    2    1    2    0    0  0.00000000000E+00  0.00000000000E+00 -0.50369212366E+03  0.68353810038E+03  0.46208070641E+03 0.  0.
      99925    2    3    3    0    0  0.36861250302E+02 -0.67539967145E+02 -0.17914052025E+03  0.32730552142E+03  0.26290146333E+03 0.  0.
         25    1    4    4    0    0 -0.78103703185E+01 -0.14004816227E+01 -0.88357632581E+02  0.15335430404E+03  0.12509000000E+03 0.  0.
         25    1    4    4    0    0  0.44671620620E+02 -0.66139485522E+02 -0.90782887665E+02  0.17395121738E+03  0.12509000000E+03 0.  0.
         25    1    3    3    0    0 -0.36861250302E+02  0.67539967145E+02 -0.32455160341E+03  0.35623257896E+03  0.12509000000E+03 0.  0.
<mgrwt>
<rscale>  2 0.46208071E+03</rscale>
<asrwt>0</asrwt>
<pdfrwt beam="1">  1       21 0.13223970E-01 0.46208071E+03</pdfrwt>
<pdfrwt beam="2">  1       21 0.87296334E-01 0.46208071E+03</pdfrwt>
<totfact> 0.50906545E+04</totfact>
</mgrwt>
</event>
<event>
 7    0  0.4793433E-002  0.4602208E+03  0.7546771E-02  0.1024717E+00
         21   -1    0    0  502  501  0.00000000000E+00  0.00000000000E+00  0.39756725424E+03  0.39756725424E+03  0.00000000000E+00 0.  1.
         21   -1    0    0  501  502 -0.00000000000E+00 -0.00000000000E+00 -0.13318699863E+03  0.13318699863E+03  0.00000000000E+00 0.  1.
      99926    2    1    2    0    0  0.00000000000E+00  0.00000000000E+00  0.26438025561E+03  0.53075425286E+03  0.46022077026E+03 0.  0.
      99925    2    3    3    0    0  0.47851564782E+02  0.20218007801E+02  0.28775290133E+03  0.39330488488E+03  0.26303699389E+03 0.  0.
         25    1    4    4    0    0  0.62463115765E+02  0.17187389904E+02  0.13274354224E+03  0.19355981843E+03  0.12509000000E+03 0.  0.
         25    1    4    4    0    0 -0.14611550982E+02  0.30306178971E+01  0.15500935909E+03  0.19974506645E+03  0.12509000000E+03 0.  0.
         25    1    3    3    0    0 -0.47851564782E+02 -0.20218007801E+02 -0.23372645717E+02  0.13744936798E+03  0.12509000000E+03 0.  0.
<mgrwt>
<rscale>  2 0.46022077E+03</rscale>
<asrwt>0</asrwt>
<pdfrwt beam="1">  1       21 0.58465772E-01 0.46022077E+03</pdfrwt>
<pdfrwt beam="2">  1       21 0.19586323E-01 0.46022077E+03</pdfrwt>
<totfact> 0.60608261E+04</totfact>
</mgrwt>
</event>
<event>
 7    0  0.4793433E-002  0.4527856E+03  0.7546771E-02  0.1026895E+00
         21   -1    0    0  502  501  0.00000000000E+00  0.00000000000E+00  0.47577931247E+03  0.47577931247E+03  0.00000000000E+00 0.  1.
         21   -1    0    0  501  502 -0.00000000000E+00 -0.00000000000E+00 -0.10772578541E+03  0.10772578541E+03  0.00000000000E+00 0.  1.
      99926    2    1    2    0    0  0.00000000000E+00 -0.88817841970E-15  0.36805352706E+03  0.58350509788E+03  0.45278560100E+03 0.  0.
      99925    2    3    3    0    0  0.10549255083E+03 -0.50947623566E+01  0.27732457255E+03  0.39633168585E+03  0.26270754041E+03 0.  0.
         25    1    4    4    0    0  0.51606877013E+02  0.24125000312E+02  0.95914310321E+02  0.16760772184E+03  0.12509000000E+03 0.  0.
         25    1    3    3    0    0 -0.10549255083E+03  0.50947623566E+01  0.90728954510E+02  0.18717341203E+03  0.12509000000E+03 0.  0.
         25    1    4    4    0    0  0.53885673815E+02 -0.29219762668E+02  0.18141026223E+03  0.22872396402E+03  0.12509000000E+03 0.  0.
<mgrwt>
<rscale>  2 0.45278560E+03</rscale>
<asrwt>0</asrwt>
<pdfrwt beam="1">  1       21 0.69967545E-01 0.45278560E+03</pdfrwt>
<pdfrwt beam="2">  1       21 0.15842027E-01 0.45278560E+03</pdfrwt>
<totfact> 0.60761879E+04</totfact>
</mgrwt>
</event>
<event>
 7    0  0.4793433E-002  0.4584282E+03  0.7546771E-02  0.1025238E+00
         21   -1    0    0  502  501  0.00000000000E+00  0.00000000000E+00  0.68521506585E+03  0.68521506585E+03  0.00000000000E+00 0.  1.
         21   -1    0    0  501  502 -0.00000000000E+00 -0.00000000000E+00 -0.76675343169E+02  0.76675343169E+02  0.00000000000E+00 0.  1.
      99926    2    1    2    0    0  0.88817841970E-15  0.00000000000E+00  0.60853972268E+03  0.76189040902E+03  0.45842818551E+03 0.  0.
      99925    2    3    3    0    0 -0.14257453581E+01  0.21164961027E+02  0.57191073806E+03  0.62983292555E+03  0.26297838975E+03 0.  0.
         25    1    4    4    0    0  0.15070088014E+02  0.25632258518E+02  0.20681637614E+03  0.24352544378E+03  0.12509000000E+03 0.  0.
         25    1    4    4    0    0 -0.16495833372E+02 -0.44672974911E+01  0.36509436192E+03  0.38630748177E+03  0.12509000000E+03 0.  0.
         25    1    3    3    0    0  0.14257453581E+01 -0.21164961027E+02  0.36628984620E+02  0.13205748347E+03  0.12509000000E+03 0.  0.
<mgrwt>
<rscale>  2 0.45842819E+03</rscale>
<asrwt>0</asrwt>
<pdfrwt beam="1">  1       21 0.10076692E+00 0.45842819E+03</pdfrwt>
<pdfrwt beam="2">  1       21 0.11275786E-01 0.45842819E+03</pdfrwt>
<totfact> 0.48348532E+04</totfact>
</mgrwt>
</event>
<event>
 7    0  0.4793433E-002  0.4512919E+03  0.7546771E-02  0.1027337E+00
         21   -1    0    0  502  501  0.00000000000E+00  0.00000000000E+00  0.71529542896E+02  0.71529542896E+02  0.00000000000E+00 0. -1.
         21   -1    0    0  501  502 -0.00000000000E+00 -0.00000000000E+00 -0.71181909839E+03  0.71181909839E+03  0.00000000000E+00 0. -1.
      99926    2    1    2    0    0  0.00000000000E+00  0.14210854715E-13 -0.64028955549E+03  0.78334864128E+03  0.45129189992E+03 0.  0.
      99925    2    3    3    0    0 -0.43801280228E+02 -0.85991366753E+02 -0.31316025425E+03  0.42006616836E+03  0.26281775749E+03 0.  0.
         25    1    4    4    0    0 -0.42201304458E+02 -0.31174183208E+02 -0.20512964662E+03  0.24592368698E+03  0.12509000000E+03 0.  0.
         25    1    3    3    0    0  0.43801280228E+02  0.85991366753E+02 -0.32712930124E+03  0.36328247293E+03  0.12509000000E+03 0.  0.
         25    1    4    4    0    0 -0.15999757706E+01 -0.54817183545E+02 -0.10803060763E+03  0.17414248138E+03  0.12509000000E+03 0.  0.
<mgrwt>
<rscale>  2 0.45129190E+03</rscale>
<asrwt>0</asrwt>
<pdfrwt beam="1">  1       21 0.10519050E-01 0.45129190E+03</pdfrwt>
<pdfrwt beam="2">  1       21 0.10467928E+00 0.45129190E+03</pdfrwt>
<totfact> 0.50020831E+04</totfact>
</mgrwt>
</event>
<event>
 7    0  0.4793433E-002  0.4676268E+03  0.7546771E-02  0.1022592E+00
         21   -1    0    0  502  501  0.00000000000E+00  0.00000000000E+00  0.11409054663E+04  0.11409054663E+04  0.00000000000E+00 0.  1.
         21   -1    0    0  501  502 -0.00000000000E+00 -0.00000000000E+00 -0.47916938782E+02  0.47916938782E+02  0.00000000000E+00 0.  1.
      99926    2    1    2    0    0  0.00000000000E+00  0.00000000000E+00  0.10929885275E+04  0.11888224051E+04  0.46762676307E+03 0.  0.
      99925    2    3    3    0    0 -0.92141129954E+02 -0.33758054587E+02  0.87587247617E+03  0.91971929857E+03  0.26287145067E+03 0.  0.
         25    1    4    4    0    0 -0.16267005372E+02  0.50886314425E-01  0.32122353620E+03  0.34510387764E+03  0.12509000000E+03 0.  0.
         25    1    4    4    0    0 -0.75874124583E+02 -0.33808940901E+02  0.55464893997E+03  0.57461542093E+03  0.12509000000E+03 0.  0.
         25    1    3    3    0    0  0.92141129954E+02  0.33758054587E+02  0.21711605134E+03  0.26910310650E+03  0.12509000000E+03 0.  0.
<mgrwt>
<rscale>  2 0.46762676E+03</rscale>
<asrwt>0</asrwt>
<pdfrwt beam="1">  1       21 0.16778020E+00 0.46762676E+03</pdfrwt>
<pdfrwt beam="2">  1       21 0.70466094E-02 0.46762676E+03</pdfrwt>
<totfact> 0.29501462E+04</totfact>
</mgrwt>
</event>
<event>
 7    0  0.4793433E-002  0.4284442E+03  0.7546771E-02  0.1034353E+00
         21   -1    0    0  502  501  0.00000000000E+00  0.00000000000E+00  0.64757850090E+02  0.64757850090E+02  0.00000000000E+00 0. -1.
         21   -1    0    0  501  502 -0.00000000000E+00 -0.00000000000E+00 -0.70865721489E+03  0.70865721489E+03  0.00000000000E+00 0. -1.
      99926    2    1    2    0    0  0.00000000000E+00 -0.71054273576E-14 -0.64389936480E+03  0.77341506498E+03  0.42844424462E+03 0.  0.
      99925    2    3    3    0    0  0.58259305349E+02  0.40684967430E+02 -0.32886552374E+03  0.42708683577E+03  0.26306124638E+03 0.  0.
         25    1    4    4    0    0  0.74165352202E+00  0.34065559029E+02 -0.11886675325E+03  0.17589151625E+03  0.12509000000E+03 0.  0.
         25    1    3    3    0    0 -0.58259305349E+02 -0.40684967430E+02 -0.31503384106E+03  0.34632822921E+03  0.12509000000E+03 0.  0.
         25    1    4    4    0    0  0.57517651827E+02  0.66194084009E+01 -0.20999877049E+03  0.25119531952E+03  0.12509000000E+03 0.  0.
<mgrwt>
<rscale>  2 0.42844424E+03</rscale>
<asrwt>0</asrwt>
<pdfrwt beam="1">  1       21 0.95232139E-02 0.42844424E+03</pdfrwt>
<pdfrwt beam="2">  1       21 0.10421429E+00 0.42844424E+03</pdfrwt>
<totfact> 0.60794837E+04</totfact>
</mgrwt>
</event>
<event>
 7    0  0.4793433E-002  0.4582457E+03  0.7546771E-02  0.1025291E+00
         21   -1    0    0  502  501  0.00000000000E+00  0.00000000000E+00  0.12187448847E+04  0.12187448847E+04  0.00000000000E+00 0.  1.
         21   -1    0    0  501  502 -0.00000000000E+00 -0.00000000000E+00 -0.43074867021E+02  0.43074867021E+02  0.00000000000E+00 0.  1.
      99926    2    1    2    0    0  0.00000000000E+00 -0.14210854715E-13  0.11756700177E+04  0.12618197517E+04  0.45824567141E+03 0.  0.
      99925    2    3    3    0    0  0.15581240470E+02 -0.89465333578E+02  0.53761755113E+03  0.60530982861E+03  0.26290784768E+03 0.  0.
         25    1    4    4    0    0  0.17633245648E+02 -0.77310302462E+02  0.23699511833E+03  0.27946736559E+03  0.12509000000E+03 0.  0.
         25    1    3    3    0    0 -0.15581240470E+02  0.89465333578E+02  0.63805246656E+03  0.65650992311E+03  0.12509000000E+03 0.  0.
         25    1    4    4    0    0 -0.20520051786E+01 -0.12155031116E+02  0.30062243280E+03  0.32584246302E+03  0.12509000000E+03 0.  0.
<mgrwt>
<rscale>  2 0.45824567E+03</rscale>
<asrwt>0</asrwt>
<pdfrwt beam="1">  1       21 0.17922717E+00 0.45824567E+03</pdfrwt>
<pdfrwt beam="2">  1       21 0.63345400E-02 0.45824567E+03</pdfrwt>
<totfact> 0.29491871E+04</totfact>
</mgrwt>
</event>
<event>
 7    0  0.4793433E-002  0.4543657E+03  0.7546771E-02  0.1026428E+00
         21   -1    0    0  502  501  0.00000000000E+00  0.00000000000E+00  0.15082520316E+03  0.15082520316E+03  0.00000000000E+00 0.  1.
         21   -1    0    0  501  502 -0.00000000000E+00 -0.00000000000E+00 -0.34219778024E+03  0.34219778024E+03  0.00000000000E+00 0.  1.
      99926    2    1    2    0    0  0.00000000000E+00 -0.71054273576E-14 -0.19137257708E+03  0.49302298340E+03  0.45436571053E+03 0.  0.
      99925    2    3    3    0    0  0.55880021292E+01 -0.60328235322E+02 -0.17384319649E+02  0.27033453833E+03  0.26288367446E+03 0.  0.
         25    1    4    4    0    0 -0.98698254488E+01 -0.49064094759E+02  0.24701516968E+02  0.13697580768E+03  0.12509000000E+03 0.  0.
         25    1    4    4    0    0  0.15457827578E+02 -0.11264140563E+02 -0.42085836617E+02  0.13335873065E+03  0.12509000000E+03 0.  0.
         25    1    3    3    0    0 -0.55880021292E+01  0.60328235322E+02 -0.17398825743E+03  0.22268844507E+03  0.12509000000E+03 0.  0.
<mgrwt>
<rscale>  2 0.45436571E+03</rscale>
<asrwt>0</asrwt>
<pdfrwt beam="1">  1       21 0.22180177E-01 0.45436571E+03</pdfrwt>
<pdfrwt beam="2">  1       21 0.50323202E-01 0.45436571E+03</pdfrwt>
<totfact> 0.66095836E+04</totfact>
</mgrwt>
</event>
<event>
 7    0  0.4793433E-002  0.4532575E+03  0.7546771E-02  0.1026755E+00
         21   -1    0    0  502  501  0.00000000000E+00  0.00000000000E+00  0.94681978914E+03  0.94681978914E+03  0.00000000000E+00 0.  1.
         21   -1    0    0  501  502 -0.00000000000E+00 -0.00000000000E+00 -0.54245382054E+02  0.54245382054E+02  0.00000000000E+00 0.  1.
      99926    2    1    2    0    0  0.35527136788E-14  0.00000000000E+00  0.89257440709E+03  0.10010651712E+04  0.45325754797E+03 0.  0.
      99925    2    3    3    0    0  0.31558346304E+02 -0.68173723758E+02  0.74422032311E+03  0.79297858305E+03  0.26326328650E+03 0.  0.
         25    1    3    3    0    0 -0.31558346304E+02  0.68173723758E+02  0.14835408398E+03  0.20808658815E+03  0.12509000000E+03 0.  0.
         25    1    4    4    0    0  0.49266111546E+02 -0.21316499524E+02  0.31636409762E+03  0.34440571026E+03  0.12509000000E+03 0.  0.
         25    1    4    4    0    0 -0.17707765242E+02 -0.46857224234E+02  0.42785622549E+03  0.44857287279E+03  0.12509000000E+03 0.  0.
<mgrwt>
<rscale>  2 0.45325755E+03</rscale>
<asrwt>0</asrwt>
<pdfrwt beam="1">  1       21 0.13923819E+00 0.45325755E+03</pdfrwt>
<pdfrwt beam="2">  1       21 0.79772627E-02 0.45325755E+03</pdfrwt>
<totfact> 0.39662376E+04</totfact>
</mgrwt>
</event>
<event>
 7    0  0.4793433E-002  0.4620467E+03  0.7546771E-02  0.1024189E+00
         21   -1    0    0  502  501  0.00000000000E+00  0.00000000000E+00  0.53055015126E+02  0.53055015126E+02  0.00000000000E+00 0. -1.
         21   -1    0    0  501  502 -0.00000000000E+00 -0.00000000000E+00 -0.10059707879E+04  0.10059707879E+04  0.00000000000E+00 0. -1.
      99926    2    1    2    0    0  0.00000000000E+00  0.00000000000E+00 -0.95291577275E+03  0.10590258030E+04  0.46204673083E+03 0.  0.
      99925    2    3    3    0    0  0.10684056861E+03 -0.53776060378E+02 -0.60046486289E+03  0.66637338199E+03  0.26303737544E+03 0.  0.
         25    1    4    4    0    0  0.60483896536E+02 -0.22371376926E+02 -0.21217317560E+03  0.25460507613E+03  0.12509000000E+03 0.  0.
         25    1    3    3    0    0 -0.10684056861E+03  0.53776060378E+02 -0.35245090986E+03  0.39265242102E+03  0.12509000000E+03 0.  0.
         25    1    4    4    0    0  0.46356672076E+02 -0.31404683453E+02 -0.38829168730E+03  0.41176830586E+03  0.12509000000E+03 0.  0.
<mgrwt>
<rscale>  2 0.46204673E+03</rscale>
<asrwt>0</asrwt>
<pdfrwt beam="1">  1       21 0.78022082E-02 0.46204673E+03</pdfrwt>
<pdfrwt beam="2">  1       21 0.14793688E+00 0.46204673E+03</pdfrwt>
<totfact> 0.34983965E+04</totfact>
</mgrwt>
</event>
<event>
 7    0  0.4793433E-002  0.4539804E+03  0.7546771E-02  0.1026542E+00
         21   -1    0    0  502  501  0.00000000000E+00  0.00000000000E+00  0.86792728187E+02  0.86792728187E+02  0.00000000000E+00 0. -1.
         21   -1    0    0  501  502 -0.00000000000E+00 -0.00000000000E+00 -0.59365055556E+03  0.59365055556E+03  0.00000000000E+00 0. -1.
      99926    2    1    2    0    0  0.00000000000E+00  0.14210854715E-13 -0.50685782737E+03  0.68044328374E+03  0.45398040181E+03 0.  0.
      99925    2    3    3    0    0  0.22238484108E+02  0.10473804279E+03 -0.36976617825E+03  0.46618587748E+03  0.26294036966E+03 0.  0.
         25    1    4    4    0    0  0.36196253486E+02  0.86586057467E+02 -0.19226699706E+03  0.24783345290E+03  0.12509000000E+03 0.  0.
         25    1    4    4    0    0 -0.13957769378E+02  0.18151985325E+02 -0.17749918119E+03  0.21835242458E+03  0.12509000000E+03 0.  0.
         25    1    3    3    0    0 -0.22238484108E+02 -0.10473804279E+03 -0.13709164912E+03  0.21425740627E+03  0.12509000000E+03 0.  0.
<mgrwt>
<rscale>  2 0.45398040E+03</rscale>
<asrwt>0</asrwt>
<pdfrwt beam="1">  1       21 0.12763636E-01 0.45398040E+03</pdfrwt>
<pdfrwt beam="2">  1       21 0.87301554E-01 0.45398040E+03</pdfrwt>
<totfact> 0.54413618E+04</totfact>
</mgrwt>
</event>
<event>
 7    0  0.4793433E-002  0.4532854E+03  0.7546771E-02  0.1026747E+00
         21   -1    0    0  502  501  0.00000000000E+00  0.00000000000E+00  0.52001641977E+03  0.52001641977E+03  0.00000000000E+00 0.  1.
         21   -1    0    0  501  502 -0.00000000000E+00 -0.00000000000E+00 -0.98779427866E+02  0.98779427866E+02  0.00000000000E+00 0.  1.
      99926    2    1    2    0    0  0.00000000000E+00  0.00000000000E+00  0.42123699190E+03  0.61879584764E+03  0.45328544837E+03 0.  0.
      99925    2    3    3    0    0  0.56455322172E+02  0.51473130579E+02  0.15455483245E+03  0.31448750262E+03  0.26301807257E+03 0.  0.
         25    1    3    3    0    0 -0.56455322172E+02 -0.51473130579E+02  0.26668215946E+03  0.30430834502E+03  0.12509000000E+03 0.  0.
         25    1    4    4    0    0  0.52033425617E+02  0.28055359868E+02  0.42148054227E+02  0.14463245547E+03  0.12509000000E+03 0.  0.
         25    1    4    4    0    0  0.44218965548E+01  0.23417770712E+02  0.11240677822E+03  0.16985504716E+03  0.12509000000E+03 0.  0.
<mgrwt>
<rscale>  2 0.45328545E+03</rscale>
<asrwt>0</asrwt>
<pdfrwt beam="1">  1       21 0.76473002E-01 0.45328545E+03</pdfrwt>
<pdfrwt beam="2">  1       21 0.14526387E-01 0.45328545E+03</pdfrwt>
<totfact> 0.58321634E+04</totfact>
</mgrwt>
</event>
<event>
 7    0  0.4793433E-002  0.4566399E+03  0.7546771E-02  0.1025760E+00
         21   -1    0    0  502  501  0.00000000000E+00  0.00000000000E+00  0.12055650807E+04  0.12055650807E+04  0.00000000000E+00 0. -1.
         21   -1    0    0  501  502 -0.00000000000E+00 -0.00000000000E+00 -0.43241141488E+02  0.43241141488E+02  0.00000000000E+00 0. -1.
      99926    2    1    2    0    0  0.00000000000E+00  0.00000000000E+00  0.11623239392E+04  0.12488062222E+04  0.45663994669E+03 0.  0.
      99925    2    3    3    0    0  0.36192079961E+02  0.91023026201E+02  0.56754497785E+03  0.63317274444E+03  0.26306912488E+03 0.  0.
         25    1    4    4    0    0  0.24816146562E+02  0.87743404367E+01  0.21740940412E+03  0.25220465357E+03  0.12509000000E+03 0.  0.
         25    1    4    4    0    0  0.11375933399E+02  0.82248685764E+02  0.35013557373E+03  0.38096809087E+03  0.12509000000E+03 0.  0.
         25    1    3    3    0    0 -0.36192079961E+02 -0.91023026201E+02  0.59477896136E+03  0.61563347775E+03  0.12509000000E+03 0.  0.
<mgrwt>
<rscale>  2 0.45663995E+03</rscale>
<asrwt>0</asrwt>
<pdfrwt beam="1">  1       21 0.17728896E+00 0.45663995E+03</pdfrwt>
<pdfrwt beam="2">  1       21 0.63589922E-02 0.45663995E+03</pdfrwt>
<totfact> 0.30250428E+04</totfact>
</mgrwt>
</event>
<event>
 7    0  0.4793433E-002  0.4428678E+03  0.7546771E-02  0.1029871E+00
         21   -1    0    0  502  501  0.00000000000E+00  0.00000000000E+00  0.47138008080E+02  0.47138008080E+02  0.00000000000E+00 0. -1.
         21   -1    0    0  501  502 -0.00000000000E+00 -0.00000000000E+00 -0.10402002060E+04  0.10402002060E+04  0.00000000000E+00 0. -1.
      99926    2    1    2    0    0 -0.71054273576E-14  0.00000000000E+00 -0.99306219790E+03  0.10873382141E+04  0.44286777130E+03 0.  0.
      99925    2    3    3    0    0 -0.43778594413E+02  0.88591192134E+02 -0.68914124898E+03  0.74414669909E+03  0.26281872854E+03 0.  0.
         25    1    4    4    0    0 -0.40031079007E+02  0.72914519816E+01 -0.32514889799E+03  0.35074915043E+03  0.12509000000E+03 0.  0.
         25    1    4    4    0    0 -0.37475154059E+01  0.81299740153E+02 -0.36399235099E+03  0.39339754867E+03  0.12509000000E+03 0.  0.
         25    1    3    3    0    0  0.43778594413E+02 -0.88591192134E+02 -0.30392094892E+03  0.34319151497E+03  0.12509000000E+03 0.  0.
<mgrwt>
<rscale>  2 0.44286777E+03</rscale>
<asrwt>0</asrwt>
<pdfrwt beam="1">  1       21 0.69320595E-02 0.44286777E+03</pdfrwt>
<pdfrwt beam="2">  1       21 0.15297063E+00 0.44286777E+03</pdfrwt>
<totfact> 0.39549456E+04</totfact>
</mgrwt>
</event>
<event>
 7    0  0.4793433E-002  0.4588761E+03  0.7546771E-02  0.1025108E+00
         21   -1    0    0  502  501  0.00000000000E+00  0.00000000000E+00  0.24581014388E+03  0.24581014388E+03  0.00000000000E+00 0.  1.
         21   -1    0    0  501  502 -0.00000000000E+00 -0.00000000000E+00 -0.21415636831E+03  0.21415636831E+03  0.00000000000E+00 0.  1.
      99926    2    1    2    0    0  0.00000000000E+00 -0.11102230246E-14  0.31653775569E+02  0.45996651219E+03  0.45887605171E+03 0.  0.
      99925    2    3    3    0    0 -0.36434233839E+02  0.16781315447E+01  0.13102623183E+03  0.29609869142E+03  0.26301386297E+03 0.  0.
         25    1    3    3    0    0  0.36434233839E+02 -0.16781315447E+01 -0.99372456262E+02  0.16386782077E+03  0.12509000000E+03 0.  0.
         25    1    4    4    0    0 -0.28988658395E+02 -0.12754929592E+02  0.25263123872E+02  0.13148674485E+03  0.12509000000E+03 0.  0.
         25    1    4    4    0    0 -0.74455754445E+01  0.14433061137E+02  0.10576310796E+03  0.16461194657E+03  0.12509000000E+03 0.  0.
<mgrwt>
<rscale>  2 0.45887605E+03</rscale>
<asrwt>0</asrwt>
<pdfrwt beam="1">  1       21 0.36148551E-01 0.45887605E+03</pdfrwt>
<pdfrwt beam="2">  1       21 0.31493583E-01 0.45887605E+03</pdfrwt>
<totfact> 0.66115045E+04</totfact>
</mgrwt>
</event>
<event>
 7    0  0.4793433E-002  0.4582520E+03  0.7546771E-02  0.1025289E+00
         21   -1    0    0  502  501  0.00000000000E+00  0.00000000000E+00  0.91377009382E+02  0.91377009382E+02  0.00000000000E+00 0.  1.
         21   -1    0    0  501  502 -0.00000000000E+00 -0.00000000000E+00 -0.57452872226E+03  0.57452872226E+03  0.00000000000E+00 0.  1.
      99926    2    1    2    0    0  0.00000000000E+00  0.00000000000E+00 -0.48315171288E+03  0.66590573165E+03  0.45825196757E+03 0.  0.
      99925    2    3    3    0    0 -0.43823181289E+01 -0.78866458788E+02 -0.42699236092E+03  0.50766381575E+03  0.26298469633E+03 0.  0.
         25    1    4    4    0    0 -0.79870716953E+01 -0.63267117713E+02 -0.16326821840E+03  0.21533820083E+03  0.12509000000E+03 0.  0.
         25    1    4    4    0    0  0.36047535664E+01 -0.15599341076E+02 -0.26372414252E+03  0.29232561492E+03  0.12509000000E+03 0.  0.
         25    1    3    3    0    0  0.43823181289E+01  0.78866458788E+02 -0.56159351967E+02  0.15824191590E+03  0.12509000000E+03 0.  0.
<mgrwt>
<rscale>  2 0.45825197E+03</rscale>
<asrwt>0</asrwt>
<pdfrwt beam="1">  1       21 0.13437796E-01 0.45825197E+03</pdfrwt>
<pdfrwt beam="2">  1       21 0.84489517E-01 0.45825197E+03</pdfrwt>
<totfact> 0.53410644E+04</totfact>
</mgrwt>
</event>
<event>
 7    0  0.4793433E-002  0.4545030E+03  0.7546771E-02  0.1026388E+00
         21   -1    0    0  502  501  0.00000000000E+00  0.00000000000E+00  0.51413574945E+02  0.51413574945E+02  0.00000000000E+00 0.  1.
         21   -1    0    0  501  502 -0.00000000000E+00 -0.00000000000E+00 -0.10044671359E+04  0.10044671359E+04  0.00000000000E+00 0.  1.
      99926    2    1    2    0    0  0.00000000000E+00  0.00000000000E+00 -0.95305356098E+03  0.10558807109E+04  0.45450300933E+03 0.  0.
      99925    2    3    3    0    0  0.75692961753E+02 -0.10521460275E+02 -0.79142423651E+03  0.83767972046E+03  0.26365672068E+03 0.  0.
         25    1    3    3    0    0 -0.75692961753E+02  0.10521460275E+02 -0.16162932448E+03  0.21820099041E+03  0.12509000000E+03 0.  0.
         25    1    4    4    0    0  0.14823874483E+02  0.13070332717E+02 -0.28308489212E+03  0.31012117809E+03  0.12509000000E+03 0.  0.
         25    1    4    4    0    0  0.60869087270E+02 -0.23591792992E+02 -0.50833934439E+03  0.52755854238E+03  0.12509000000E+03 0.  0.
<mgrwt>
<rscale>  2 0.45450301E+03</rscale>
<asrwt>0</asrwt>
<pdfrwt beam="1">  1       21 0.75608201E-02 0.45450301E+03</pdfrwt>
<pdfrwt beam="2">  1       21 0.14771575E+00 0.45450301E+03</pdfrwt>
<totfact> 0.37206454E+04</totfact>
</mgrwt>
</event>
<event>
 6    0  0.4793433E-002  0.4608465E+03  0.7546771E-02  0.1024536E+00
         21   -1    0    0  502  501  0.00000000000E+00  0.00000000000E+00  0.70532041564E+02  0.70532041564E+02  0.00000000000E+00 0. -1.
         21   -1    0    0  501  502 -0.00000000000E+00 -0.00000000000E+00 -0.75277665349E+03  0.75277665349E+03  0.00000000000E+00 0. -1.
      99926    2    1    2    0    0  0.00000000000E+00  0.88817841970E-15 -0.68224461192E+03  0.82330869505E+03  0.46084650031E+03 0.  0.
         25    1    3    3    0    0  0.11827959171E+03  0.51271296164E+01 -0.21798201845E+03  0.27781291860E+03  0.12509000000E+03 0.  0.
         25    1    3    3    0    0 -0.77928094373E+02 -0.28207918597E+02 -0.28410357092E+03  0.32129553634E+03  0.12509000000E+03 0.  0.
         25    1    3    3    0    0 -0.40351497339E+02  0.23080788981E+02 -0.18015902255E+03  0.22420024011E+03  0.12509000000E+03 0.  0.
<mgrwt>
<rscale>  2 0.46084650E+03</rscale>
<asrwt>0</asrwt>
<pdfrwt beam="1">  1       21 0.10372359E-01 0.46084650E+03</pdfrwt>
<pdfrwt beam="2">  1       21 0.11070245E+00 0.46084650E+03</pdfrwt>
<totfact> 0.44577548E+04</totfact>
</mgrwt>
</event>
<event>
 7    0  0.4793433E-002  0.4566486E+03  0.7546771E-02  0.1025758E+00
         21   -1    0    0  502  501  0.00000000000E+00  0.00000000000E+00  0.10239943632E+04  0.10239943632E+04  0.00000000000E+00 0. -1.
         21   -1    0    0  501  502 -0.00000000000E+00 -0.00000000000E+00 -0.50910431939E+02  0.50910431939E+02  0.00000000000E+00 0. -1.
      99926    2    1    2    0    0  0.71054273576E-14  0.00000000000E+00  0.97308393129E+03  0.10749047952E+04  0.45664864102E+03 0.  0.
      99925    2    3    3    0    0 -0.55657266970E+02 -0.12876814857E+02  0.37799175929E+03  0.46413008630E+03  0.26320224768E+03 0.  0.
         25    1    4    4    0    0 -0.57717583963E+02  0.19512237466E+02  0.17635616946E+03  0.22463537904E+03  0.12509000000E+03 0.  0.
         25    1    3    3    0    0  0.55657266970E+02  0.12876814857E+02  0.59509217200E+03  0.61077470888E+03  0.12509000000E+03 0.  0.
         25    1    4    4    0    0  0.20603169934E+01 -0.32389052323E+02  0.20163558983E+03  0.23949470725E+03  0.12509000000E+03 0.  0.
<mgrwt>
<rscale>  2 0.45664864E+03</rscale>
<asrwt>0</asrwt>
<pdfrwt beam="1">  1       21 0.15058739E+00 0.45664864E+03</pdfrwt>
<pdfrwt beam="2">  1       21 0.74868289E-02 0.45664864E+03</pdfrwt>
<totfact> 0.35912396E+04</totfact>
</mgrwt>
</event>
<event>
 7    0  0.4793433E-002  0.4536519E+03  0.7546771E-02  0.1026639E+00
         21   -1    0    0  502  501  0.00000000000E+00  0.00000000000E+00  0.10227988567E+04  0.10227988567E+04  0.00000000000E+00 0.  1.
         21   -1    0    0  501  502 -0.00000000000E+00 -0.00000000000E+00 -0.50303147448E+02  0.50303147448E+02  0.00000000000E+00 0.  1.
      99926    2    1    2    0    0  0.00000000000E+00  0.00000000000E+00  0.97249570925E+03  0.10731020041E+04  0.45365185638E+03 0.  0.
      99925    2    3    3    0    0  0.36719603520E+02  0.57670521341E+02  0.40228105300E+03  0.48533803739E+03  0.26277128196E+03 0.  0.
         25    1    4    4    0    0  0.14752527464E+02  0.82362459291E+01  0.25588154269E+03  0.28532147624E+03  0.12509000000E+03 0.  0.
         25    1    4    4    0    0  0.21967076056E+02  0.49434275412E+02  0.14639951031E+03  0.20001656115E+03  0.12509000000E+03 0.  0.
         25    1    3    3    0    0 -0.36719603520E+02 -0.57670521341E+02  0.57021465626E+03  0.58776396676E+03  0.12509000000E+03 0.  0.
<mgrwt>
<rscale>  2 0.45365186E+03</rscale>
<asrwt>0</asrwt>
<pdfrwt beam="1">  1       21 0.15041158E+00 0.45365186E+03</pdfrwt>
<pdfrwt beam="2">  1       21 0.73975223E-02 0.45365186E+03</pdfrwt>
<totfact> 0.36826865E+04</totfact>
</mgrwt>
</event>
<event>
 7    0  0.4793433E-002  0.4524035E+03  0.7546771E-02  0.1027008E+00
         21   -1    0    0  502  501  0.00000000000E+00  0.00000000000E+00  0.90235569185E+02  0.90235569185E+02  0.00000000000E+00 0.  1.
         21   -1    0    0  501  502 -0.00000000000E+00 -0.00000000000E+00 -0.56704051585E+03  0.56704051585E+03  0.00000000000E+00 0.  1.
      99926    2    1    2    0    0 -0.35527136788E-14  0.00000000000E+00 -0.47680494666E+03  0.65727608503E+03  0.45240346461E+03 0.  0.
      99925    2    3    3    0    0 -0.30756459369E+02  0.54842869292E+02 -0.16790534288E+03  0.31812984309E+03  0.26279401210E+03 0.  0.
         25    1    4    4    0    0  0.25081844859E+02  0.25754898569E+02 -0.79091877729E+02  0.15230051531E+03  0.12509000000E+03 0.  0.
         25    1    3    3    0    0  0.30756459369E+02 -0.54842869292E+02 -0.30889960378E+03  0.33914624194E+03  0.12509000000E+03 0.  0.
         25    1    4    4    0    0 -0.55838304227E+02  0.29087970723E+02 -0.88813465150E+02  0.16582932778E+03  0.12509000000E+03 0.  0.
<mgrwt>
<rscale>  2 0.45240346E+03</rscale>
<asrwt>0</asrwt>
<pdfrwt beam="1">  1       21 0.13269937E-01 0.45240346E+03</pdfrwt>
<pdfrwt beam="2">  1       21 0.83388310E-01 0.45240346E+03</pdfrwt>
<totfact> 0.56430788E+04</totfact>
</mgrwt>
</event>
<event>
 7    0  0.4793433E-002  0.4537648E+03  0.7546771E-02  0.1026605E+00
         21   -1    0    0  502  501  0.00000000000E+00  0.00000000000E+00  0.21332656852E+02  0.21332656852E+02  0.00000000000E+00 0.  1.
         21   -1    0    0  501  502 -0.00000000000E+00 -0.00000000000E+00 -0.24129960670E+04  0.24129960670E+04  0.00000000000E+00 0.  1.
      99926    2    1    2    0    0  0.00000000000E+00  0.00000000000E+00 -0.23916634101E+04  0.24343287239E+04  0.45376477203E+03 0.  0.
      99925    2    3    3    0    0  0.21139091638E+02 -0.10964520804E+03 -0.15549639981E+04  0.15809927132E+04  0.26297526687E+03 0.  0.
         25    1    4    4    0    0 -0.13015031603E+01 -0.18272670336E+02 -0.80519653091E+03  0.81506106881E+03  0.12509000000E+03 0.  0.
         25    1    4    4    0    0  0.22440594799E+02 -0.91372537703E+02 -0.74976746716E+03  0.76593164437E+03  0.12509000000E+03 0.  0.
         25    1    3    3    0    0 -0.21139091638E+02  0.10964520804E+03 -0.83669941208E+03  0.85333601067E+03  0.12509000000E+03 0.  0.
<mgrwt>
<rscale>  2 0.45376477E+03</rscale>
<asrwt>0</asrwt>
<pdfrwt beam="1">  1       21 0.31371554E-02 0.45376477E+03</pdfrwt>
<pdfrwt beam="2">  1       21 0.35485237E+00 0.45376477E+03</pdfrwt>
<totfact> 0.79028833E+03</totfact>
</mgrwt>
</event>
<event>
 7    0  0.4793433E-002  0.4645669E+03  0.7546771E-02  0.1023465E+00
         21   -1    0    0  502  501  0.00000000000E+00  0.00000000000E+00  0.14482270972E+03  0.14482270972E+03  0.00000000000E+00 0. -1.
         21   -1    0    0  501  502 -0.00000000000E+00 -0.00000000000E+00 -0.37256320225E+03  0.37256320225E+03  0.00000000000E+00 0. -1.
      99926    2    1    2    0    0  0.00000000000E+00 -0.14210854715E-13 -0.22774049253E+03  0.51738591196E+03  0.46456694884E+03 0.  0.
      99925    2    3    3    0    0 -0.27322769705E+02 -0.97239593662E+02 -0.66049290660E+02  0.28936480508E+03  0.26299697585E+03 0.  0.
         25    1    4    4    0    0  0.46933010934E+01 -0.86484524665E+02 -0.34566367765E+02  0.15602545293E+03  0.12509000000E+03 0.  0.
         25    1    3    3    0    0  0.27322769705E+02  0.97239593662E+02 -0.16169120187E+03  0.22802110688E+03  0.12509000000E+03 0.  0.
         25    1    4    4    0    0 -0.32016070799E+02 -0.10755068997E+02 -0.31482922894E+02  0.13333935215E+03  0.12509000000E+03 0.  0.
<mgrwt>
<rscale>  2 0.46456695E+03</rscale>
<asrwt>0</asrwt>
<pdfrwt beam="1">  1       21 0.21297457E-01 0.46456695E+03</pdfrwt>
<pdfrwt beam="2">  1       21 0.54788706E-01 0.46456695E+03</pdfrwt>
<totfact> 0.59424333E+04</totfact>
</mgrwt>
</event>
<event>
 7    0  0.4793433E-002  0.4614109E+03  0.7546771E-02  0.1024373E+00
         21   -1    0    0  502  501  0.00000000000E+00  0.00000000000E+00  0.23478463713E+03  0.23478463713E+03  0.00000000000E+00 0. -1.
         21   -1    0    0  501  502 -0.00000000000E+00 -0.00000000000E+00 -0.22669708691E+03  0.22669708691E+03  0.00000000000E+00 0. -1.
      99926    2    1    2    0    0  0.14210854715E-13  0.00000000000E+00  0.80875502233E+01  0.46148172404E+03  0.46141085071E+03 0.  0.
      99925    2    3    3    0    0  0.88423382774E+02 -0.70666303292E+01 -0.74156601181E+02  0.28746953933E+03  0.26319365999E+03 0.  0.
         25    1    4    4    0    0  0.52874546974E+02  0.83212655825E+01 -0.77291764645E+02  0.15648158409E+03  0.12509000000E+03 0.  0.
         25    1    3    3    0    0 -0.88423382774E+02  0.70666303292E+01  0.82244151405E+02  0.17401218470E+03  0.12509000000E+03 0.  0.
         25    1    4    4    0    0  0.35548835800E+02 -0.15387895912E+02  0.31351634641E+01  0.13098795524E+03  0.12509000000E+03 0.  0.
<mgrwt>
<rscale>  2 0.46141085E+03</rscale>
<asrwt>0</asrwt>
<pdfrwt beam="1">  1       21 0.34527153E-01 0.46141085E+03</pdfrwt>
<pdfrwt beam="2">  1       21 0.33337807E-01 0.46141085E+03</pdfrwt>
<totfact> 0.64700125E+04</totfact>
</mgrwt>
</event>
<event>
 7    0  0.4793433E-002  0.4361250E+03  0.7546771E-02  0.1031942E+00
         21   -1    0    0  502  501  0.00000000000E+00  0.00000000000E+00  0.45682477116E+02  0.45682477116E+02  0.00000000000E+00 0.  1.
         21   -1    0    0  501  502 -0.00000000000E+00 -0.00000000000E+00 -0.10409080323E+04  0.10409080323E+04  0.00000000000E+00 0.  1.
      99926    2    1    2    0    0  0.00000000000E+00 -0.35527136788E-14 -0.99522555522E+03  0.10865905095E+04  0.43612501587E+03 0.  0.
      99925    2    3    3    0    0  0.75517125935E+02 -0.27045531474E+02 -0.76175724744E+03  0.80984287004E+03  0.26293929536E+03 0.  0.
         25    1    4    4    0    0  0.18883915622E+02 -0.33321280950E+02 -0.46023748560E+03  0.47846939431E+03  0.12509000000E+03 0.  0.
         25    1    3    3    0    0 -0.75517125935E+02  0.27045531474E+02 -0.23346830779E+03  0.27674763942E+03  0.12509000000E+03 0.  0.
         25    1    4    4    0    0  0.56633210313E+02  0.62757494753E+01 -0.30151976183E+03  0.33137347573E+03  0.12509000000E+03 0.  0.
<mgrwt>
<rscale>  2 0.43612502E+03</rscale>
<asrwt>0</asrwt>
<pdfrwt beam="1">  1       21 0.67180118E-02 0.43612502E+03</pdfrwt>
<pdfrwt beam="2">  1       21 0.15307470E+00 0.43612502E+03</pdfrwt>
<totfact> 0.41785287E+04</totfact>
</mgrwt>
</event>
<event>
 7    0  0.4793433E-002  0.4566102E+03  0.7546771E-02  0.1025769E+00
         21   -1    0    0  502  501  0.00000000000E+00  0.00000000000E+00  0.49593804493E+02  0.49593804493E+02  0.00000000000E+00 0.  1.
         21   -1    0    0  501  502 -0.00000000000E+00 -0.00000000000E+00 -0.10510028452E+04  0.10510028452E+04  0.00000000000E+00 0.  1.
      99926    2    1    2    0    0  0.71054273576E-14  0.71054273576E-14 -0.10014090407E+04  0.11005966496E+04  0.45661024791E+03 0.  0.
      99925    2    3    3    0    0 -0.44039628729E+02 -0.60770872289E+02 -0.83643187608E+03  0.88037503229E+03  0.26421454604E+03 0.  0.
         25    1    4    4    0    0 -0.10702132834E+02 -0.36192568106E+02 -0.54653528335E+03  0.56193661713E+03  0.12509000000E+03 0.  0.
         25    1    4    4    0    0 -0.33337495895E+02 -0.24578304183E+02 -0.28989659274E+03  0.31843841516E+03  0.12509000000E+03 0.  0.
         25    1    3    3    0    0  0.44039628729E+02  0.60770872289E+02 -0.16497716458E+03  0.22022161735E+03  0.12509000000E+03 0.  0.
<mgrwt>
<rscale>  2 0.45661025E+03</rscale>
<asrwt>0</asrwt>
<pdfrwt beam="1">  1       21 0.72932067E-02 0.45661025E+03</pdfrwt>
<pdfrwt beam="2">  1       21 0.15455924E+00 0.45661025E+03</pdfrwt>
<totfact> 0.35031427E+04</totfact>
</mgrwt>
</event>
<event>
 7    0  0.4793433E-002  0.4585676E+03  0.7546771E-02  0.1025197E+00
         21   -1    0    0  502  501  0.00000000000E+00  0.00000000000E+00  0.28627695996E+03  0.28627695996E+03  0.00000000000E+00 0.  1.
         21   -1    0    0  501  502 -0.00000000000E+00 -0.00000000000E+00 -0.18363708507E+03  0.18363708507E+03  0.00000000000E+00 0.  1.
      99926    2    1    2    0    0  0.00000000000E+00  0.88817841970E-15  0.10263987489E+03  0.46991404502E+03  0.45856762401E+03 0.  0.
      99925    2    3    3    0    0 -0.10686505453E+03 -0.67622544476E+01  0.17405735187E+02  0.28450035988E+03  0.26300499461E+03 0.  0.
         25    1    4    4    0    0 -0.48506512129E+02  0.98282502705E+01  0.46738007756E+02  0.14241287053E+03  0.12509000000E+03 0.  0.
         25    1    3    3    0    0  0.10686505453E+03  0.67622544476E+01  0.85234139707E+02  0.18541368514E+03  0.12509000000E+03 0.  0.
         25    1    4    4    0    0 -0.58358542404E+02 -0.16590504718E+02 -0.29332272570E+02  0.14208748936E+03  0.12509000000E+03 0.  0.
<mgrwt>
<rscale>  2 0.45856762E+03</rscale>
<asrwt>0</asrwt>
<pdfrwt beam="1">  1       21 0.42099553E-01 0.45856762E+03</pdfrwt>
<pdfrwt beam="2">  1       21 0.27005453E-01 0.45856762E+03</pdfrwt>
<totfact> 0.65567165E+04</totfact>
</mgrwt>
</event>
<event>
 7    0  0.4793433E-002  0.4563222E+03  0.7546771E-02  0.1025853E+00
         21   -1    0    0  502  501  0.00000000000E+00  0.00000000000E+00  0.52278282517E+02  0.52278282517E+02  0.00000000000E+00 0.  1.
         21   -1    0    0  501  502 -0.00000000000E+00 -0.00000000000E+00 -0.99577652611E+03  0.99577652611E+03  0.00000000000E+00 0.  1.
      99926    2    1    2    0    0  0.00000000000E+00 -0.14210854715E-13 -0.94349824359E+03  0.10480548086E+04  0.45632219563E+03 0.  0.
      99925    2    3    3    0    0  0.80860755688E+02 -0.69832722692E+02 -0.49924984949E+03  0.57432575660E+03  0.26302963999E+03 0.  0.
         25    1    4    4    0    0  0.40333195546E+02 -0.25644728311E+02 -0.16545991833E+03  0.21285890028E+03  0.12509000000E+03 0.  0.
         25    1    4    4    0    0  0.40527560141E+02 -0.44187994381E+02 -0.33378993115E+03  0.36146685632E+03  0.12509000000E+03 0.  0.
         25    1    3    3    0    0 -0.80860755688E+02  0.69832722692E+02 -0.44424839410E+03  0.47372905202E+03  0.12509000000E+03 0.  0.
<mgrwt>
<rscale>  2 0.45632220E+03</rscale>
<asrwt>0</asrwt>
<pdfrwt beam="1">  1       21 0.76879834E-02 0.45632220E+03</pdfrwt>
<pdfrwt beam="2">  1       21 0.14643771E+00 0.45632220E+03</pdfrwt>
<totfact> 0.36965870E+04</totfact>
</mgrwt>
</event>
<event>
 7    0  0.4793433E-002  0.4557400E+03  0.7546771E-02  0.1026024E+00
         21   -1    0    0  502  501  0.00000000000E+00  0.00000000000E+00  0.10949112011E+03  0.10949112011E+03  0.00000000000E+00 0. -1.
         21   -1    0    0  501  502 -0.00000000000E+00 -0.00000000000E+00 -0.47423698227E+03  0.47423698227E+03  0.00000000000E+00 0. -1.
      99926    2    1    2    0    0  0.00000000000E+00 -0.35527136788E-14 -0.36474586216E+03  0.58372810238E+03  0.45574000652E+03 0.  0.
      99925    2    3    3    0    0  0.10897638756E+03  0.26062477035E+02 -0.25459614237E+03  0.38289091801E+03  0.26311813626E+03 0.  0.
         25    1    4    4    0    0  0.94274092295E+02  0.69379831013E+01 -0.11898139174E+03  0.19682433734E+03  0.12509000000E+03 0.  0.
         25    1    3    3    0    0 -0.10897638756E+03 -0.26062477035E+02 -0.11014971979E+03  0.20083718437E+03  0.12509000000E+03 0.  0.
         25    1    4    4    0    0  0.14702295265E+02  0.19124493934E+02 -0.13561475063E+03  0.18606658067E+03  0.12509000000E+03 0.  0.
<mgrwt>
<rscale>  2 0.45574001E+03</rscale>
<asrwt>0</asrwt>
<pdfrwt beam="1">  1       21 0.16101635E-01 0.45574001E+03</pdfrwt>
<pdfrwt beam="2">  1       21 0.69740732E-01 0.45574001E+03</pdfrwt>
<totfact> 0.59343288E+04</totfact>
</mgrwt>
</event>
<event>
 7    0  0.4793433E-002  0.4512684E+03  0.7546771E-02  0.1027344E+00
         21   -1    0    0  502  501  0.00000000000E+00  0.00000000000E+00  0.22184089039E+03  0.22184089039E+03  0.00000000000E+00 0. -1.
         21   -1    0    0  501  502 -0.00000000000E+00 -0.00000000000E+00 -0.22949237080E+03  0.22949237080E+03  0.00000000000E+00 0. -1.
      99926    2    1    2    0    0 -0.17763568394E-14  0.00000000000E+00 -0.76514804053E+01  0.45133326119E+03  0.45126839852E+03 0.  0.
      99925    2    3    3    0    0 -0.55365741458E+01 -0.10847138622E+03  0.10708931931E+02  0.28465600383E+03  0.26290238494E+03 0.  0.
         25    1    4    4    0    0  0.20599458374E+02 -0.69147382065E+02 -0.24317108778E+02  0.14643950290E+03  0.12509000000E+03 0.  0.
         25    1    3    3    0    0  0.55365741458E+01  0.10847138622E+03 -0.18360412336E+02  0.16667725737E+03  0.12509000000E+03 0.  0.
         25    1    4    4    0    0 -0.26136032520E+02 -0.39324004159E+02  0.35026040709E+02  0.13821650092E+03  0.12509000000E+03 0.  0.
<mgrwt>
<rscale>  2 0.45126840E+03</rscale>
<asrwt>0</asrwt>
<pdfrwt beam="1">  1       21 0.32623660E-01 0.45126840E+03</pdfrwt>
<pdfrwt beam="2">  1       21 0.33748878E-01 0.45126840E+03</pdfrwt>
<totfact> 0.70902938E+04</totfact>
</mgrwt>
</event>
<event>
 7    0  0.4793433E-002  0.4485388E+03  0.7546771E-02  0.1028159E+00
         21   -1    0    0  502  501  0.00000000000E+00  0.00000000000E+00  0.11063518724E+03  0.11063518724E+03  0.00000000000E+00 0. -1.
         21   -1    0    0  501  502 -0.00000000000E+00 -0.00000000000E+00 -0.45461816859E+03  0.45461816859E+03  0.00000000000E+00 0. -1.
      99926    2    1    2    0    0 -0.88817841970E-15  0.00000000000E+00 -0.34398298135E+03  0.56525335583E+03  0.44853881083E+03 0.  0.
      99925    2    3    3    0    0  0.47307547498E+01 -0.92869143826E+02 -0.28552627145E+03  0.39878488150E+03  0.26240631110E+03 0.  0.
         25    1    4    4    0    0 -0.16568888590E+02 -0.76103526723E+02 -0.18192944700E+03  0.23411985528E+03  0.12509000000E+03 0.  0.
         25    1    4    4    0    0  0.21299643340E+02 -0.16765617103E+02 -0.10359682445E+03  0.16466502622E+03  0.12509000000E+03 0.  0.
         25    1    3    3    0    0 -0.47307547498E+01  0.92869143826E+02 -0.58456709898E+02  0.16646847434E+03  0.12509000000E+03 0.  0.
<mgrwt>
<rscale>  2 0.44853881E+03</rscale>
<asrwt>0</asrwt>
<pdfrwt beam="1">  1       21 0.16269880E-01 0.44853881E+03</pdfrwt>
<pdfrwt beam="2">  1       21 0.66855614E-01 0.44853881E+03</pdfrwt>
<totfact> 0.64081990E+04</totfact>
</mgrwt>
</event>
<event>
 7    0  0.4793433E-002  0.4521544E+03  0.7546771E-02  0.1027082E+00
         21   -1    0    0  502  501  0.00000000000E+00  0.00000000000E+00  0.74409184063E+03  0.74409184063E+03  0.00000000000E+00 0.  1.
         21   -1    0    0  501  502 -0.00000000000E+00 -0.00000000000E+00 -0.68688965268E+02  0.68688965268E+02  0.00000000000E+00 0.  1.
      99926    2    1    2    0    0  0.14210854715E-13  0.00000000000E+00  0.67540287536E+03  0.81278080590E+03  0.45215439220E+03 0.  0.
      99925    2    3    3    0    0 -0.77102599872E+02 -0.35411507838E+02  0.55329530323E+03  0.61847035053E+03  0.26300398497E+03 0.  0.
         25    1    4    4    0    0 -0.66051633957E+02 -0.47725662135E+02  0.32427805462E+03  0.35699344810E+03  0.12509000000E+03 0.  0.
         25    1    3    3    0    0  0.77102599872E+02  0.35411507838E+02  0.12210757213E+03  0.19431045537E+03  0.12509000000E+03 0.  0.
         25    1    4    4    0    0 -0.11050965916E+02  0.12314154297E+02  0.22901724861E+03  0.26147690243E+03  0.12509000000E+03 0.  0.
<mgrwt>
<rscale>  2 0.45215439E+03</rscale>
<asrwt>0</asrwt>
<pdfrwt beam="1">  1       21 0.10942527E+00 0.45215439E+03</pdfrwt>
<pdfrwt beam="2">  1       21 0.10101319E-01 0.45215439E+03</pdfrwt>
<totfact> 0.48220595E+04</totfact>
</mgrwt>
</event>
<event>
 7    0  0.4793433E-002  0.4495878E+03  0.7546771E-02  0.1027845E+00
         21   -1    0    0  502  501  0.00000000000E+00  0.00000000000E+00  0.33472256743E+03  0.33472256743E+03  0.00000000000E+00 0.  1.
         21   -1    0    0  501  502 -0.00000000000E+00 -0.00000000000E+00 -0.15096767317E+03  0.15096767317E+03  0.00000000000E+00 0.  1.
      99926    2    1    2    0    0 -0.71054273576E-14  0.00000000000E+00  0.18375489426E+03  0.48569024060E+03  0.44958775411E+03 0.  0.
      99925    2    3    3    0    0 -0.50411013092E+02  0.93958885131E+02  0.97446764841E+02  0.30003964501E+03  0.26297979821E+03 0.  0.
         25    1    4    4    0    0  0.11124753362E+02  0.63890248680E+02  0.54857204675E+02  0.15120365412E+03  0.12509000000E+03 0.  0.
         25    1    4    4    0    0 -0.61535766454E+02  0.30068636451E+02  0.42589560166E+02  0.14883599090E+03  0.12509000000E+03 0.  0.
         25    1    3    3    0    0  0.50411013092E+02 -0.93958885131E+02  0.86308129421E+02  0.18565059558E+03  0.12509000000E+03 0.  0.
<mgrwt>
<rscale>  2 0.44958775E+03</rscale>
<asrwt>0</asrwt>
<pdfrwt beam="1">  1       21 0.49223907E-01 0.44958775E+03</pdfrwt>
<pdfrwt beam="2">  1       21 0.22201129E-01 0.44958775E+03</pdfrwt>
<totfact> 0.69214571E+04</totfact>
</mgrwt>
</event>
<event>
 7    0  0.4793433E-002  0.4486447E+03  0.7546771E-02  0.1028127E+00
         21   -1    0    0  502  501  0.00000000000E+00  0.00000000000E+00  0.60342875935E+03  0.60342875935E+03  0.00000000000E+00 0. -1.
         21   -1    0    0  501  502 -0.00000000000E+00 -0.00000000000E+00 -0.83390983364E+02  0.83390983364E+02  0.00000000000E+00 0. -1.
      99926    2    1    2    0    0 -0.14210854715E-13  0.00000000000E+00  0.52003777598E+03  0.68681974271E+03  0.44864470411E+03 0.  0.
      99925    2    3    3    0    0 -0.86076275960E+02 -0.20480491404E+02  0.23589711124E+03  0.36400090610E+03  0.26271778915E+03 0.  0.
         25    1    3    3    0    0  0.86076275960E+02  0.20480491404E+02  0.28414066474E+03  0.32281883661E+03  0.12509000000E+03 0.  0.
         25    1    4    4    0    0 -0.76660559560E+02  0.12490331319E+02  0.13341734370E+03  0.19869711993E+03  0.12509000000E+03 0.  0.
         25    1    4    4    0    0 -0.94157163998E+01 -0.32970822723E+02  0.10247976754E+03  0.16530378617E+03  0.12509000000E+03 0.  0.
<mgrwt>
<rscale>  2 0.44864470E+03</rscale>
<asrwt>0</asrwt>
<pdfrwt beam="1">  1       21 0.88739521E-01 0.44864470E+03</pdfrwt>
<pdfrwt beam="2">  1       21 0.12263380E-01 0.44864470E+03</pdfrwt>
<totfact> 0.56393567E+04</totfact>
</mgrwt>
</event>
<event>
 7    0  0.4793433E-002  0.4476360E+03  0.7546771E-02  0.1028429E+00
         21   -1    0    0  502  501  0.00000000000E+00  0.00000000000E+00  0.63552675361E+02  0.63552675361E+02  0.00000000000E+00 0.  1.
         21   -1    0    0  501  502 -0.00000000000E+00 -0.00000000000E+00 -0.78823583047E+03  0.78823583047E+03  0.00000000000E+00 0.  1.
      99926    2    1    2    0    0 -0.71054273576E-14  0.00000000000E+00 -0.72468315511E+03  0.85178850584E+03  0.44763599427E+03 0.  0.
      99925    2    3    3    0    0  0.50656840371E+02 -0.23685141223E+02 -0.28555530251E+03  0.39177994024E+03  0.26234059806E+03 0.  0.
         25    1    4    4    0    0  0.30538855342E+02  0.36556212954E+01 -0.89889824099E+02  0.15707855942E+03  0.12509000000E+03 0.  0.
         25    1    3    3    0    0 -0.50656840371E+02  0.23685141223E+02 -0.43912785260E+03  0.46000856559E+03  0.12509000000E+03 0.  0.
         25    1    4    4    0    0  0.20117985028E+02 -0.27340762518E+02 -0.19566547842E+03  0.23470138082E+03  0.12509000000E+03 0.  0.
<mgrwt>
<rscale>  2 0.44763599E+03</rscale>
<asrwt>0</asrwt>
<pdfrwt beam="1">  1       21 0.93459821E-02 0.44763599E+03</pdfrwt>
<pdfrwt beam="2">  1       21 0.11591703E+00 0.44763599E+03</pdfrwt>
<totfact> 0.48077054E+04</totfact>
</mgrwt>
</event>
<event>
 7    0  0.4793433E-002  0.4602367E+03  0.7546771E-02  0.1024713E+00
         21   -1    0    0  502  501  0.00000000000E+00  0.00000000000E+00  0.57132397782E+02  0.57132397782E+02  0.00000000000E+00 0.  1.
         21   -1    0    0  501  502 -0.00000000000E+00 -0.00000000000E+00 -0.92687257576E+03  0.92687257576E+03  0.00000000000E+00 0.  1.
      99926    2    1    2    0    0  0.00000000000E+00  0.00000000000E+00 -0.86974017798E+03  0.98400497354E+03  0.46023668994E+03 0.  0.
      99925    2    3    3    0    0  0.11162532572E+03 -0.34744381417E+02 -0.57899720875E+03  0.64659369982E+03  0.26301760306E+03 0.  0.
         25    1    4    4    0    0  0.71477582989E+02  0.94969125216E+01 -0.35410743999E+03  0.38241185047E+03  0.12509000000E+03 0.  0.
         25    1    3    3    0    0 -0.11162532572E+03  0.34744381417E+02 -0.29074296922E+03  0.33741127372E+03  0.12509000000E+03 0.  0.
         25    1    4    4    0    0  0.40147742728E+02 -0.44241293939E+02 -0.22488976876E+03  0.26418184935E+03  0.12509000000E+03 0.  0.
<mgrwt>
<rscale>  2 0.46023669E+03</rscale>
<asrwt>0</asrwt>
<pdfrwt beam="1">  1       21 0.84018242E-02 0.46023669E+03</pdfrwt>
<pdfrwt beam="2">  1       21 0.13630477E+00 0.46023669E+03</pdfrwt>
<totfact> 0.38205406E+04</totfact>
</mgrwt>
</event>
<event>
 7    0  0.4793433E-002  0.4580357E+03  0.7546771E-02  0.1025352E+00
         21   -1    0    0  502  501  0.00000000000E+00  0.00000000000E+00  0.21252121502E+04  0.21252121502E+04  0.00000000000E+00 0.  1.
         21   -1    0    0  501  502 -0.00000000000E+00 -0.00000000000E+00 -0.24679496476E+02  0.24679496476E+02  0.00000000000E+00 0.  1.
      99926    2    1    2    0    0  0.66613381478E-15  0.00000000000E+00  0.21005326537E+04  0.21498916467E+04  0.45803565700E+03 0.  0.
      99925    2    3    3    0    0 -0.14501396978E+01 -0.17979833720E+02  0.18560558833E+04  0.18746794073E+04  0.26297159710E+03 0.  0.
         25    1    4    4    0    0 -0.21557903655E+02 -0.28978449686E+02  0.73606582472E+03  0.74749240810E+03  0.12509000000E+03 0.  0.
         25    1    3    3    0    0  0.14501396978E+01  0.17979833720E+02  0.24447677039E+03  0.27521223935E+03  0.12509000000E+03 0.  0.
         25    1    4    4    0    0  0.20107763958E+02  0.10998615966E+02  0.11199900586E+04  0.11271869992E+04  0.12509000000E+03 0.  0.
<mgrwt>
<rscale>  2 0.45803566E+03</rscale>
<asrwt>0</asrwt>
<pdfrwt beam="1">  1       21 0.31253107E+00 0.45803566E+03</pdfrwt>
<pdfrwt beam="2">  1       21 0.36293392E-02 0.45803566E+03</pdfrwt>
<totfact> 0.11148197E+04</totfact>
</mgrwt>
</event>
<event>
 7    0  0.4793433E-002  0.4455909E+03  0.7546771E-02  0.1029045E+00
         21   -1    0    0  502  501  0.00000000000E+00  0.00000000000E+00  0.75196887119E+02  0.75196887119E+02  0.00000000000E+00 0.  1.
         21   -1    0    0  501  502 -0.00000000000E+00 -0.00000000000E+00 -0.66010473624E+03  0.66010473624E+03  0.00000000000E+00 0.  1.
      99926    2    1    2    0    0 -0.14210854715E-13  0.00000000000E+00 -0.58490784912E+03  0.73530162336E+03  0.44559093949E+03 0.  0.
      99925    2    3    3    0    0 -0.84929247805E+02 -0.22771667204E+02 -0.46324484498E+03  0.53990223586E+03  0.26299641047E+03 0.  0.
         25    1    4    4    0    0 -0.84498778156E+01 -0.31577167899E+02 -0.19264830386E+03  0.23201162696E+03  0.12509000000E+03 0.  0.
         25    1    3    3    0    0  0.84929247805E+02  0.22771667204E+02 -0.12166300414E+03  0.19539938750E+03  0.12509000000E+03 0.  0.
         25    1    4    4    0    0 -0.76479369989E+02  0.88055006951E+01 -0.27059654112E+03  0.30789060889E+03  0.12509000000E+03 0.  0.
<mgrwt>
<rscale>  2 0.44559094E+03</rscale>
<asrwt>0</asrwt>
<pdfrwt beam="1">  1       21 0.11058365E-01 0.44559094E+03</pdfrwt>
<pdfrwt beam="2">  1       21 0.97074230E-01 0.44559094E+03</pdfrwt>
<totfact> 0.54983948E+04</totfact>
</mgrwt>
</event>
<event>
 7    0  0.4793433E-002  0.4613233E+03  0.7546771E-02  0.1024398E+00
         21   -1    0    0  502  501  0.00000000000E+00  0.00000000000E+00  0.12879842408E+03  0.12879842408E+03  0.00000000000E+00 0. -1.
         21   -1    0    0  501  502 -0.00000000000E+00 -0.00000000000E+00 -0.41308584755E+03  0.41308584755E+03  0.00000000000E+00 0. -1.
      99926    2    1    2    0    0 -0.44408920985E-15  0.00000000000E+00 -0.28428742347E+03  0.54188427163E+03  0.46132334072E+03 0.  0.
      99925    2    3    3    0    0 -0.20086048861E+01  0.96627929812E+02 -0.96396368698E+02  0.29634089893E+03  0.26302980281E+03 0.  0.
         25    1    3    3    0    0  0.20086048861E+01 -0.96627929812E+02 -0.18789105477E+03  0.24554337270E+03  0.12509000000E+03 0.  0.
         25    1    4    4    0    0  0.75927577555E+01  0.87384143660E+02 -0.36839139752E+02  0.15715682884E+03  0.12509000000E+03 0.  0.
         25    1    4    4    0    0 -0.96013626416E+01  0.92437861529E+01 -0.59557228946E+02  0.13918407009E+03  0.12509000000E+03 0.  0.
<mgrwt>
<rscale>  2 0.46132334E+03</rscale>
<asrwt>0</asrwt>
<pdfrwt beam="1">  1       21 0.18940945E-01 0.46132334E+03</pdfrwt>
<pdfrwt beam="2">  1       21 0.60747919E-01 0.46132334E+03</pdfrwt>
<totfact> 0.59377436E+04</totfact>
</mgrwt>
</event>
<event>
 7    0  0.4793433E-002  0.4335597E+03  0.7546771E-02  0.1032741E+00
         21   -1    0    0  502  501  0.00000000000E+00  0.00000000000E+00  0.10412945003E+03  0.10412945003E+03  0.00000000000E+00 0. -1.
         21   -1    0    0  501  502 -0.00000000000E+00 -0.00000000000E+00 -0.45129883490E+03  0.45129883490E+03  0.00000000000E+00 0. -1.
      99926    2    1    2    0    0  0.17763568394E-14  0.00000000000E+00 -0.34716938486E+03  0.55542828493E+03  0.43355968207E+03 0.  0.
      99925    2    3    3    0    0 -0.11771642596E+02 -0.87852367641E+02 -0.25251531249E+03  0.37525195023E+03  0.26304644655E+03 0.  0.
         25    1    4    4    0    0 -0.20714008524E+02 -0.68364991809E+02 -0.17450492119E+03  0.22627929175E+03  0.12509000000E+03 0.  0.
         25    1    4    4    0    0  0.89423659277E+01 -0.19487375832E+02 -0.78010391296E+02  0.14897265848E+03  0.12509000000E+03 0.  0.
         25    1    3    3    0    0  0.11771642596E+02  0.87852367641E+02 -0.94654072379E+02  0.18017633470E+03  0.12509000000E+03 0.  0.
<mgrwt>
<rscale>  2 0.43355968E+03</rscale>
<asrwt>0</asrwt>
<pdfrwt beam="1">  1       21 0.15313154E-01 0.43355968E+03</pdfrwt>
<pdfrwt beam="2">  1       21 0.66367475E-01 0.43355968E+03</pdfrwt>
<totfact> 0.73148362E+04</totfact>
</mgrwt>
</event>
<event>
 7    0  0.4793433E-002  0.4379982E+03  0.7546771E-02  0.1031363E+00
         21   -1    0    0  502  501  0.00000000000E+00  0.00000000000E+00  0.17903551007E+03  0.17903551007E+03  0.00000000000E+00 0.  1.
         21   -1    0    0  501  502 -0.00000000000E+00 -0.00000000000E+00 -0.26788324359E+03  0.26788324359E+03  0.00000000000E+00 0.  1.
      99926    2    1    2    0    0 -0.44408920985E-15  0.00000000000E+00 -0.88847733518E+02  0.44691875367E+03  0.43799823359E+03 0.  0.
      99925    2    3    3    0    0 -0.34070527328E+01  0.89438171849E+02 -0.20353836120E+02  0.27854501262E+03  0.26298716855E+03 0.  0.
         25    1    4    4    0    0 -0.41740277304E+02  0.39015729803E+02 -0.13151605414E+02  0.13814829259E+03  0.12509000000E+03 0.  0.
         25    1    4    4    0    0  0.38333224571E+02  0.50422442046E+02 -0.72022307061E+01  0.14039672003E+03  0.12509000000E+03 0.  0.
         25    1    3    3    0    0  0.34070527328E+01 -0.89438171849E+02 -0.68493897397E+02  0.16837374104E+03  0.12509000000E+03 0.  0.
<mgrwt>
<rscale>  2 0.43799823E+03</rscale>
<asrwt>0</asrwt>
<pdfrwt beam="1">  1       21 0.26328752E-01 0.43799823E+03</pdfrwt>
<pdfrwt beam="2">  1       21 0.39394594E-01 0.43799823E+03</pdfrwt>
<totfact> 0.79366418E+04</totfact>
</mgrwt>
</event>
<event>
 7    0  0.4793433E-002  0.4497290E+03  0.7546771E-02  0.1027803E+00
         21   -1    0    0  502  501  0.00000000000E+00  0.00000000000E+00  0.66470561734E+03  0.66470561734E+03  0.00000000000E+00 0.  1.
         21   -1    0    0  501  502 -0.00000000000E+00 -0.00000000000E+00 -0.76069844031E+02  0.76069844031E+02  0.00000000000E+00 0.  1.
      99926    2    1    2    0    0  0.00000000000E+00  0.00000000000E+00  0.58863577331E+03  0.74077546137E+03  0.44972904126E+03 0.  0.
      99925    2    3    3    0    0 -0.83950427072E+02 -0.62276544921E+02  0.41800289794E+03  0.50479002006E+03  0.26298383870E+03 0.  0.
         25    1    4    4    0    0 -0.52813489447E+02 -0.65321128916E+02  0.18610977009E+03  0.23945870035E+03  0.12509000000E+03 0.  0.
         25    1    3    3    0    0  0.83950427072E+02  0.62276544921E+02  0.17063287537E+03  0.23598544131E+03  0.12509000000E+03 0.  0.
         25    1    4    4    0    0 -0.31136937625E+02  0.30445839951E+01  0.23189312785E+03  0.26533131971E+03  0.12509000000E+03 0.  0.
<mgrwt>
<rscale>  2 0.44972904E+03</rscale>
<asrwt>0</asrwt>
<pdfrwt beam="1">  1       21 0.97750823E-01 0.44972904E+03</pdfrwt>
<pdfrwt beam="2">  1       21 0.11186742E-01 0.44972904E+03</pdfrwt>
<totfact> 0.52902654E+04</totfact>
</mgrwt>
</event>
<event>
 7    0  0.4793433E-002  0.4605351E+03  0.7546771E-02  0.1024626E+00
         21   -1    0    0  502  501  0.00000000000E+00  0.00000000000E+00  0.33851560087E+03  0.33851560087E+03  0.00000000000E+00 0. -1.
         21   -1    0    0  501  502 -0.00000000000E+00 -0.00000000000E+00 -0.15663428449E+03  0.15663428449E+03  0.00000000000E+00 0. -1.
      99926    2    1    2    0    0  0.00000000000E+00  0.00000000000E+00  0.18188131638E+03  0.49514988536E+03  0.46053511888E+03 0.  0.
      99925    2    3    3    0    0 -0.76635319822E+02  0.18529407736E+02  0.19261372975E+02  0.27535665232E+03  0.26312349628E+03 0.  0.
         25    1    4    4    0    0 -0.54349900935E+02  0.33258362944E+02  0.39547130318E+02  0.14584757130E+03  0.12509000000E+03 0.  0.
         25    1    4    4    0    0 -0.22285418887E+02 -0.14728955208E+02 -0.20285757343E+02  0.12950908102E+03  0.12509000000E+03 0.  0.
         25    1    3    3    0    0  0.76635319822E+02 -0.18529407736E+02  0.16261994340E+03  0.21979323303E+03  0.12509000000E+03 0.  0.
<mgrwt>
<rscale>  2 0.46053512E+03</rscale>
<asrwt>0</asrwt>
<pdfrwt beam="1">  1       21 0.49781706E-01 0.46053512E+03</pdfrwt>
<pdfrwt beam="2">  1       21 0.23034454E-01 0.46053512E+03</pdfrwt>
<totfact> 0.62807217E+04</totfact>
</mgrwt>
</event>
<event>
 7    0  0.4793433E-002  0.4551221E+03  0.7546771E-02  0.1026206E+00
         21   -1    0    0  502  501  0.00000000000E+00  0.00000000000E+00  0.23780944097E+03  0.23780944097E+03  0.00000000000E+00 0.  1.
         21   -1    0    0  501  502 -0.00000000000E+00 -0.00000000000E+00 -0.21775429786E+03  0.21775429786E+03  0.00000000000E+00 0.  1.
      99926    2    1    2    0    0 -0.71054273576E-14 -0.71054273576E-14  0.20055143110E+02  0.45556373883E+03  0.45512208403E+03 0.  0.
      99925    2    3    3    0    0  0.54723835736E+02  0.51306798151E+02  0.98166699653E+02  0.29010676829E+03  0.26248457165E+03 0.  0.
         25    1    4    4    0    0  0.36056575998E+02  0.67392631281E+01  0.84421864235E+02  0.15530632183E+03  0.12509000000E+03 0.  0.
         25    1    3    3    0    0 -0.54723835736E+02 -0.51306798151E+02 -0.78111556543E+02  0.16545697054E+03  0.12509000000E+03 0.  0.
         25    1    4    4    0    0  0.18667259738E+02  0.44567535023E+02  0.13744835418E+02  0.13480044646E+03  0.12509000000E+03 0.  0.
<mgrwt>
<rscale>  2 0.45512208E+03</rscale>
<asrwt>0</asrwt>
<pdfrwt beam="1">  1       21 0.34971977E-01 0.45512208E+03</pdfrwt>
<pdfrwt beam="2">  1       21 0.32022691E-01 0.45512208E+03</pdfrwt>
<totfact> 0.68437846E+04</totfact>
</mgrwt>
</event>
<event>
 7    0  0.4793433E-002  0.4554413E+03  0.7546771E-02  0.1026112E+00
         21   -1    0    0  502  501  0.00000000000E+00  0.00000000000E+00  0.11770229045E+04  0.11770229045E+04  0.00000000000E+00 0.  1.
         21   -1    0    0  501  502 -0.00000000000E+00 -0.00000000000E+00 -0.44057513642E+02  0.44057513642E+02  0.00000000000E+00 0.  1.
      99926    2    1    2    0    0 -0.71054273576E-14  0.14210854715E-13  0.11329653909E+04  0.12210804181E+04  0.45544133617E+03 0.  0.
      99925    2    3    3    0    0 -0.53515862055E+02  0.53856077996E+02  0.93915052639E+03  0.97823039360E+03  0.26299537473E+03 0.  0.
         25    1    4    4    0    0 -0.45794790549E+02  0.95315917727E+01  0.35877539392E+03  0.38282542427E+03  0.12509000000E+03 0.  0.
         25    1    3    3    0    0  0.53515862055E+02 -0.53856077996E+02  0.19381486447E+03  0.24285002454E+03  0.12509000000E+03 0.  0.
         25    1    4    4    0    0 -0.77210715052E+01  0.44324486224E+02  0.58037513247E+03  0.59540496934E+03  0.12509000000E+03 0.  0.
<mgrwt>
<rscale>  2 0.45544134E+03</rscale>
<asrwt>0</asrwt>
<pdfrwt beam="1">  1       21 0.17309158E+00 0.45544134E+03</pdfrwt>
<pdfrwt beam="2">  1       21 0.64790469E-02 0.45544134E+03</pdfrwt>
<totfact> 0.31386821E+04</totfact>
</mgrwt>
</event>
<event>
 7    0  0.4793433E-002  0.4512886E+03  0.7546771E-02  0.1027338E+00
         21   -1    0    0  502  501  0.00000000000E+00  0.00000000000E+00  0.85559770211E+03  0.85559770211E+03  0.00000000000E+00 0. -1.
         21   -1    0    0  501  502 -0.00000000000E+00 -0.00000000000E+00 -0.59508519675E+02  0.59508519675E+02  0.00000000000E+00 0. -1.
      99926    2    1    2    0    0  0.00000000000E+00 -0.15543122345E-14  0.79608918243E+03  0.91510622178E+03  0.45128861138E+03 0.  0.
      99925    2    3    3    0    0  0.10675896819E+03 -0.27758732514E+00  0.45359000070E+03  0.53517102739E+03  0.26318545835E+03 0.  0.
         25    1    4    4    0    0  0.36690323322E+02 -0.23119452322E+02  0.27339060629E+03  0.30376079504E+03  0.12509000000E+03 0.  0.
         25    1    4    4    0    0  0.70068644870E+02  0.22841864997E+02  0.18019939441E+03  0.23141023235E+03  0.12509000000E+03 0.  0.
         25    1    3    3    0    0 -0.10675896819E+03  0.27758732514E+00  0.34249918173E+03  0.37993519439E+03  0.12509000000E+03 0.  0.
<mgrwt>
<rscale>  2 0.45128861E+03</rscale>
<asrwt>0</asrwt>
<pdfrwt beam="1">  1       21 0.12582318E+00 0.45128861E+03</pdfrwt>
<pdfrwt beam="2">  1       21 0.87512534E-02 0.45128861E+03</pdfrwt>
<totfact> 0.43846349E+04</totfact>
</mgrwt>
</event>
<event>
 7    0  0.4793433E-002  0.4343229E+03  0.7546771E-02  0.1032503E+00
         21   -1    0    0  502  501  0.00000000000E+00  0.00000000000E+00  0.14384787315E+03  0.14384787315E+03  0.00000000000E+00 0.  1.
         21   -1    0    0  501  502 -0.00000000000E+00 -0.00000000000E+00 -0.32784009697E+03  0.32784009697E+03  0.00000000000E+00 0.  1.
      99926    2    1    2    0    0 -0.14210854715E-13  0.00000000000E+00 -0.18399222382E+03  0.47168797013E+03  0.43432292449E+03 0.  0.
      99925    2    3    3    0    0  0.79220748986E+02 -0.47350504092E+02 -0.11157514570E+03  0.30019529212E+03  0.26296426176E+03 0.  0.
         25    1    4    4    0    0  0.51197981910E+02 -0.31987953849E+02 -0.16529998256E+02  0.13987570012E+03  0.12509000000E+03 0.  0.
         25    1    3    3    0    0 -0.79220748986E+02  0.47350504092E+02 -0.72417078122E+02  0.17149267801E+03  0.12509000000E+03 0.  0.
         25    1    4    4    0    0  0.28022767076E+02 -0.15362550243E+02 -0.95045147441E+02  0.16031959199E+03  0.12509000000E+03 0.  0.
<mgrwt>
<rscale>  2 0.43432292E+03</rscale>
<asrwt>0</asrwt>
<pdfrwt beam="1">  1       21 0.21154099E-01 0.43432292E+03</pdfrwt>
<pdfrwt beam="2">  1       21 0.48211778E-01 0.43432292E+03</pdfrwt>
<totfact> 0.79593614E+04</totfact>
</mgrwt>
</event>
<event>
 7    0  0.4793433E-002  0.4548356E+03  0.7546771E-02  0.1026290E+00
         21   -1    0    0  502  501  0.00000000000E+00  0.00000000000E+00  0.20844374364E+02  0.20844374364E+02  0.00000000000E+00 0.  1.
         21   -1    0    0  501  502 -0.00000000000E+00 -0.00000000000E+00 -0.24811900414E+04  0.24811900414E+04  0.00000000000E+00 0.  1.
      99926    2    1    2    0    0  0.00000000000E+00  0.00000000000E+00 -0.24603456670E+04  0.25020344158E+04  0.45483559267E+03 0.  0.
      99925    2    3    3    0    0 -0.59327520396E+02 -0.86558865008E+02 -0.13374452719E+04  0.13673252031E+04  0.26420856144E+03 0.  0.
         25    1    4    4    0    0 -0.45717683911E+02 -0.85688839745E+02 -0.72841116911E+03  0.74542808054E+03  0.12509000000E+03 0.  0.
         25    1    4    4    0    0 -0.13609836485E+02 -0.87002526250E+00 -0.60903410282E+03  0.62189712259E+03  0.12509000000E+03 0.  0.
         25    1    3    3    0    0  0.59327520396E+02  0.86558865008E+02 -0.11229003951E+04  0.11347092126E+04  0.12509000000E+03 0.  0.
<mgrwt>
<rscale>  2 0.45483559E+03</rscale>
<asrwt>0</asrwt>
<pdfrwt beam="1">  1       21 0.30653508E-02 0.45483559E+03</pdfrwt>
<pdfrwt beam="2">  1       21 0.36488070E+00 0.45483559E+03</pdfrwt>
<totfact> 0.71200908E+03</totfact>
</mgrwt>
</event>
<event>
 6    0  0.4793433E-002  0.4520349E+03  0.7546771E-02  0.1027117E+00
         21   -1    0    0  502  501  0.00000000000E+00  0.00000000000E+00  0.17826130615E+03  0.17826130615E+03  0.00000000000E+00 0.  1.
         21   -1    0    0  501  502 -0.00000000000E+00 -0.00000000000E+00 -0.28656739694E+03  0.28656739694E+03  0.00000000000E+00 0.  1.
      99926    2    1    2    0    0  0.00000000000E+00 -0.71054273576E-14 -0.10830609079E+03  0.46482870309E+03  0.45203485918E+03 0.  0.
         25    1    3    3    0    0 -0.13251103239E+02 -0.80427252225E+02 -0.94975788954E+02  0.17695209302E+03  0.12509000000E+03 0.  0.
         25    1    3    3    0    0  0.60744266488E+02  0.62818352823E+02 -0.88591998108E+01  0.15284634403E+03  0.12509000000E+03 0.  0.
         25    1    3    3    0    0 -0.47493163249E+02  0.17608899402E+02 -0.44711020286E+01  0.13503026604E+03  0.12509000000E+03 0.  0.
<mgrwt>
<rscale>  2 0.45203486E+03</rscale>
<asrwt>0</asrwt>
<pdfrwt beam="1">  1       21 0.26214898E-01 0.45203486E+03</pdfrwt>
<pdfrwt beam="2">  1       21 0.42142264E-01 0.45203486E+03</pdfrwt>
<totfact> 0.69441411E+04</totfact>
</mgrwt>
</event>
<event>
 7    0  0.4793433E-002  0.4584707E+03  0.7546771E-02  0.1025226E+00
         21   -1    0    0  502  501  0.00000000000E+00  0.00000000000E+00  0.33183003911E+03  0.33183003911E+03  0.00000000000E+00 0.  1.
         21   -1    0    0  501  502 -0.00000000000E+00 -0.00000000000E+00 -0.15836074915E+03  0.15836074915E+03  0.00000000000E+00 0.  1.
      99926    2    1    2    0    0  0.14210854715E-13  0.00000000000E+00  0.17346928996E+03  0.49019078826E+03  0.45847073444E+03 0.  0.
      99925    2    3    3    0    0 -0.10173514829E+03 -0.22899727160E+02  0.16400965217E+03  0.32706068451E+03  0.26304959124E+03 0.  0.
         25    1    3    3    0    0  0.10173514829E+03  0.22899727160E+02  0.94596377900E+01  0.16313010375E+03  0.12509000000E+03 0.  0.
         25    1    4    4    0    0 -0.25641167594E+02 -0.52823840533E+01  0.11423891329E+03  0.17141589911E+03  0.12509000000E+03 0.  0.
         25    1    4    4    0    0 -0.76093980693E+02 -0.17617343107E+02  0.49770738873E+02  0.15564478540E+03  0.12509000000E+03 0.  0.
<mgrwt>
<rscale>  2 0.45847073E+03</rscale>
<asrwt>0</asrwt>
<pdfrwt beam="1">  1       21 0.48798535E-01 0.45847073E+03</pdfrwt>
<pdfrwt beam="2">  1       21 0.23288345E-01 0.45847073E+03</pdfrwt>
<totfact> 0.64178815E+04</totfact>
</mgrwt>
</event>
<event>
 7    0  0.4793433E-002  0.4556132E+03  0.7546771E-02  0.1026061E+00
         21   -1    0    0  502  501  0.00000000000E+00  0.00000000000E+00  0.66755088930E+03  0.66755088930E+03  0.00000000000E+00 0. -1.
         21   -1    0    0  501  502 -0.00000000000E+00 -0.00000000000E+00 -0.77740663570E+02  0.77740663570E+02  0.00000000000E+00 0. -1.
      99926    2    1    2    0    0  0.00000000000E+00  0.00000000000E+00  0.58981022573E+03  0.74529155287E+03  0.45561320921E+03 0.  0.
      99925    2    3    3    0    0  0.49493705626E+02  0.58179952690E+02  0.50883021167E+03  0.57784065090E+03  0.26297737496E+03 0.  0.
         25    1    4    4    0    0  0.32828264394E+02 -0.44494909034E+01  0.19748350363E+03  0.23610323000E+03  0.12509000000E+03 0.  0.
         25    1    4    4    0    0  0.16665441233E+02  0.62629443593E+02  0.31134670804E+03  0.34173742090E+03  0.12509000000E+03 0.  0.
         25    1    3    3    0    0 -0.49493705626E+02 -0.58179952690E+02  0.80980014058E+02  0.16745090196E+03  0.12509000000E+03 0.  0.
<mgrwt>
<rscale>  2 0.45561321E+03</rscale>
<asrwt>0</asrwt>
<pdfrwt beam="1">  1       21 0.98169245E-01 0.45561321E+03</pdfrwt>
<pdfrwt beam="2">  1       21 0.11432451E-01 0.45561321E+03</pdfrwt>
<totfact> 0.50269196E+04</totfact>
</mgrwt>
</event>
<event>
 6    0  0.4793433E-002  0.4551456E+03  0.7546771E-02  0.1026199E+00
         21   -1    0    0  502  501  0.00000000000E+00  0.00000000000E+00  0.66164724424E+03  0.66164724424E+03  0.00000000000E+00 0.  1.
         21   -1    0    0  501  502 -0.00000000000E+00 -0.00000000000E+00 -0.78273384658E+02  0.78273384658E+02  0.00000000000E+00 0.  1.
      99926    2    1    2    0    0  0.00000000000E+00  0.00000000000E+00  0.58337385958E+03  0.73992062889E+03  0.45514555587E+03 0.  0.
         25    1    3    3    0    0 -0.29015544305E+01  0.60522884490E+02  0.83499873447E+02  0.16214553812E+03  0.12509000000E+03 0.  0.
         25    1    3    3    0    0 -0.10000111867E+02 -0.20781337086E+02  0.11700467149E+03  0.17282785499E+03  0.12509000000E+03 0.  0.
         25    1    3    3    0    0  0.12901666298E+02 -0.39741547404E+02  0.38286931464E+03  0.40494723579E+03  0.12509000000E+03 0.  0.
<mgrwt>
<rscale>  2 0.45514556E+03</rscale>
<asrwt>0</asrwt>
<pdfrwt beam="1">  1       21 0.97301062E-01 0.45514556E+03</pdfrwt>
<pdfrwt beam="2">  1       21 0.11510792E-01 0.45514556E+03</pdfrwt>
<totfact> 0.50730469E+04</totfact>
</mgrwt>
</event>
<event>
 7    0  0.4793433E-002  0.4561834E+03  0.7546771E-02  0.1025894E+00
         21   -1    0    0  502  501  0.00000000000E+00  0.00000000000E+00  0.85500391869E+02  0.85500391869E+02  0.00000000000E+00 0.  1.
         21   -1    0    0  501  502 -0.00000000000E+00 -0.00000000000E+00 -0.60848636207E+03  0.60848636207E+03  0.00000000000E+00 0.  1.
      99926    2    1    2    0    0  0.00000000000E+00  0.00000000000E+00 -0.52298597020E+03  0.69398675394E+03  0.45618339472E+03 0.  0.
      99925    2    3    3    0    0 -0.99839595479E+02  0.52917075309E+02 -0.35359067740E+03  0.45500885746E+03  0.26313215602E+03 0.  0.
         25    1    3    3    0    0  0.99839595479E+02 -0.52917075309E+02 -0.16939529280E+03  0.23897789648E+03  0.12509000000E+03 0.  0.
         25    1    4    4    0    0 -0.25275894287E+02 -0.59718800334E+01 -0.18212718946E+03  0.22246877404E+03  0.12509000000E+03 0.  0.
         25    1    4    4    0    0 -0.74563701192E+02  0.58888955343E+02 -0.17146348795E+03  0.23254008342E+03  0.12509000000E+03 0.  0.
<mgrwt>
<rscale>  2 0.45618339E+03</rscale>
<asrwt>0</asrwt>
<pdfrwt beam="1">  1       21 0.12573587E-01 0.45618339E+03</pdfrwt>
<pdfrwt beam="2">  1       21 0.89483291E-01 0.45618339E+03</pdfrwt>
<totfact> 0.52737743E+04</totfact>
</mgrwt>
</event>
<event>
 7    0  0.4793433E-002  0.4491273E+03  0.7546771E-02  0.1027983E+00
         21   -1    0    0  502  501  0.00000000000E+00  0.00000000000E+00  0.69771213908E+03  0.69771213908E+03  0.00000000000E+00 0.  1.
         21   -1    0    0  501  502 -0.00000000000E+00 -0.00000000000E+00 -0.72277415243E+02  0.72277415243E+02  0.00000000000E+00 0.  1.
      99926    2    1    2    0    0  0.00000000000E+00  0.00000000000E+00  0.62543472384E+03  0.76998955432E+03  0.44912728707E+03 0.  0.
      99925    2    3    3    0    0 -0.33195606720E+02 -0.33629082037E+02  0.56124248306E+03  0.62166216191E+03  0.26313087104E+03 0.  0.
         25    1    4    4    0    0 -0.93866843358E+00 -0.12419842698E+02  0.18825770534E+03  0.22637050451E+03  0.12509000000E+03 0.  0.
         25    1    3    3    0    0  0.33195606720E+02  0.33629082037E+02  0.64192240775E+02  0.14832739241E+03  0.12509000000E+03 0.  0.
         25    1    4    4    0    0 -0.32256938287E+02 -0.21209239338E+02  0.37298477772E+03  0.39529165740E+03  0.12509000000E+03 0.  0.
<mgrwt>
<rscale>  2 0.44912729E+03</rscale>
<asrwt>0</asrwt>
<pdfrwt beam="1">  1       21 0.10260472E+00 0.44912729E+03</pdfrwt>
<pdfrwt beam="2">  1       21 0.10629032E-01 0.44912729E+03</pdfrwt>
<totfact> 0.51588099E+04</totfact>
</mgrwt>
</event>
<event>
 7    0  0.4793433E-002  0.4561058E+03  0.7546771E-02  0.1025917E+00
         21   -1    0    0  502  501  0.00000000000E+00  0.00000000000E+00  0.18740759633E+03  0.18740759633E+03  0.00000000000E+00 0. -1.
         21   -1    0    0  501  502 -0.00000000000E+00 -0.00000000000E+00 -0.27751347292E+03  0.27751347292E+03  0.00000000000E+00 0. -1.
      99926    2    1    2    0    0  0.71054273576E-14  0.14210854715E-13 -0.90105876591E+02  0.46492106925E+03  0.45610583381E+03 0.  0.
      99925    2    3    3    0    0 -0.45867636011E+02 -0.66119222390E+02  0.25877771481E+02  0.27630689607E+03  0.26305940424E+03 0.  0.
         25    1    4    4    0    0 -0.49948084611E+02 -0.18697367681E+02 -0.13868770562E+02  0.13669035669E+03  0.12509000000E+03 0.  0.
         25    1    3    3    0    0  0.45867636011E+02  0.66119222390E+02 -0.11598364807E+03  0.18861417318E+03  0.12509000000E+03 0.  0.
         25    1    4    4    0    0  0.40804486002E+01 -0.47421854708E+02  0.39746542043E+02  0.13961653938E+03  0.12509000000E+03 0.  0.
<mgrwt>
<rscale>  2 0.45610583E+03</rscale>
<asrwt>0</asrwt>
<pdfrwt beam="1">  1       21 0.27559941E-01 0.45610583E+03</pdfrwt>
<pdfrwt beam="2">  1       21 0.40810804E-01 0.45610583E+03</pdfrwt>
<totfact> 0.67223206E+04</totfact>
</mgrwt>
</event>
<event>
 7    0  0.4793433E-002  0.4425388E+03  0.7546771E-02  0.1029971E+00
         21   -1    0    0  502  501  0.00000000000E+00  0.00000000000E+00  0.30559006187E+03  0.30559006187E+03  0.00000000000E+00 0. -1.
         21   -1    0    0  501  502 -0.00000000000E+00 -0.00000000000E+00 -0.16021513080E+03  0.16021513080E+03  0.00000000000E+00 0. -1.
      99926    2    1    2    0    0  0.00000000000E+00  0.17763568394E-14  0.14537493107E+03  0.46580519266E+03  0.44253881969E+03 0.  0.
      99925    2    3    3    0    0  0.71810286670E+02 -0.11353108192E+02  0.16643898813E+03  0.31959707751E+03  0.26297289755E+03 0.  0.
         25    1    4    4    0    0  0.62621171306E+01  0.99601599929E+01  0.49624600637E+02  0.13508711258E+03  0.12509000000E+03 0.  0.
         25    1    3    3    0    0 -0.71810286670E+02  0.11353108192E+02 -0.21064057061E+02  0.14620811515E+03  0.12509000000E+03 0.  0.
         25    1    4    4    0    0  0.65548169540E+02 -0.21313268184E+02  0.11681438749E+03  0.18450996492E+03  0.12509000000E+03 0.  0.
<mgrwt>
<rscale>  2 0.44253882E+03</rscale>
<asrwt>0</asrwt>
<pdfrwt beam="1">  1       21 0.44939715E-01 0.44253882E+03</pdfrwt>
<pdfrwt beam="2">  1       21 0.23561049E-01 0.44253882E+03</pdfrwt>
<totfact> 0.74883842E+04</totfact>
</mgrwt>
</event>
<event>
 7    0  0.4793433E-002  0.4538500E+03  0.7546771E-02  0.1026580E+00
         21   -1    0    0  502  501  0.00000000000E+00  0.00000000000E+00  0.52088875234E+03  0.52088875234E+03  0.00000000000E+00 0. -1.
         21   -1    0    0  501  502 -0.00000000000E+00 -0.00000000000E+00 -0.98859806796E+02  0.98859806796E+02  0.00000000000E+00 0. -1.
      99926    2    1    2    0    0  0.00000000000E+00 -0.71054273576E-14  0.42202894555E+03  0.61974855914E+03  0.45385002553E+03 0.  0.
      99925    2    3    3    0    0  0.80794333043E+02 -0.50604396321E+02  0.34535813309E+03  0.44477870241E+03  0.26356654729E+03 0.  0.
         25    1    3    3    0    0 -0.80794333043E+02  0.50604396321E+02  0.76670812458E+02  0.17496985672E+03  0.12509000000E+03 0.  0.
         25    1    4    4    0    0  0.50625625868E+02  0.14983640603E+02  0.16221733604E+03  0.21154062421E+03  0.12509000000E+03 0.  0.
         25    1    4    4    0    0  0.30168707175E+02 -0.65588036924E+02  0.18314079705E+03  0.23323807820E+03  0.12509000000E+03 0.  0.
<mgrwt>
<rscale>  2 0.45385003E+03</rscale>
<asrwt>0</asrwt>
<pdfrwt beam="1">  1       21 0.76601286E-01 0.45385003E+03</pdfrwt>
<pdfrwt beam="2">  1       21 0.14538207E-01 0.45385003E+03</pdfrwt>
<totfact> 0.58003797E+04</totfact>
</mgrwt>
</event>
<event>
 7    0  0.4793433E-002  0.4607620E+03  0.7546771E-02  0.1024560E+00
         21   -1    0    0  502  501  0.00000000000E+00  0.00000000000E+00  0.50194817347E+02  0.50194817347E+02  0.00000000000E+00 0. -1.
         21   -1    0    0  501  502 -0.00000000000E+00 -0.00000000000E+00 -0.10573881869E+04  0.10573881869E+04  0.00000000000E+00 0. -1.
      99926    2    1    2    0    0  0.00000000000E+00  0.00000000000E+00 -0.10071933696E+04  0.11075830043E+04  0.46076200758E+03 0.  0.
      99925    2    3    3    0    0  0.87283433558E+02 -0.65183363538E+02 -0.51866814671E+03  0.59166472573E+03  0.26302705679E+03 0.  0.
         25    1    4    4    0    0  0.36698515875E+02 -0.53578028935E+02 -0.19321927018E+03  0.23916224769E+03  0.12509000000E+03 0.  0.
         25    1    3    3    0    0 -0.87283433558E+02  0.65183363538E+02 -0.48852522285E+03  0.51591827853E+03  0.12509000000E+03 0.  0.
         25    1    4    4    0    0  0.50584917683E+02 -0.11605334602E+02 -0.32544887653E+03  0.35250247803E+03  0.12509000000E+03 0.  0.
<mgrwt>
<rscale>  2 0.46076201E+03</rscale>
<asrwt>0</asrwt>
<pdfrwt beam="1">  1       21 0.73815910E-02 0.46076201E+03</pdfrwt>
<pdfrwt beam="2">  1       21 0.15549826E+00 0.46076201E+03</pdfrwt>
<totfact> 0.33691097E+04</totfact>
</mgrwt>
</event>
<event>
 7    0  0.4793433E-002  0.4544990E+03  0.7546771E-02  0.1026389E+00
         21   -1    0    0  502  501  0.00000000000E+00  0.00000000000E+00  0.17504782788E+03  0.17504782788E+03  0.00000000000E+00 0.  1.
         21   -1    0    0  501  502 -0.00000000000E+00 -0.00000000000E+00 -0.29501836644E+03  0.29501836644E+03  0.00000000000E+00 0.  1.
      99926    2    1    2    0    0  0.00000000000E+00  0.21167963216E-14 -0.11997053856E+03  0.47006619433E+03  0.45449895151E+03 0.  0.
      99925    2    3    3    0    0  0.48488909097E+02 -0.32433508852E-02 -0.18037558519E+03  0.32293546309E+03  0.26344029166E+03 0.  0.
         25    1    3    3    0    0 -0.48488909097E+02  0.32433508853E-02  0.60405046629E+02  0.14713073124E+03  0.12509000000E+03 0.  0.
         25    1    4    4    0    0  0.32062483824E+00 -0.29754057200E+02 -0.67687681271E+02  0.14530842032E+03  0.12509000000E+03 0.  0.
         25    1    4    4    0    0  0.48168284258E+02  0.29750813849E+02 -0.11268790392E+03  0.17762704277E+03  0.12509000000E+03 0.  0.
<mgrwt>
<rscale>  2 0.45449895E+03</rscale>
<asrwt>0</asrwt>
<pdfrwt beam="1">  1       21 0.25742328E-01 0.45449895E+03</pdfrwt>
<pdfrwt beam="2">  1       21 0.43385053E-01 0.45449895E+03</pdfrwt>
<totfact> 0.67699485E+04</totfact>
</mgrwt>
</event>
<event>
 7    0  0.4793433E-002  0.4581548E+03  0.7546771E-02  0.1025318E+00
         21   -1    0    0  502  501  0.00000000000E+00  0.00000000000E+00  0.36992119028E+02  0.36992119028E+02  0.00000000000E+00 0. -1.
         21   -1    0    0  501  502 -0.00000000000E+00 -0.00000000000E+00 -0.14185846073E+04  0.14185846073E+04  0.00000000000E+00 0. -1.
      99926    2    1    2    0    0  0.00000000000E+00  0.17763568394E-14 -0.13815924883E+04  0.14555767263E+04  0.45815478016E+03 0.  0.
      99925    2    3    3    0    0 -0.11464611328E+03 -0.14559374647E+02 -0.90483042946E+03  0.94931071374E+03  0.26290115721E+03 0.  0.
         25    1    4    4    0    0 -0.42019878993E+02 -0.16058874756E+01 -0.30829790106E+03  0.33535556206E+03  0.12509000000E+03 0.  0.
         25    1    3    3    0    0  0.11464611328E+03  0.14559374647E+02 -0.47676205882E+03  0.50626601260E+03  0.12509000000E+03 0.  0.
         25    1    4    4    0    0 -0.72626234291E+02 -0.12953487172E+02 -0.59653252840E+03  0.61395515168E+03  0.12509000000E+03 0.  0.
<mgrwt>
<rscale>  2 0.45815478E+03</rscale>
<asrwt>0</asrwt>
<pdfrwt beam="1">  1       21 0.54400182E-02 0.45815478E+03</pdfrwt>
<pdfrwt beam="2">  1       21 0.20861536E+00 0.45815478E+03</pdfrwt>
<totfact> 0.24287056E+04</totfact>
</mgrwt>
</event>
<event>
 7    0  0.4793433E-002  0.4559776E+03  0.7546771E-02  0.1025954E+00
         21   -1    0    0  502  501  0.00000000000E+00  0.00000000000E+00  0.28304559096E+03  0.28304559096E+03  0.00000000000E+00 0. -1.
         21   -1    0    0  501  502 -0.00000000000E+00 -0.00000000000E+00 -0.18364141187E+03  0.18364141187E+03  0.00000000000E+00 0. -1.
      99926    2    1    2    0    0 -0.14210854715E-13 -0.14210854715E-13  0.99404179087E+02  0.46668700283E+03  0.45597759571E+03 0.  0.
      99925    2    3    3    0    0 -0.84817344556E+02 -0.75939543845E+02  0.70442133142E+02  0.29508541641E+03  0.26296865326E+03 0.  0.
         25    1    4    4    0    0 -0.77628549317E+02 -0.28004851701E+02  0.56712968482E+02  0.16023212001E+03  0.12509000000E+03 0.  0.
         25    1    3    3    0    0  0.84817344556E+02  0.75939543845E+02  0.28962045945E+02  0.17160158642E+03  0.12509000000E+03 0.  0.
         25    1    4    4    0    0 -0.71887952383E+01 -0.47934692145E+02  0.13729164660E+02  0.13485329640E+03  0.12509000000E+03 0.  0.
<mgrwt>
<rscale>  2 0.45597760E+03</rscale>
<asrwt>0</asrwt>
<pdfrwt beam="1">  1       21 0.41624352E-01 0.45597760E+03</pdfrwt>
<pdfrwt beam="2">  1       21 0.27006090E-01 0.45597760E+03</pdfrwt>
<totfact> 0.67161110E+04</totfact>
</mgrwt>
</event>
<event>
 7    0  0.4793433E-002  0.4576328E+03  0.7546771E-02  0.1025470E+00
         21   -1    0    0  502  501  0.00000000000E+00  0.00000000000E+00  0.13730561969E+03  0.13730561969E+03  0.00000000000E+00 0.  1.
         21   -1    0    0  501  502 -0.00000000000E+00 -0.00000000000E+00 -0.38131676485E+03  0.38131676485E+03  0.00000000000E+00 0.  1.
      99926    2    1    2    0    0 -0.71054273576E-14 -0.14210854715E-13 -0.24401114515E+03  0.51862238454E+03  0.45763275537E+03 0.  0.
      99925    2    3    3    0    0  0.41159461353E+02  0.10767582492E+03 -0.16485074122E+03  0.33100025850E+03  0.26286350016E+03 0.  0.
         25    1    4    4    0    0  0.47412708757E+02  0.23843593995E+02 -0.87249599622E+02  0.16148214347E+03  0.12509000000E+03 0.  0.
         25    1    3    3    0    0 -0.41159461353E+02 -0.10767582492E+03 -0.79160403928E+02  0.18762212604E+03  0.12509000000E+03 0.  0.
         25    1    4    4    0    0 -0.62532474041E+01  0.83832230922E+02 -0.77601141602E+02  0.16951811503E+03  0.12509000000E+03 0.  0.
<mgrwt>
<rscale>  2 0.45763276E+03</rscale>
<asrwt>0</asrwt>
<pdfrwt beam="1">  1       21 0.20192003E-01 0.45763276E+03</pdfrwt>
<pdfrwt beam="2">  1       21 0.56075994E-01 0.45763276E+03</pdfrwt>
<totfact> 0.62661971E+04</totfact>
</mgrwt>
</event>
<event>
 7    0  0.4793433E-002  0.4576414E+03  0.7546771E-02  0.1025467E+00
         21   -1    0    0  502  501  0.00000000000E+00  0.00000000000E+00  0.52857973117E+02  0.52857973117E+02  0.00000000000E+00 0. -1.
         21   -1    0    0  501  502 -0.00000000000E+00 -0.00000000000E+00 -0.99055855851E+03  0.99055855851E+03  0.00000000000E+00 0. -1.
      99926    2    1    2    0    0  0.71054273576E-14  0.00000000000E+00 -0.93770058540E+03  0.10434165316E+04  0.45764142145E+03 0.  0.
      99925    2    3    3    0    0 -0.40997786589E+02 -0.10181121793E+03 -0.50582116835E+03  0.58058429251E+03  0.26301468354E+03 0.  0.
         25    1    4    4    0    0  0.85083133138E+01 -0.33055012373E+02 -0.28399963111E+03  0.31219917330E+03  0.12509000000E+03 0.  0.
         25    1    4    4    0    0 -0.49506099903E+02 -0.68756205553E+02 -0.22182153723E+03  0.26838511921E+03  0.12509000000E+03 0.  0.
         25    1    3    3    0    0  0.40997786589E+02  0.10181121793E+03 -0.43187941705E+03  0.46283223912E+03  0.12509000000E+03 0.  0.
<mgrwt>
<rscale>  2 0.45764142E+03</rscale>
<asrwt>0</asrwt>
<pdfrwt beam="1">  1       21 0.77732314E-02 0.45764142E+03</pdfrwt>
<pdfrwt beam="2">  1       21 0.14567038E+00 0.45764142E+03</pdfrwt>
<totfact> 0.36756164E+04</totfact>
</mgrwt>
</event>
<event>
 7    0  0.4793433E-002  0.4583040E+03  0.7546771E-02  0.1025274E+00
         21   -1    0    0  502  501  0.00000000000E+00  0.00000000000E+00  0.91179136824E+03  0.91179136824E+03  0.00000000000E+00 0.  1.
         21   -1    0    0  501  502 -0.00000000000E+00 -0.00000000000E+00 -0.57590640912E+02  0.57590640912E+02  0.00000000000E+00 0.  1.
      99926    2    1    2    0    0  0.00000000000E+00  0.00000000000E+00  0.85420072732E+03  0.96938200915E+03  0.45830404439E+03 0.  0.
      99925    2    3    3    0    0  0.84789264851E+02 -0.26474354616E+02  0.37617715194E+03  0.46734201312E+03  0.26269601577E+03 0.  0.
         25    1    3    3    0    0 -0.84789264851E+02  0.26474354616E+02  0.47802357538E+03  0.50203999603E+03  0.12509000000E+03 0.  0.
         25    1    4    4    0    0  0.67486582918E+02 -0.40709765662E+02  0.23250249709E+03  0.27552975002E+03  0.12509000000E+03 0.  0.
         25    1    4    4    0    0  0.17302681933E+02  0.14235411046E+02  0.14367465485E+03  0.19181226310E+03  0.12509000000E+03 0.  0.
<mgrwt>
<rscale>  2 0.45830404E+03</rscale>
<asrwt>0</asrwt>
<pdfrwt beam="1">  1       21 0.13408696E+00 0.45830404E+03</pdfrwt>
<pdfrwt beam="2">  1       21 0.84692124E-02 0.45830404E+03</pdfrwt>
<totfact> 0.39339731E+04</totfact>
</mgrwt>
</event>
<event>
 7    0  0.4793433E-002  0.4465176E+03  0.7546771E-02  0.1028766E+00
         21   -1    0    0  502  501  0.00000000000E+00  0.00000000000E+00  0.10284500844E+03  0.10284500844E+03  0.00000000000E+00 0.  1.
         21   -1    0    0  501  502 -0.00000000000E+00 -0.00000000000E+00 -0.48465633806E+03  0.48465633806E+03  0.00000000000E+00 0.  1.
      99926    2    1    2    0    0  0.00000000000E+00  0.00000000000E+00 -0.38181132962E+03  0.58750134650E+03  0.44651757044E+03 0.  0.
      99925    2    3    3    0    0 -0.55404336707E+02 -0.49999411594E+02 -0.33928283287E+03  0.43575892389E+03  0.26306542414E+03 0.  0.
         25    1    3    3    0    0  0.55404336707E+02  0.49999411594E+02 -0.42528496749E+02  0.15174242262E+03  0.12509000000E+03 0.  0.
         25    1    4    4    0    0 -0.34919119429E+02  0.15445086501E+02 -0.16359541677E+03  0.20944895342E+03  0.12509000000E+03 0.  0.
         25    1    4    4    0    0 -0.20485217278E+02 -0.65444498094E+02 -0.17568741610E+03  0.22630997047E+03  0.12509000000E+03 0.  0.
<mgrwt>
<rscale>  2 0.44651757E+03</rscale>
<asrwt>0</asrwt>
<pdfrwt beam="1">  1       21 0.15124266E-01 0.44651757E+03</pdfrwt>
<pdfrwt beam="2">  1       21 0.71272991E-01 0.44651757E+03</pdfrwt>
<totfact> 0.63613032E+04</totfact>
</mgrwt>
</event>
<event>
 7    0  0.4793433E-002  0.4538615E+03  0.7546771E-02  0.1026577E+00
         21   -1    0    0  502  501  0.00000000000E+00  0.00000000000E+00  0.27005389814E+03  0.27005389814E+03  0.00000000000E+00 0. -1.
         21   -1    0    0  501  502 -0.00000000000E+00 -0.00000000000E+00 -0.19069365723E+03  0.19069365723E+03  0.00000000000E+00 0. -1.
      99926    2    1    2    0    0 -0.88817841970E-15  0.00000000000E+00  0.79360240910E+02  0.46074755538E+03  0.45386150084E+03 0.  0.
      99925    2    3    3    0    0  0.48495565648E+01  0.74252667870E+02  0.13498338562E+03  0.30493221848E+03  0.26310865928E+03 0.  0.
         25    1    4    4    0    0  0.26162413234E+02  0.33542828037E+01  0.56905663288E+02  0.13993386185E+03  0.12509000000E+03 0.  0.
         25    1    3    3    0    0 -0.48495565648E+01 -0.74252667870E+02 -0.55623144710E+02  0.15581533690E+03  0.12509000000E+03 0.  0.
         25    1    4    4    0    0 -0.21312856669E+02  0.70898385066E+02  0.78077722331E+02  0.16499835662E+03  0.12509000000E+03 0.  0.
<mgrwt>
<rscale>  2 0.45386150E+03</rscale>
<asrwt>0</asrwt>
<pdfrwt beam="1">  1       21 0.39713809E-01 0.45386150E+03</pdfrwt>
<pdfrwt beam="2">  1       21 0.28043185E-01 0.45386150E+03</pdfrwt>
<totfact> 0.68747014E+04</totfact>
</mgrwt>
</event>
<event>
 7    0  0.4793433E-002  0.4479063E+03  0.7546771E-02  0.1028348E+00
         21   -1    0    0  502  501  0.00000000000E+00  0.00000000000E+00  0.81198680925E+03  0.81198680925E+03  0.00000000000E+00 0.  1.
         21   -1    0    0  501  502 -0.00000000000E+00 -0.00000000000E+00 -0.61768262803E+02  0.61768262803E+02  0.00000000000E+00 0.  1.
      99926    2    1    2    0    0  0.00000000000E+00  0.00000000000E+00  0.75021854644E+03  0.87375507205E+03  0.44790630550E+03 0.  0.
      99925    2    3    3    0    0  0.96207049779E+02  0.43950817776E+02  0.45139267708E+03  0.53297379452E+03  0.26290349164E+03 0.  0.
         25    1    4    4    0    0  0.16106612339E+02  0.20234641629E+02  0.25874921427E+03  0.28856113333E+03  0.12509000000E+03 0.  0.
         25    1    3    3    0    0 -0.96207049779E+02 -0.43950817776E+02  0.29882586937E+03  0.34078127753E+03  0.12509000000E+03 0.  0.
         25    1    4    4    0    0  0.80100437440E+02  0.23716176147E+02  0.19264346281E+03  0.24441266120E+03  0.12509000000E+03 0.  0.
<mgrwt>
<rscale>  2 0.44790631E+03</rscale>
<asrwt>0</asrwt>
<pdfrwt beam="1">  1       21 0.11940982E+00 0.44790631E+03</pdfrwt>
<pdfrwt beam="2">  1       21 0.90835685E-02 0.44790631E+03</pdfrwt>
<totfact> 0.46942312E+04</totfact>
</mgrwt>
</event>
<event>
 7    0  0.4793433E-002  0.4087276E+03  0.7546771E-02  0.1040799E+00
         21   -1    0    0  502  501  0.00000000000E+00  0.00000000000E+00  0.70836692766E+02  0.70836692766E+02  0.00000000000E+00 0.  1.
         21   -1    0    0  501  502 -0.00000000000E+00 -0.00000000000E+00 -0.58958943596E+03  0.58958943596E+03  0.00000000000E+00 0.  1.
      99926    2    1    2    0    0 -0.71054273576E-14  0.00000000000E+00 -0.51875274319E+03  0.66042612872E+03  0.40872761459E+03 0.  0.
      99925    2    3    3    0    0  0.36825213963E+02 -0.47289419011E+02 -0.35391946590E+03  0.44499655105E+03  0.26300295924E+03 0.  0.
         25    1    3    3    0    0 -0.36825213963E+02  0.47289419011E+02 -0.16483327729E+03  0.21542957768E+03  0.12509000000E+03 0.  0.
         25    1    4    4    0    0  0.34825127090E+02 -0.46516799783E+01 -0.22811963898E+03  0.26252715172E+03  0.12509000000E+03 0.  0.
         25    1    4    4    0    0  0.20000868737E+01 -0.42637739033E+02 -0.12579982692E+03  0.18246939932E+03  0.12509000000E+03 0.  0.
<mgrwt>
<rscale>  2 0.40872761E+03</rscale>
<asrwt>0</asrwt>
<pdfrwt beam="1">  1       21 0.10417161E-01 0.40872761E+03</pdfrwt>
<pdfrwt beam="2">  1       21 0.86704326E-01 0.40872761E+03</pdfrwt>
<totfact> 0.80762313E+04</totfact>
</mgrwt>
</event>
<event>
 7    0  0.4793433E-002  0.4514738E+03  0.7546771E-02  0.1027283E+00
         21   -1    0    0  502  501  0.00000000000E+00  0.00000000000E+00  0.19907674849E+04  0.19907674849E+04  0.00000000000E+00 0.  1.
         21   -1    0    0  501  502 -0.00000000000E+00 -0.00000000000E+00 -0.25596729481E+02  0.25596729481E+02  0.00000000000E+00 0.  1.
      99926    2    1    2    0    0  0.00000000000E+00  0.17763568394E-14  0.19651707554E+04  0.20163642144E+04  0.45147375016E+03 0.  0.
      99925    2    3    3    0    0  0.98003615561E+02  0.90357915576E+01  0.10243565605E+04  0.10621812069E+04  0.26312772409E+03 0.  0.
         25    1    4    4    0    0  0.63706973871E+02 -0.10092343491E+02  0.39530410079E+03  0.41961086034E+03  0.12509000000E+03 0.  0.
         25    1    3    3    0    0 -0.98003615561E+02 -0.90357915576E+01  0.94081419495E+03  0.95418300745E+03  0.12509000000E+03 0.  0.
         25    1    4    4    0    0  0.34296641690E+02  0.19128135048E+02  0.62905245969E+03  0.64257034659E+03  0.12509000000E+03 0.  0.
<mgrwt>
<rscale>  2 0.45147375E+03</rscale>
<asrwt>0</asrwt>
<pdfrwt beam="1">  1       21 0.29275982E+00 0.45147375E+03</pdfrwt>
<pdfrwt beam="2">  1       21 0.37642263E-02 0.45147375E+03</pdfrwt>
<totfact> 0.13818713E+04</totfact>
</mgrwt>
</event>
<event>
 7    0  0.4793433E-002  0.4770967E+03  0.7546771E-02  0.1019936E+00
         21   -1    0    0  502  501  0.00000000000E+00  0.00000000000E+00  0.19050479038E+03  0.19050479038E+03  0.00000000000E+00 0. -1.
         21   -1    0    0  501  502 -0.00000000000E+00 -0.00000000000E+00 -0.29870810254E+03  0.29870810254E+03  0.00000000000E+00 0. -1.
      99926    2    1    2    0    0  0.71054273576E-14 -0.88817841970E-15 -0.10820331215E+03  0.48921289292E+03  0.47709673845E+03 0.  0.
      99925    2    3    3    0    0  0.36890398398E+02 -0.24656444335E+01 -0.19764240258E+03  0.33105525039E+03  0.26299824831E+03 0.  0.
         25    1    3    3    0    0 -0.36890398398E+02  0.24656444335E+01  0.89439090425E+02  0.15815764254E+03  0.12509000000E+03 0.  0.
         25    1    4    4    0    0  0.47616278195E+02 -0.13364021872E+02 -0.13403451005E+03  0.18989119256E+03  0.12509000000E+03 0.  0.
         25    1    4    4    0    0 -0.10725879797E+02  0.10898377439E+02 -0.63607892531E+02  0.14116405782E+03  0.12509000000E+03 0.  0.
<mgrwt>
<rscale>  2 0.47709674E+03</rscale>
<asrwt>0</asrwt>
<pdfrwt beam="1">  1       21 0.28015411E-01 0.47709674E+03</pdfrwt>
<pdfrwt beam="2">  1       21 0.43927662E-01 0.47709674E+03</pdfrwt>
<totfact> 0.55619627E+04</totfact>
</mgrwt>
</event>
<event>
 6    0  0.4793433E-002  0.4508172E+03  0.7546771E-02  0.1027479E+00
         21   -1    0    0  502  501  0.00000000000E+00  0.00000000000E+00  0.39015551640E+03  0.39015551640E+03  0.00000000000E+00 0. -1.
         21   -1    0    0  501  502 -0.00000000000E+00 -0.00000000000E+00 -0.13022765423E+03  0.13022765423E+03  0.00000000000E+00 0. -1.
      99926    2    1    2    0    0  0.00000000000E+00  0.00000000000E+00  0.25992786217E+03  0.52038317064E+03  0.45081720325E+03 0.  0.
         25    1    3    3    0    0  0.48893035294E+02 -0.10047619568E+03  0.11140467358E+03  0.20135665918E+03  0.12509000000E+03 0.  0.
         25    1    3    3    0    0 -0.51970428075E+02  0.55391044092E+02  0.10089337464E+03  0.17775284613E+03  0.12509000000E+03 0.  0.
         25    1    3    3    0    0  0.30773927814E+01  0.45085151590E+02  0.47629813952E+02  0.14127366534E+03  0.12509000000E+03 0.  0.
<mgrwt>
<rscale>  2 0.45081720E+03</rscale>
<asrwt>0</asrwt>
<pdfrwt beam="1">  1       21 0.57375811E-01 0.45081720E+03</pdfrwt>
<pdfrwt beam="2">  1       21 0.19151126E-01 0.45081720E+03</pdfrwt>
<totfact> 0.66024554E+04</totfact>
</mgrwt>
</event>
<event>
 7    0  0.4793433E-002  0.4492261E+03  0.7546771E-02  0.1027953E+00
         21   -1    0    0  502  501  0.00000000000E+00  0.00000000000E+00  0.10923519031E+03  0.10923519031E+03  0.00000000000E+00 0. -1.
         21   -1    0    0  501  502 -0.00000000000E+00 -0.00000000000E+00 -0.46185677396E+03  0.46185677396E+03  0.00000000000E+00 0. -1.
      99926    2    1    2    0    0  0.00000000000E+00  0.00000000000E+00 -0.35262158366E+03  0.57109196427E+03  0.44922605712E+03 0.  0.
      99925    2    3    3    0    0  0.52688797797E+02  0.76621741232E+02 -0.29201166261E+03  0.40385539150E+03  0.26302350750E+03 0.  0.
         25    1    4    4    0    0  0.30642218063E+02  0.80540803429E+02 -0.15885834990E+03  0.21979365318E+03  0.12509000000E+03 0.  0.
         25    1    3    3    0    0 -0.52688797797E+02 -0.76621741232E+02 -0.60609921040E+02  0.16723657277E+03  0.12509000000E+03 0.  0.
         25    1    4    4    0    0  0.22046579734E+02 -0.39190621968E+01 -0.13315331272E+03  0.18406173832E+03  0.12509000000E+03 0.  0.
<mgrwt>
<rscale>  2 0.44922606E+03</rscale>
<asrwt>0</asrwt>
<pdfrwt beam="1">  1       21 0.16063999E-01 0.44922606E+03</pdfrwt>
<pdfrwt beam="2">  1       21 0.67920113E-01 0.44922606E+03</pdfrwt>
<totfact> 0.63336496E+04</totfact>
</mgrwt>
</event>
<event>
 7    0  0.4793433E-002  0.4544643E+03  0.7546771E-02  0.1026399E+00
         21   -1    0    0  502  501  0.00000000000E+00  0.00000000000E+00  0.77960219432E+02  0.77960219432E+02  0.00000000000E+00 0.  1.
         21   -1    0    0  501  502 -0.00000000000E+00 -0.00000000000E+00 -0.66231781893E+03  0.66231781893E+03  0.00000000000E+00 0.  1.
      99926    2    1    2    0    0  0.71054273576E-14  0.14210854715E-13 -0.58435759950E+03  0.74027803836E+03  0.45446426701E+03 0.  0.
      99925    2    3    3    0    0  0.60136401509E+02  0.85791582977E+02 -0.43575983156E+03  0.51958506785E+03  0.26287911564E+03 0.  0.
         25    1    4    4    0    0 -0.61403481720E+01  0.28303690939E+02 -0.22834965680E+03  0.26197304567E+03  0.12509000000E+03 0.  0.
         25    1    4    4    0    0  0.66276749681E+02  0.57487892037E+02 -0.20741017475E+03  0.25761202218E+03  0.12509000000E+03 0.  0.
         25    1    3    3    0    0 -0.60136401509E+02 -0.85791582977E+02 -0.14859776794E+03  0.22069297051E+03  0.12509000000E+03 0.  0.
<mgrwt>
<rscale>  2 0.45446427E+03</rscale>
<asrwt>0</asrwt>
<pdfrwt beam="1">  1       21 0.11464738E-01 0.45446427E+03</pdfrwt>
<pdfrwt beam="2">  1       21 0.97399683E-01 0.45446427E+03</pdfrwt>
<totfact> 0.50984467E+04</totfact>
</mgrwt>
</event>
<event>
 7    0  0.4793433E-002  0.4468697E+03  0.7546771E-02  0.1028660E+00
         21   -1    0    0  502  501  0.00000000000E+00  0.00000000000E+00  0.11648735377E+04  0.11648735377E+04  0.00000000000E+00 0. -1.
         21   -1    0    0  501  502 -0.00000000000E+00 -0.00000000000E+00 -0.42857121261E+02  0.42857121261E+02  0.00000000000E+00 0. -1.
      99926    2    1    2    0    0  0.00000000000E+00  0.00000000000E+00  0.11220164164E+04  0.12077306590E+04  0.44686967433E+03 0.  0.
      99925    2    3    3    0    0 -0.65314467844E+02 -0.27432317743E+02  0.50038641205E+03  0.56969470211E+03  0.26295813448E+03 0.  0.
         25    1    4    4    0    0 -0.49166393746E+02  0.13005574669E+02  0.30602948716E+03  0.33449668811E+03  0.12509000000E+03 0.  0.
         25    1    3    3    0    0  0.65314467844E+02  0.27432317743E+02  0.62163000438E+03  0.63803595684E+03  0.12509000000E+03 0.  0.
         25    1    4    4    0    0 -0.16148074098E+02 -0.40437892412E+02  0.19435692489E+03  0.23519801401E+03  0.12509000000E+03 0.  0.
<mgrwt>
<rscale>  2 0.44686967E+03</rscale>
<asrwt>0</asrwt>
<pdfrwt beam="1">  1       21 0.17130491E+00 0.44686967E+03</pdfrwt>
<pdfrwt beam="2">  1       21 0.63025186E-02 0.44686967E+03</pdfrwt>
<totfact> 0.34015564E+04</totfact>
</mgrwt>
</event>
<event>
 7    0  0.4793433E-002  0.4288335E+03  0.7546771E-02  0.1034229E+00
         21   -1    0    0  502  501  0.00000000000E+00  0.00000000000E+00  0.32492811131E+03  0.32492811131E+03  0.00000000000E+00 0. -1.
         21   -1    0    0  501  502 -0.00000000000E+00 -0.00000000000E+00 -0.14149140957E+03  0.14149140957E+03  0.00000000000E+00 0. -1.
      99926    2    1    2    0    0  0.17763568394E-14  0.35527136788E-14  0.18343670174E+03  0.46641952089E+03  0.42883347108E+03 0.  0.
      99925    2    3    3    0    0 -0.50687281313E+01  0.22981542860E+02  0.20895727286E+03  0.33660176029E+03  0.26283789649E+03 0.  0.
         25    1    4    4    0    0  0.33157160947E+02  0.23067417236E+01  0.12416085174E+03  0.17935479805E+03  0.12509000000E+03 0.  0.
         25    1    4    4    0    0 -0.38225889079E+02  0.20674801137E+02  0.84796421115E+02  0.15724696223E+03  0.12509000000E+03 0.  0.
         25    1    3    3    0    0  0.50687281313E+01 -0.22981542860E+02 -0.25520571119E+02  0.12981776060E+03  0.12509000000E+03 0.  0.
<mgrwt>
<rscale>  2 0.42883347E+03</rscale>
<asrwt>0</asrwt>
<pdfrwt beam="1">  1       21 0.47783546E-01 0.42883347E+03</pdfrwt>
<pdfrwt beam="2">  1       21 0.20807560E-01 0.42883347E+03</pdfrwt>
<totfact> 0.83801226E+04</totfact>
</mgrwt>
</event>
<event>
 7    0  0.4793433E-002  0.4563047E+03  0.7546771E-02  0.1025858E+00
         21   -1    0    0  502  501  0.00000000000E+00  0.00000000000E+00  0.12000328319E+03  0.12000328319E+03  0.00000000000E+00 0. -1.
         21   -1    0    0  501  502 -0.00000000000E+00 -0.00000000000E+00 -0.43376727939E+03  0.43376727939E+03  0.00000000000E+00 0. -1.
      99926    2    1    2    0    0  0.22204460493E-15  0.00000000000E+00 -0.31376399620E+03  0.55377056257E+03  0.45630471251E+03 0.  0.
      99925    2    3    3    0    0 -0.16253431860E+01  0.12807131288E+02 -0.33515065413E+03  0.42621053126E+03  0.26298819677E+03 0.  0.
         25    1    3    3    0    0  0.16253431860E+01 -0.12807131288E+02  0.21386657922E+02  0.12756003132E+03  0.12509000000E+03 0.  0.
         25    1    4    4    0    0 -0.44044885536E+01  0.11772860098E+02 -0.23271495456E+03  0.26450285052E+03  0.12509000000E+03 0.  0.
         25    1    4    4    0    0  0.27791453675E+01  0.10342711908E+01 -0.10243569956E+03  0.16170768074E+03  0.12509000000E+03 0.  0.
<mgrwt>
<rscale>  2 0.45630471E+03</rscale>
<asrwt>0</asrwt>
<pdfrwt beam="1">  1       21 0.17647542E-01 0.45630471E+03</pdfrwt>
<pdfrwt beam="2">  1       21 0.63789305E-01 0.45630471E+03</pdfrwt>
<totfact> 0.60986108E+04</totfact>
</mgrwt>
</event>
<event>
 7    0  0.4793433E-002  0.4467287E+03  0.7546771E-02  0.1028702E+00
         21   -1    0    0  502  501  0.00000000000E+00  0.00000000000E+00  0.78180896232E+02  0.78180896232E+02  0.00000000000E+00 0. -1.
         21   -1    0    0  501  502 -0.00000000000E+00 -0.00000000000E+00 -0.63815638429E+03  0.63815638429E+03  0.00000000000E+00 0. -1.
      99926    2    1    2    0    0  0.00000000000E+00 -0.35527136788E-14 -0.55997548806E+03  0.71633728052E+03  0.44672872332E+03 0.  0.
      99925    2    3    3    0    0 -0.97989820670E+02  0.28940109642E+02 -0.39606278789E+03  0.48621901468E+03  0.26287575654E+03 0.  0.
         25    1    4    4    0    0 -0.33343246181E+02  0.44790635407E+02 -0.15740859340E+03  0.20866946701E+03  0.12509000000E+03 0.  0.
         25    1    4    4    0    0 -0.64646574489E+02 -0.15850525765E+02 -0.23865419449E+03  0.27754954767E+03  0.12509000000E+03 0.  0.
         25    1    3    3    0    0  0.97989820670E+02 -0.28940109642E+02 -0.16391270016E+03  0.23011826584E+03  0.12509000000E+03 0.  0.
<mgrwt>
<rscale>  2 0.44672872E+03</rscale>
<asrwt>0</asrwt>
<pdfrwt beam="1">  1       21 0.11497190E-01 0.44672872E+03</pdfrwt>
<pdfrwt beam="2">  1       21 0.93846532E-01 0.44672872E+03</pdfrwt>
<totfact> 0.55552097E+04</totfact>
</mgrwt>
</event>
<event>
 7    0  0.4793433E-002  0.4538746E+03  0.7546771E-02  0.1026573E+00
         21   -1    0    0  502  501  0.00000000000E+00  0.00000000000E+00  0.27305093879E+04  0.27305093879E+04  0.00000000000E+00 0.  1.
         21   -1    0    0  501  502 -0.00000000000E+00 -0.00000000000E+00 -0.18861143650E+02  0.18861143650E+02  0.00000000000E+00 0.  1.
      99926    2    1    2    0    0 -0.71054273576E-14  0.14210854715E-13  0.27116482442E+04  0.27493705315E+04  0.45387456329E+03 0.  0.
      99925    2    3    3    0    0 -0.38095393444E+02  0.65472284175E+02  0.22077640820E+04  0.22246947878E+04  0.26326180536E+03 0.  0.
         25    1    3    3    0    0  0.38095393444E+02 -0.65472284175E+02  0.50388416223E+03  0.52467574371E+03  0.12509000000E+03 0.  0.
         25    1    4    4    0    0 -0.51140297756E+02  0.37086155228E+02  0.13569569939E+04  0.13641739275E+04  0.12509000000E+03 0.  0.
         25    1    4    4    0    0  0.13044904312E+02  0.28386128947E+02  0.85080708810E+03  0.86052086036E+03  0.12509000000E+03 0.  0.
<mgrwt>
<rscale>  2 0.45387456E+03</rscale>
<asrwt>0</asrwt>
<pdfrwt beam="1">  1       21 0.40154523E+00 0.45387456E+03</pdfrwt>
<pdfrwt beam="2">  1       21 0.27736995E-02 0.45387456E+03</pdfrwt>
<totfact> 0.49453522E+03</totfact>
</mgrwt>
</event>
<event>
 7    0  0.4793433E-002  0.4630001E+03  0.7546771E-02  0.1023915E+00
         21   -1    0    0  502  501  0.00000000000E+00  0.00000000000E+00  0.20104667056E+03  0.20104667056E+03  0.00000000000E+00 0.  1.
         21   -1    0    0  501  502 -0.00000000000E+00 -0.00000000000E+00 -0.26656629353E+03  0.26656629353E+03  0.00000000000E+00 0.  1.
      99926    2    1    2    0    0  0.00000000000E+00  0.00000000000E+00 -0.65519622971E+02  0.46761296409E+03  0.46300006824E+03 0.  0.
      99925    2    3    3    0    0  0.35232048912E+02 -0.67564465735E+02 -0.13497168951E+03  0.30551005867E+03  0.26327321299E+03 0.  0.
         25    1    3    3    0    0 -0.35232048912E+02  0.67564465735E+02  0.69452066541E+02  0.16210290543E+03  0.12509000000E+03 0.  0.
         25    1    4    4    0    0  0.55963759880E+02 -0.19696525615E+02 -0.64054270147E+02  0.15254623288E+03  0.12509000000E+03 0.  0.
         25    1    4    4    0    0 -0.20731710968E+02 -0.47867940120E+02 -0.70917419365E+02  0.15296382579E+03  0.12509000000E+03 0.  0.
<mgrwt>
<rscale>  2 0.46300007E+03</rscale>
<asrwt>0</asrwt>
<pdfrwt beam="1">  1       21 0.29565687E-01 0.46300007E+03</pdfrwt>
<pdfrwt beam="2">  1       21 0.39200925E-01 0.46300007E+03</pdfrwt>
<totfact> 0.63481544E+04</totfact>
</mgrwt>
</event>
<event>
 7    0  0.4793433E-002  0.4505226E+03  0.7546771E-02  0.1027566E+00
         21   -1    0    0  502  501  0.00000000000E+00  0.00000000000E+00  0.28875516830E+02  0.28875516830E+02  0.00000000000E+00 0. -1.
         21   -1    0    0  501  502 -0.00000000000E+00 -0.00000000000E+00 -0.17572899287E+04  0.17572899287E+04  0.00000000000E+00 0. -1.
      99926    2    1    2    0    0  0.88817841970E-15 -0.14210854715E-13 -0.17284144119E+04  0.17861654456E+04  0.45052260726E+03 0.  0.
      99925    2    3    3    0    0  0.28466893518E+01 -0.73200231683E+02 -0.14115936388E+04  0.14377557902E+04  0.26301850446E+03 0.  0.
         25    1    3    3    0    0 -0.28466893518E+01  0.73200231683E+02 -0.31682077314E+03  0.34840965536E+03  0.12509000000E+03 0.  0.
         25    1    4    4    0    0 -0.14557256312E+02 -0.34853919986E+02 -0.50624669259E+03  0.52283834146E+03  0.12509000000E+03 0.  0.
         25    1    4    4    0    0  0.17403945663E+02 -0.38346311697E+02 -0.90534694619E+03  0.91491744875E+03  0.12509000000E+03 0.  0.
<mgrwt>
<rscale>  2 0.45052261E+03</rscale>
<asrwt>0</asrwt>
<pdfrwt beam="1">  1       21 0.42463984E-02 0.45052261E+03</pdfrwt>
<pdfrwt beam="2">  1       21 0.25842506E+00 0.45052261E+03</pdfrwt>
<totfact> 0.18149515E+04</totfact>
</mgrwt>
</event>
<event>
 7    0  0.4793433E-002  0.4566477E+03  0.7546771E-02  0.1025758E+00
         21   -1    0    0  502  501  0.00000000000E+00  0.00000000000E+00  0.28428832126E+02  0.28428832126E+02  0.00000000000E+00 0.  1.
         21   -1    0    0  501  502 -0.00000000000E+00 -0.00000000000E+00 -0.18337642724E+04  0.18337642724E+04  0.00000000000E+00 0.  1.
      99926    2    1    2    0    0 -0.14210854715E-13  0.71054273576E-14 -0.18053354403E+04  0.18621931045E+04  0.45664768327E+03 0.  0.
      99925    2    3    3    0    0  0.93602903083E+02 -0.46536408035E+02 -0.94132491390E+03  0.98293839824E+03  0.26296037814E+03 0.  0.
         25    1    4    4    0    0  0.49869169715E+02  0.15490830827E+02 -0.49630019755E+03  0.51447866245E+03  0.12509000000E+03 0.  0.
         25    1    4    4    0    0  0.43733733368E+02 -0.62027238862E+02 -0.44502471634E+03  0.46845973578E+03  0.12509000000E+03 0.  0.
         25    1    3    3    0    0 -0.93602903083E+02  0.46536408035E+02 -0.86401052637E+03  0.87925470628E+03  0.12509000000E+03 0.  0.
<mgrwt>
<rscale>  2 0.45664768E+03</rscale>
<asrwt>0</asrwt>
<pdfrwt beam="1">  1       21 0.41807094E-02 0.45664768E+03</pdfrwt>
<pdfrwt beam="2">  1       21 0.26967129E+00 0.45664768E+03</pdfrwt>
<totfact> 0.15888942E+04</totfact>
</mgrwt>
</event>
<event>
 7    0  0.4793433E-002  0.4739554E+03  0.7546771E-02  0.1020810E+00
         21   -1    0    0  502  501  0.00000000000E+00  0.00000000000E+00  0.13536942840E+03  0.13536942840E+03  0.00000000000E+00 0. -1.
         21   -1    0    0  501  502 -0.00000000000E+00 -0.00000000000E+00 -0.41485317741E+03  0.41485317741E+03  0.00000000000E+00 0. -1.
      99926    2    1    2    0    0  0.00000000000E+00  0.00000000000E+00 -0.27948374901E+03  0.55022260582E+03  0.47395543038E+03 0.  0.
      99925    2    3    3    0    0 -0.89885786295E+01 -0.10218961127E+03 -0.79903641165E+02  0.29331165092E+03  0.26291371493E+03 0.  0.
         25    1    4    4    0    0  0.11534354780E+02 -0.14483435276E+02 -0.20442664467E+02  0.12809458173E+03  0.12509000000E+03 0.  0.
         25    1    3    3    0    0  0.89885786295E+01  0.10218961127E+03 -0.19958010785E+03  0.25691095489E+03  0.12509000000E+03 0.  0.
         25    1    4    4    0    0 -0.20522933410E+02 -0.87706175992E+02 -0.59460976698E+02  0.16521706919E+03  0.12509000000E+03 0.  0.
<mgrwt>
<rscale>  2 0.47395543E+03</rscale>
<asrwt>0</asrwt>
<pdfrwt beam="1">  1       21 0.19907269E-01 0.47395543E+03</pdfrwt>
<pdfrwt beam="2">  1       21 0.61007819E-01 0.47395543E+03</pdfrwt>
<totfact> 0.53378149E+04</totfact>
</mgrwt>
</event>
<event>
 7    0  0.4793433E-002  0.4531968E+03  0.7546771E-02  0.1026773E+00
         21   -1    0    0  502  501  0.00000000000E+00  0.00000000000E+00  0.66718970380E+03  0.66718970380E+03  0.00000000000E+00 0. -1.
         21   -1    0    0  501  502 -0.00000000000E+00 -0.00000000000E+00 -0.76959869978E+02  0.76959869978E+02  0.00000000000E+00 0. -1.
      99926    2    1    2    0    0  0.00000000000E+00  0.71054273576E-14  0.59022983383E+03  0.74414957378E+03  0.45319679105E+03 0.  0.
      99925    2    3    3    0    0 -0.18336265526E+02 -0.56056969296E+02  0.52715587036E+03  0.59214814153E+03  0.26318720984E+03 0.  0.
         25    1    4    4    0    0  0.11796742236E+02 -0.54754464305E+02  0.32231671114E+03  0.35024674854E+03  0.12509000000E+03 0.  0.
         25    1    4    4    0    0 -0.30133007762E+02 -0.13025049913E+01  0.20483915922E+03  0.24190139298E+03  0.12509000000E+03 0.  0.
         25    1    3    3    0    0  0.18336265526E+02  0.56056969296E+02  0.63073963469E+02  0.15200143226E+03  0.12509000000E+03 0.  0.
<mgrwt>
<rscale>  2 0.45319679E+03</rscale>
<asrwt>0</asrwt>
<pdfrwt beam="1">  1       21 0.98116130E-01 0.45319679E+03</pdfrwt>
<pdfrwt beam="2">  1       21 0.11317628E-01 0.45319679E+03</pdfrwt>
<totfact> 0.51293797E+04</totfact>
</mgrwt>
</event>
<event>
 7    0  0.4793433E-002  0.4483351E+03  0.7546771E-02  0.1028220E+00
         21   -1    0    0  502  501  0.00000000000E+00  0.00000000000E+00  0.39433472032E+03  0.39433472032E+03  0.00000000000E+00 0.  1.
         21   -1    0    0  501  502 -0.00000000000E+00 -0.00000000000E+00 -0.12743255080E+03  0.12743255080E+03  0.00000000000E+00 0.  1.
      99926    2    1    2    0    0  0.00000000000E+00  0.00000000000E+00  0.26690216953E+03  0.52176727112E+03  0.44833505006E+03 0.  0.
      99925    2    3    3    0    0  0.35231774836E+02  0.26018884684E+02  0.28235639677E+03  0.38833338653E+03  0.26298179400E+03 0.  0.
         25    1    4    4    0    0 -0.16187324736E+02  0.34386158483E+02  0.12852361953E+03  0.18333102916E+03  0.12509000000E+03 0.  0.
         25    1    4    4    0    0  0.51419099572E+02 -0.83672737990E+01  0.15383277724E+03  0.20500235737E+03  0.12509000000E+03 0.  0.
         25    1    3    3    0    0 -0.35231774836E+02 -0.26018884684E+02 -0.15454227239E+02  0.13343388459E+03  0.12509000000E+03 0.  0.
<mgrwt>
<rscale>  2 0.44833505E+03</rscale>
<asrwt>0</asrwt>
<pdfrwt beam="1">  1       21 0.57990400E-01 0.44833505E+03</pdfrwt>
<pdfrwt beam="2">  1       21 0.18740081E-01 0.44833505E+03</pdfrwt>
<totfact> 0.67250742E+04</totfact>
</mgrwt>
</event>
<event>
 7    0  0.4793433E-002  0.4571462E+03  0.7546771E-02  0.1025612E+00
         21   -1    0    0  502  501  0.00000000000E+00  0.00000000000E+00  0.34554186815E+02  0.34554186815E+02  0.00000000000E+00 0.  1.
         21   -1    0    0  501  502 -0.00000000000E+00 -0.00000000000E+00 -0.15119919168E+04  0.15119919168E+04  0.00000000000E+00 0.  1.
      99926    2    1    2    0    0  0.71054273576E-14  0.14210854715E-13 -0.14774377299E+04  0.15465461036E+04  0.45714615236E+03 0.  0.
      99925    2    3    3    0    0  0.33722576167E+02  0.10627404394E+03 -0.10236394790E+04  0.10627984987E+04  0.26319475929E+03 0.  0.
         25    1    3    3    0    0 -0.33722576167E+02 -0.10627404394E+03 -0.45379825094E+03  0.48374760487E+03  0.12509000000E+03 0.  0.
         25    1    4    4    0    0  0.46631926386E+01  0.17341898838E+02 -0.37945211984E+03  0.39994237856E+03  0.12509000000E+03 0.  0.
         25    1    4    4    0    0  0.29059383528E+02  0.88932145103E+02 -0.64418735916E+03  0.66285612013E+03  0.12509000000E+03 0.  0.
<mgrwt>
<rscale>  2 0.45714615E+03</rscale>
<asrwt>0</asrwt>
<pdfrwt beam="1">  1       21 0.50814982E-02 0.45714615E+03</pdfrwt>
<pdfrwt beam="2">  1       21 0.22235175E+00 0.45714615E+03</pdfrwt>
<totfact> 0.22287283E+04</totfact>
</mgrwt>
</event>
<event>
 7    0  0.4793433E-002  0.4562324E+03  0.7546771E-02  0.1025880E+00
         21   -1    0    0  502  501  0.00000000000E+00  0.00000000000E+00  0.59953363354E+03  0.59953363354E+03  0.00000000000E+00 0.  1.
         21   -1    0    0  501  502 -0.00000000000E+00 -0.00000000000E+00 -0.86795796092E+02  0.86795796092E+02  0.00000000000E+00 0.  1.
      99926    2    1    2    0    0  0.00000000000E+00  0.14210854715E-13  0.51273783745E+03  0.68632942964E+03  0.45623239257E+03 0.  0.
      99925    2    3    3    0    0  0.33498479107E+02  0.92545127360E+02  0.23436435503E+03  0.36566441359E+03  0.26286320350E+03 0.  0.
         25    1    4    4    0    0 -0.12114735781E+02  0.72164734050E+02  0.10552356405E+03  0.17926864292E+03  0.12509000000E+03 0.  0.
         25    1    4    4    0    0  0.45613214888E+02  0.20380393309E+02  0.12884079098E+03  0.18639577067E+03  0.12509000000E+03 0.  0.
         25    1    3    3    0    0 -0.33498479107E+02 -0.92545127360E+02  0.27837348242E+03  0.32066501604E+03  0.12509000000E+03 0.  0.
<mgrwt>
<rscale>  2 0.45623239E+03</rscale>
<asrwt>0</asrwt>
<pdfrwt beam="1">  1       21 0.88166709E-01 0.45623239E+03</pdfrwt>
<pdfrwt beam="2">  1       21 0.12764088E-01 0.45623239E+03</pdfrwt>
<totfact> 0.53134267E+04</totfact>
</mgrwt>
</event>
<event>
 7    0  0.4793433E-002  0.4608317E+03  0.7546771E-02  0.1024540E+00
         21   -1    0    0  502  501  0.00000000000E+00  0.00000000000E+00  0.77057246493E+03  0.77057246493E+03  0.00000000000E+00 0.  1.
         21   -1    0    0  501  502 -0.00000000000E+00 -0.00000000000E+00 -0.68898732149E+02  0.68898732149E+02  0.00000000000E+00 0.  1.
      99926    2    1    2    0    0  0.00000000000E+00  0.00000000000E+00  0.70167373278E+03  0.83947119708E+03  0.46083170838E+03 0.  0.
      99925    2    3    3    0    0  0.12330561031E+02 -0.80607458938E+02  0.59592307765E+03  0.65649492995E+03  0.26308111563E+03 0.  0.
         25    1    4    4    0    0  0.33745790441E+02 -0.16509723388E+02  0.24025488555E+03  0.27346163802E+03  0.12509000000E+03 0.  0.
         25    1    4    4    0    0 -0.21415229411E+02 -0.64097735551E+02  0.35566819210E+03  0.38303329193E+03  0.12509000000E+03 0.  0.
         25    1    3    3    0    0 -0.12330561031E+02  0.80607458938E+02  0.10575065513E+03  0.18297626713E+03  0.12509000000E+03 0.  0.
<mgrwt>
<rscale>  2 0.46083171E+03</rscale>
<asrwt>0</asrwt>
<pdfrwt beam="1">  1       21 0.11331947E+00 0.46083171E+03</pdfrwt>
<pdfrwt beam="2">  1       21 0.10132167E-01 0.46083171E+03</pdfrwt>
<totfact> 0.43872130E+04</totfact>
</mgrwt>
</event>
<event>
 6    0  0.4793433E-002  0.4592029E+03  0.7546771E-02  0.1025013E+00
         21   -1    0    0  502  501  0.00000000000E+00  0.00000000000E+00  0.23769659138E+03  0.23769659138E+03  0.00000000000E+00 0. -1.
         21   -1    0    0  501  502 -0.00000000000E+00 -0.00000000000E+00 -0.22178201216E+03  0.22178201216E+03  0.00000000000E+00 0. -1.
      99926    2    1    2    0    0  0.00000000000E+00  0.00000000000E+00  0.15914579223E+02  0.45947860355E+03  0.45920291080E+03 0.  0.
         25    1    3    3    0    0 -0.84272394289E+01  0.11953854082E+03  0.13436214469E+02  0.17374844191E+03  0.12509000000E+03 0.  0.
         25    1    3    3    0    0  0.27599307764E+02 -0.45522793626E+02  0.22388472578E+02  0.13777807639E+03  0.12509000000E+03 0.  0.
         25    1    3    3    0    0 -0.19172068335E+02 -0.74015747195E+02 -0.19910107824E+02  0.14795208525E+03  0.12509000000E+03 0.  0.
<mgrwt>
<rscale>  2 0.45920291E+03</rscale>
<asrwt>0</asrwt>
<pdfrwt beam="1">  1       21 0.34955381E-01 0.45920291E+03</pdfrwt>
<pdfrwt beam="2">  1       21 0.32615002E-01 0.45920291E+03</pdfrwt>
<totfact> 0.65978465E+04</totfact>
</mgrwt>
</event>
<event>
 6    0  0.4793433E-002  0.4464911E+03  0.7546771E-02  0.1028774E+00
         21   -1    0    0  502  501  0.00000000000E+00  0.00000000000E+00  0.13610292121E+04  0.13610292121E+04  0.00000000000E+00 0. -1.
         21   -1    0    0  501  502 -0.00000000000E+00 -0.00000000000E+00 -0.36618299824E+02  0.36618299824E+02  0.00000000000E+00 0. -1.
      99926    2    1    2    0    0  0.00000000000E+00  0.00000000000E+00  0.13244109123E+04  0.13976475119E+04  0.44649110073E+03 0.  0.
         25    1    3    3    0    0  0.40779054557E+02 -0.68167880837E+02  0.57938339037E+03  0.59803211654E+03  0.12509000000E+03 0.  0.
         25    1    3    3    0    0 -0.82143857886E+02  0.34032537809E+02  0.36505770015E+03  0.39600563072E+03  0.12509000000E+03 0.  0.
         25    1    3    3    0    0  0.41364803329E+02  0.34135343028E+02  0.37996982177E+03  0.40360976469E+03  0.12509000000E+03 0.  0.
<mgrwt>
<rscale>  2 0.44649110E+03</rscale>
<asrwt>0</asrwt>
<pdfrwt beam="1">  1       21 0.20015132E+00 0.44649110E+03</pdfrwt>
<pdfrwt beam="2">  1       21 0.53850450E-02 0.44649110E+03</pdfrwt>
<totfact> 0.28214881E+04</totfact>
</mgrwt>
</event>
<event>
 7    0  0.4793433E-002  0.4317419E+03  0.7546771E-02  0.1033311E+00
         21   -1    0    0  502  501  0.00000000000E+00  0.00000000000E+00  0.32817926065E+03  0.32817926065E+03  0.00000000000E+00 0. -1.
         21   -1    0    0  501  502 -0.00000000000E+00 -0.00000000000E+00 -0.14199635538E+03  0.14199635538E+03  0.00000000000E+00 0. -1.
      99926    2    1    2    0    0  0.00000000000E+00  0.26645352591E-14  0.18618290527E+03  0.47017561603E+03  0.43174186234E+03 0.  0.
      99925    2    3    3    0    0  0.64464883866E+02  0.55026185818E+01  0.52353516583E+02  0.27589794506E+03  0.26304521536E+03 0.  0.
         25    1    4    4    0    0  0.18179721180E+02  0.24028584756E+02 -0.67380823123E+01  0.12884403363E+03  0.12509000000E+03 0.  0.
         25    1    4    4    0    0  0.46285162686E+02 -0.18525966175E+02  0.59091598896E+02  0.14705391143E+03  0.12509000000E+03 0.  0.
         25    1    3    3    0    0 -0.64464883866E+02 -0.55026185818E+01  0.13382938868E+03  0.19427767097E+03  0.12509000000E+03 0.  0.
<mgrwt>
<rscale>  2 0.43174186E+03</rscale>
<asrwt>0</asrwt>
<pdfrwt beam="1">  1       21 0.48261656E-01 0.43174186E+03</pdfrwt>
<pdfrwt beam="2">  1       21 0.20881817E-01 0.43174186E+03</pdfrwt>
<totfact> 0.81453031E+04</totfact>
</mgrwt>
</event>
<event>
 7    0  0.4793433E-002  0.4507348E+03  0.7546771E-02  0.1027503E+00
         21   -1    0    0  502  501  0.00000000000E+00  0.00000000000E+00  0.15814636218E+03  0.15814636218E+03  0.00000000000E+00 0.  1.
         21   -1    0    0  501  502 -0.00000000000E+00 -0.00000000000E+00 -0.32116115593E+03  0.32116115593E+03  0.00000000000E+00 0.  1.
      99926    2    1    2    0    0  0.35527136788E-14  0.00000000000E+00 -0.16301479374E+03  0.47930751811E+03  0.45073481554E+03 0.  0.
      99925    2    3    3    0    0  0.25402602927E+02 -0.35848110900E+02  0.32101719738E+01  0.26668431473E+03  0.26302060609E+03 0.  0.
         25    1    4    4    0    0  0.17940582138E+02 -0.35902713004E+01 -0.36052349623E+02  0.13146115224E+03  0.12509000000E+03 0.  0.
         25    1    4    4    0    0  0.74620207895E+01 -0.32257839599E+02  0.39262521597E+02  0.13522316248E+03  0.12509000000E+03 0.  0.
         25    1    3    3    0    0 -0.25402602927E+02  0.35848110900E+02 -0.16622496572E+03  0.21262320339E+03  0.12509000000E+03 0.  0.
<mgrwt>
<rscale>  2 0.45073482E+03</rscale>
<asrwt>0</asrwt>
<pdfrwt beam="1">  1       21 0.23256818E-01 0.45073482E+03</pdfrwt>
<pdfrwt beam="2">  1       21 0.47229582E-01 0.45073482E+03</pdfrwt>
<totfact> 0.69059181E+04</totfact>
</mgrwt>
</event>
<event>
 7    0  0.4793433E-002  0.4157418E+03  0.7546771E-02  0.1038461E+00
         21   -1    0    0  502  501  0.00000000000E+00  0.00000000000E+00  0.96347933224E+02  0.96347933224E+02  0.00000000000E+00 0. -1.
         21   -1    0    0  501  502 -0.00000000000E+00 -0.00000000000E+00 -0.44848202835E+03  0.44848202835E+03  0.00000000000E+00 0. -1.
      99926    2    1    2    0    0  0.00000000000E+00  0.88817841970E-15 -0.35213409513E+03  0.54482996158E+03  0.41574182623E+03 0.  0.
      99925    2    3    3    0    0  0.11383346609E+02  0.49839567021E+01 -0.32131883907E+03  0.41540234277E+03  0.26298077806E+03 0.  0.
         25    1    3    3    0    0 -0.11383346609E+02 -0.49839567021E+01 -0.30815256055E+02  0.12942761881E+03  0.12509000000E+03 0.  0.
         25    1    4    4    0    0  0.22160768684E+01  0.16449097066E+02 -0.22057615073E+03  0.25411971620E+03  0.12509000000E+03 0.  0.
         25    1    4    4    0    0  0.91672697405E+01 -0.11465140364E+02 -0.10074268834E+03  0.16128262657E+03  0.12509000000E+03 0.  0.
<mgrwt>
<rscale>  2 0.41574183E+03</rscale>
<asrwt>0</asrwt>
<pdfrwt beam="1">  1       21 0.14168813E-01 0.41574183E+03</pdfrwt>
<pdfrwt beam="2">  1       21 0.65953240E-01 0.41574183E+03</pdfrwt>
<totfact> 0.85958727E+04</totfact>
</mgrwt>
</event>
<event>
 7    0  0.4793433E-002  0.4538655E+03  0.7546771E-02  0.1026576E+00
         21   -1    0    0  502  501  0.00000000000E+00  0.00000000000E+00  0.15872416587E+03  0.15872416587E+03  0.00000000000E+00 0.  1.
         21   -1    0    0  501  502 -0.00000000000E+00 -0.00000000000E+00 -0.32445256758E+03  0.32445256758E+03  0.00000000000E+00 0.  1.
      99926    2    1    2    0    0  0.00000000000E+00  0.00000000000E+00 -0.16572840171E+03  0.48317673345E+03  0.45386545651E+03 0.  0.
      99925    2    3    3    0    0  0.76517691176E+02 -0.64309543046E+02 -0.15838036080E+03  0.32288894166E+03  0.26302519950E+03 0.  0.
         25    1    4    4    0    0  0.18361068909E+02  0.72439935431E+00 -0.50812323921E+02  0.13626097742E+03  0.12509000000E+03 0.  0.
         25    1    4    4    0    0  0.58156622267E+02 -0.65033942400E+02 -0.10756803688E+03  0.18662796424E+03  0.12509000000E+03 0.  0.
         25    1    3    3    0    0 -0.76517691176E+02  0.64309543046E+02 -0.73480409028E+01  0.16028779178E+03  0.12509000000E+03 0.  0.
<mgrwt>
<rscale>  2 0.45386546E+03</rscale>
<asrwt>0</asrwt>
<pdfrwt beam="1">  1       21 0.23341789E-01 0.45386546E+03</pdfrwt>
<pdfrwt beam="2">  1       21 0.47713612E-01 0.45386546E+03</pdfrwt>
<totfact> 0.67071608E+04</totfact>
</mgrwt>
</event>
<event>
 7    0  0.4793433E-002  0.4595661E+03  0.7546771E-02  0.1024907E+00
         21   -1    0    0  502  501  0.00000000000E+00  0.00000000000E+00  0.23897297879E+03  0.23897297879E+03  0.00000000000E+00 0.  1.
         21   -1    0    0  501  502 -0.00000000000E+00 -0.00000000000E+00 -0.22094654929E+03  0.22094654929E+03  0.00000000000E+00 0.  1.
      99926    2    1    2    0    0  0.00000000000E+00  0.00000000000E+00  0.18026429494E+02  0.45991952808E+03  0.45956612163E+03 0.  0.
      99925    2    3    3    0    0  0.10227605090E+03  0.53346516435E+02 -0.10397291706E+02  0.28740385508E+03  0.26303351657E+03 0.  0.
         25    1    4    4    0    0  0.48420619053E+02  0.82667605183E+01  0.31346123371E+02  0.13799631600E+03  0.12509000000E+03 0.  0.
         25    1    4    4    0    0  0.53855431846E+02  0.45079755916E+02 -0.41743415076E+02  0.14940753908E+03  0.12509000000E+03 0.  0.
         25    1    3    3    0    0 -0.10227605090E+03 -0.53346516435E+02  0.28423721200E+02  0.17251567300E+03  0.12509000000E+03 0.  0.
<mgrwt>
<rscale>  2 0.45956612E+03</rscale>
<asrwt>0</asrwt>
<pdfrwt beam="1">  1       21 0.35143085E-01 0.45956612E+03</pdfrwt>
<pdfrwt beam="2">  1       21 0.32492140E-01 0.45956612E+03</pdfrwt>
<totfact> 0.65758301E+04</totfact>
</mgrwt>
</event>
<event>
 7    0  0.4793433E-002  0.4552947E+03  0.7546771E-02  0.1026155E+00
         21   -1    0    0  502  501  0.00000000000E+00  0.00000000000E+00  0.31031417890E+03  0.31031417890E+03  0.00000000000E+00 0.  1.
         21   -1    0    0  501  502 -0.00000000000E+00 -0.00000000000E+00 -0.16700271555E+03  0.16700271555E+03  0.00000000000E+00 0.  1.
      99926    2    1    2    0    0  0.00000000000E+00  0.00000000000E+00  0.14331146335E+03  0.47731689445E+03  0.45529467623E+03 0.  0.
      99925    2    3    3    0    0  0.37647452983E+02  0.17122089471E+02 -0.20492681730E+02  0.26710318722E+03  0.26308490256E+03 0.  0.
         25    1    4    4    0    0 -0.18641111036E+02  0.24996854562E+02 -0.10284044317E+02  0.12932750452E+03  0.12509000000E+03 0.  0.
         25    1    3    3    0    0 -0.37647452983E+02 -0.17122089471E+02  0.16380414508E+03  0.21021370723E+03  0.12509000000E+03 0.  0.
         25    1    4    4    0    0  0.56288564019E+02 -0.78747650907E+01 -0.10208637414E+02  0.13777568270E+03  0.12509000000E+03 0.  0.
<mgrwt>
<rscale>  2 0.45529468E+03</rscale>
<asrwt>0</asrwt>
<pdfrwt beam="1">  1       21 0.45634438E-01 0.45529468E+03</pdfrwt>
<pdfrwt beam="2">  1       21 0.24559223E-01 0.45529468E+03</pdfrwt>
<totfact> 0.66739707E+04</totfact>
</mgrwt>
</event>
<event>
 7    0  0.4793433E-002  0.4692842E+03  0.7546771E-02  0.1022122E+00
         21   -1    0    0  502  501  0.00000000000E+00  0.00000000000E+00  0.58505186533E+03  0.58505186533E+03  0.00000000000E+00 0. -1.
         21   -1    0    0  501  502 -0.00000000000E+00 -0.00000000000E+00 -0.94106025493E+02  0.94106025493E+02  0.00000000000E+00 0. -1.
      99926    2    1    2    0    0 -0.28865798640E-14  0.00000000000E+00  0.49094583983E+03  0.67915789082E+03  0.46928416020E+03 0.  0.
      99925    2    3    3    0    0  0.19014456027E+01 -0.88426066395E+02  0.17506987043E+03  0.32809105835E+03  0.26300474962E+03 0.  0.
         25    1    4    4    0    0  0.35077590895E+02 -0.21902335114E+02  0.89698347160E+02  0.15938460167E+03  0.12509000000E+03 0.  0.
         25    1    3    3    0    0 -0.19014456027E+01  0.88426066395E+02  0.31587596940E+03  0.35106683247E+03  0.12509000000E+03 0.  0.
         25    1    4    4    0    0 -0.33176145292E+02 -0.66523731280E+02  0.85371523268E+02  0.16870645668E+03  0.12509000000E+03 0.  0.
<mgrwt>
<rscale>  2 0.46928416E+03</rscale>
<asrwt>0</asrwt>
<pdfrwt beam="1">  1       21 0.86037037E-01 0.46928416E+03</pdfrwt>
<pdfrwt beam="2">  1       21 0.13839122E-01 0.46928416E+03</pdfrwt>
<totfact> 0.48369863E+04</totfact>
</mgrwt>
</event>
<event>
 7    0  0.4793433E-002  0.4478428E+03  0.7546771E-02  0.1028367E+00
         21   -1    0    0  502  501  0.00000000000E+00  0.00000000000E+00  0.95497906075E+02  0.95497906075E+02  0.00000000000E+00 0.  1.
         21   -1    0    0  501  502 -0.00000000000E+00 -0.00000000000E+00 -0.52504608538E+03  0.52504608538E+03  0.00000000000E+00 0.  1.
      99926    2    1    2    0    0  0.00000000000E+00  0.00000000000E+00 -0.42954817931E+03  0.62054399145E+03  0.44784283737E+03 0.  0.
      99925    2    3    3    0    0  0.10673499954E+02  0.99444834224E+02 -0.22198786021E+03  0.35837612001E+03  0.26296698397E+03 0.  0.
         25    1    3    3    0    0 -0.10673499954E+02 -0.99444834224E+02 -0.20756031909E+03  0.26216787144E+03  0.12509000000E+03 0.  0.
         25    1    4    4    0    0  0.67322120574E+01  0.93013485867E+02 -0.12269858309E+03  0.19849252284E+03  0.12509000000E+03 0.  0.
         25    1    4    4    0    0  0.39412878965E+01  0.64313483575E+01 -0.99289277122E+02  0.15988359717E+03  0.12509000000E+03 0.  0.
<mgrwt>
<rscale>  2 0.44784284E+03</rscale>
<asrwt>0</asrwt>
<pdfrwt beam="1">  1       21 0.14043810E-01 0.44784284E+03</pdfrwt>
<pdfrwt beam="2">  1       21 0.77212657E-01 0.44784284E+03</pdfrwt>
<totfact> 0.60794768E+04</totfact>
</mgrwt>
</event>
<event>
 7    0  0.4793433E-002  0.4562202E+03  0.7546771E-02  0.1025883E+00
         21   -1    0    0  502  501  0.00000000000E+00  0.00000000000E+00  0.13302759751E+03  0.13302759751E+03  0.00000000000E+00 0.  1.
         21   -1    0    0  501  502 -0.00000000000E+00 -0.00000000000E+00 -0.39115362958E+03  0.39115362958E+03  0.00000000000E+00 0.  1.
      99926    2    1    2    0    0  0.00000000000E+00  0.00000000000E+00 -0.25812603206E+03  0.52418122709E+03  0.45622024331E+03 0.  0.
      99925    2    3    3    0    0 -0.72234829700E+01 -0.59252584934E+02 -0.50373312252E+02  0.27443786238E+03  0.26308862042E+03 0.  0.
         25    1    4    4    0    0  0.15437625947E+01 -0.22089323490E+02  0.15536150703E+02  0.12798125446E+03  0.12509000000E+03 0.  0.
         25    1    3    3    0    0  0.72234829700E+01  0.59252584934E+02 -0.20775271981E+03  0.24974336471E+03  0.12509000000E+03 0.  0.
         25    1    4    4    0    0 -0.87672455647E+01 -0.37163261444E+02 -0.65909462955E+02  0.14645660792E+03  0.12509000000E+03 0.  0.
<mgrwt>
<rscale>  2 0.45622024E+03</rscale>
<asrwt>0</asrwt>
<pdfrwt beam="1">  1       21 0.19562882E-01 0.45622024E+03</pdfrwt>
<pdfrwt beam="2">  1       21 0.57522592E-01 0.45622024E+03</pdfrwt>
<totfact> 0.62990550E+04</totfact>
</mgrwt>
</event>
<event>
 7    0  0.4793433E-002  0.4539921E+03  0.7546771E-02  0.1026538E+00
         21   -1    0    0  502  501  0.00000000000E+00  0.00000000000E+00  0.25355424614E+03  0.25355424614E+03  0.00000000000E+00 0.  1.
         21   -1    0    0  501  502 -0.00000000000E+00 -0.00000000000E+00 -0.20321963309E+03  0.20321963309E+03  0.00000000000E+00 0.  1.
      99926    2    1    2    0    0 -0.71054273576E-14  0.00000000000E+00  0.50334613052E+02  0.45677387923E+03  0.45399207425E+03 0.  0.
      99925    2    3    3    0    0 -0.45718923172E+02 -0.73423357274E+02 -0.40238285373E+02  0.27976493212E+03  0.26299826673E+03 0.  0.
         25    1    4    4    0    0 -0.19802651220E+02 -0.25877714719E+01 -0.42686499088E+02  0.13367305959E+03  0.12509000000E+03 0.  0.
         25    1    4    4    0    0 -0.25916271951E+02 -0.70835585802E+02  0.24482137148E+01  0.14609187253E+03  0.12509000000E+03 0.  0.
         25    1    3    3    0    0  0.45718923172E+02  0.73423357274E+02  0.90572898425E+02  0.17700894711E+03  0.12509000000E+03 0.  0.
<mgrwt>
<rscale>  2 0.45399207E+03</rscale>
<asrwt>0</asrwt>
<pdfrwt beam="1">  1       21 0.37287389E-01 0.45399207E+03</pdfrwt>
<pdfrwt beam="2">  1       21 0.29885240E-01 0.45399207E+03</pdfrwt>
<totfact> 0.68968938E+04</totfact>
</mgrwt>
</event>
<event>
 7    0  0.4793433E-002  0.4295796E+03  0.7546771E-02  0.1033993E+00
         21   -1    0    0  502  501  0.00000000000E+00  0.00000000000E+00  0.15234674262E+03  0.15234674262E+03  0.00000000000E+00 0. -1.
         21   -1    0    0  501  502 -0.00000000000E+00 -0.00000000000E+00 -0.30282667790E+03  0.30282667790E+03  0.00000000000E+00 0. -1.
      99926    2    1    2    0    0  0.00000000000E+00  0.17763568394E-14 -0.15047993527E+03  0.45517342052E+03  0.42957959894E+03 0.  0.
      99925    2    3    3    0    0  0.85322286189E+02 -0.10481819170E+02 -0.11261050055E+03  0.29874016561E+03  0.26301102764E+03 0.  0.
         25    1    4    4    0    0  0.14707071053E+02  0.10798066863E+02 -0.80964399794E+02  0.15011874740E+03  0.12509000000E+03 0.  0.
         25    1    3    3    0    0 -0.85322286189E+02  0.10481819170E+02 -0.37869434723E+02  0.15643325490E+03  0.12509000000E+03 0.  0.
         25    1    4    4    0    0  0.70615215137E+02 -0.21279886033E+02 -0.31646100757E+02  0.14862141821E+03  0.12509000000E+03 0.  0.
<mgrwt>
<rscale>  2 0.42957960E+03</rscale>
<asrwt>0</asrwt>
<pdfrwt beam="1">  1       21 0.22403933E-01 0.42957960E+03</pdfrwt>
<pdfrwt beam="2">  1       21 0.44533335E-01 0.42957960E+03</pdfrwt>
<totfact> 0.84321005E+04</totfact>
</mgrwt>
</event>
<event>
 7    0  0.4793433E-002  0.4390634E+03  0.7546771E-02  0.1031035E+00
         21   -1    0    0  502  501  0.00000000000E+00  0.00000000000E+00  0.71408265490E+02  0.71408265490E+02  0.00000000000E+00 0.  1.
         21   -1    0    0  501  502 -0.00000000000E+00 -0.00000000000E+00 -0.67491031985E+03  0.67491031985E+03  0.00000000000E+00 0.  1.
      99926    2    1    2    0    0  0.00000000000E+00 -0.71054273576E-14 -0.60350205436E+03  0.74631858534E+03  0.43906343643E+03 0.  0.
      99925    2    3    3    0    0  0.85389478737E+02  0.36429187470E+02 -0.33495046817E+03  0.43585778053E+03  0.26298619725E+03 0.  0.
         25    1    3    3    0    0 -0.85389478737E+02 -0.36429187470E+02 -0.26855158619E+03  0.31046080481E+03  0.12509000000E+03 0.  0.
         25    1    4    4    0    0  0.68287266164E+02 -0.22502770645E+01 -0.21182234771E+03  0.25531241560E+03  0.12509000000E+03 0.  0.
         25    1    4    4    0    0  0.17102212573E+02  0.38679464535E+02 -0.12312812046E+03  0.18054536493E+03  0.12509000000E+03 0.  0.
<mgrwt>
<rscale>  2 0.43906344E+03</rscale>
<asrwt>0</asrwt>
<pdfrwt beam="1">  1       21 0.10501215E-01 0.43906344E+03</pdfrwt>
<pdfrwt beam="2">  1       21 0.99251521E-01 0.43906344E+03</pdfrwt>
<totfact> 0.57307442E+04</totfact>
</mgrwt>
</event>
<event>
 7    0  0.4793433E-002  0.4514042E+03  0.7546771E-02  0.1027304E+00
         21   -1    0    0  502  501  0.00000000000E+00  0.00000000000E+00  0.16485480996E+03  0.16485480996E+03  0.00000000000E+00 0. -1.
         21   -1    0    0  501  502 -0.00000000000E+00 -0.00000000000E+00 -0.30900786071E+03  0.30900786071E+03  0.00000000000E+00 0. -1.
      99926    2    1    2    0    0 -0.14210854715E-13  0.00000000000E+00 -0.14415305075E+03  0.47386267067E+03  0.45140417434E+03 0.  0.
      99925    2    3    3    0    0  0.10255585074E+03  0.17039893101E+02 -0.53844012596E+02  0.28782157051E+03  0.26293348642E+03 0.  0.
         25    1    4    4    0    0  0.26467198954E+02  0.22941741669E+02  0.47990759980E+01  0.12998990485E+03  0.12509000000E+03 0.  0.
         25    1    3    3    0    0 -0.10255585074E+03 -0.17039893101E+02 -0.90309038152E+02  0.18604110016E+03  0.12509000000E+03 0.  0.
         25    1    4    4    0    0  0.76088651781E+02 -0.59018485679E+01 -0.58643088594E+02  0.15783166566E+03  0.12509000000E+03 0.  0.
<mgrwt>
<rscale>  2 0.45140417E+03</rscale>
<asrwt>0</asrwt>
<pdfrwt beam="1">  1       21 0.24243355E-01 0.45140417E+03</pdfrwt>
<pdfrwt beam="2">  1       21 0.45442332E-01 0.45140417E+03</pdfrwt>
<totfact> 0.69100620E+04</totfact>
</mgrwt>
</event>
<event>
 7    0  0.4793433E-002  0.4525667E+03  0.7546771E-02  0.1026959E+00
         21   -1    0    0  502  501  0.00000000000E+00  0.00000000000E+00  0.24127223456E+03  0.24127223456E+03  0.00000000000E+00 0.  1.
         21   -1    0    0  501  502 -0.00000000000E+00 -0.00000000000E+00 -0.21222564760E+03  0.21222564760E+03  0.00000000000E+00 0.  1.
      99926    2    1    2    0    0  0.14210854715E-13 -0.71054273576E-14  0.29046586959E+02  0.45349788217E+03  0.45256670770E+03 0.  0.
      99925    2    3    3    0    0  0.65617712672E+02 -0.55966016465E+02  0.88219118168E+02  0.29044336440E+03  0.26293888244E+03 0.  0.
         25    1    3    3    0    0 -0.65617712672E+02  0.55966016465E+02 -0.59172531209E+02  0.16305451777E+03  0.12509000000E+03 0.  0.
         25    1    4    4    0    0  0.59675395989E+02 -0.47106998595E+02  0.74215054160E+02  0.16412070121E+03  0.12509000000E+03 0.  0.
         25    1    4    4    0    0  0.59423166831E+01 -0.88590178705E+01  0.14004064007E+02  0.12632266318E+03  0.12509000000E+03 0.  0.
<mgrwt>
<rscale>  2 0.45256671E+03</rscale>
<asrwt>0</asrwt>
<pdfrwt beam="1">  1       21 0.35481211E-01 0.45256671E+03</pdfrwt>
<pdfrwt beam="2">  1       21 0.31209654E-01 0.45256671E+03</pdfrwt>
<totfact> 0.70005306E+04</totfact>
</mgrwt>
</event>
<event>
 7    0  0.4793433E-002  0.4491387E+03  0.7546771E-02  0.1027979E+00
         21   -1    0    0  502  501  0.00000000000E+00  0.00000000000E+00  0.39257660925E+03  0.39257660925E+03  0.00000000000E+00 0. -1.
         21   -1    0    0  501  502 -0.00000000000E+00 -0.00000000000E+00 -0.12846256577E+03  0.12846256577E+03  0.00000000000E+00 0. -1.
      99926    2    1    2    0    0 -0.88817841970E-15  0.00000000000E+00  0.26411404348E+03  0.52103917502E+03  0.44913872461E+03 0.  0.
      99925    2    3    3    0    0 -0.54314984694E+01  0.70273118476E+02  0.72856526324E+02  0.28188491869E+03  0.26302703587E+03 0.  0.
         25    1    3    3    0    0  0.54314984694E+01 -0.70273118476E+02  0.19125751715E+03  0.23915425634E+03  0.12509000000E+03 0.  0.
         25    1    4    4    0    0 -0.13446222162E+02  0.21832358044E+02 -0.26997489077E+01  0.12771941705E+03  0.12509000000E+03 0.  0.
         25    1    4    4    0    0  0.80147236928E+01  0.48440760432E+02  0.75556275232E+02  0.15416550163E+03  0.12509000000E+03 0.  0.
<mgrwt>
<rscale>  2 0.44913872E+03</rscale>
<asrwt>0</asrwt>
<pdfrwt beam="1">  1       21 0.57731854E-01 0.44913872E+03</pdfrwt>
<pdfrwt beam="2">  1       21 0.18891554E-01 0.44913872E+03</pdfrwt>
<totfact> 0.66870693E+04</totfact>
</mgrwt>
</event>
<event>
 7    0  0.4793433E-002  0.4583033E+03  0.7546771E-02  0.1025274E+00
         21   -1    0    0  502  501  0.00000000000E+00  0.00000000000E+00  0.52480604700E+02  0.52480604700E+02  0.00000000000E+00 0.  1.
         21   -1    0    0  501  502 -0.00000000000E+00 -0.00000000000E+00 -0.10005693234E+04  0.10005693234E+04  0.00000000000E+00 0.  1.
      99926    2    1    2    0    0  0.14210854715E-13  0.00000000000E+00 -0.94808871871E+03  0.10530499281E+04  0.45830331937E+03 0.  0.
      99925    2    3    3    0    0  0.11478751810E+03  0.73739323603E+01 -0.55596727068E+03  0.62568908843E+03  0.26297657713E+03 0.  0.
         25    1    3    3    0    0 -0.11478751810E+03 -0.73739323603E+01 -0.39212144803E+03  0.42736083968E+03  0.12509000000E+03 0.  0.
         25    1    4    4    0    0  0.90203269784E+02 -0.17568683726E+02 -0.33826016125E+03  0.37217298843E+03  0.12509000000E+03 0.  0.
         25    1    4    4    0    0  0.24584248313E+02  0.24942616086E+02 -0.21770710943E+03  0.25351610000E+03  0.12509000000E+03 0.  0.
<mgrwt>
<rscale>  2 0.45830332E+03</rscale>
<asrwt>0</asrwt>
<pdfrwt beam="1">  1       21 0.77177367E-02 0.45830332E+03</pdfrwt>
<pdfrwt beam="2">  1       21 0.14714253E+00 0.45830332E+03</pdfrwt>
<totfact> 0.36222714E+04</totfact>
</mgrwt>
</event>
<event>
 7    0  0.4793433E-002  0.4571595E+03  0.7546771E-02  0.1025608E+00
         21   -1    0    0  502  501  0.00000000000E+00  0.00000000000E+00  0.13667689094E+03  0.13667689094E+03  0.00000000000E+00 0.  1.
         21   -1    0    0  501  502 -0.00000000000E+00 -0.00000000000E+00 -0.38227894465E+03  0.38227894465E+03  0.00000000000E+00 0.  1.
      99926    2    1    2    0    0 -0.14210854715E-13  0.00000000000E+00 -0.24560205371E+03  0.51895583559E+03  0.45715948039E+03 0.  0.
      99925    2    3    3    0    0  0.75883564738E+02  0.34135686219E+02 -0.63952618683E+02  0.28322805654E+03  0.26306773672E+03 0.  0.
         25    1    3    3    0    0 -0.75883564738E+02 -0.34135686219E+02 -0.18164943503E+03  0.23572777905E+03  0.12509000000E+03 0.  0.
         25    1    4    4    0    0  0.63214971674E+02 -0.14011134152E+02 -0.40558147201E+02  0.14657733770E+03  0.12509000000E+03 0.  0.
         25    1    4    4    0    0  0.12668593065E+02  0.48146820371E+02 -0.23394471482E+02  0.13665071883E+03  0.12509000000E+03 0.  0.
<mgrwt>
<rscale>  2 0.45715948E+03</rscale>
<asrwt>0</asrwt>
<pdfrwt beam="1">  1       21 0.20099543E-01 0.45715948E+03</pdfrwt>
<pdfrwt beam="2">  1       21 0.56217491E-01 0.45715948E+03</pdfrwt>
<totfact> 0.62874245E+04</totfact>
</mgrwt>
</event>
<event>
 7    0  0.4793433E-002  0.4520433E+03  0.7546771E-02  0.1027114E+00
         21   -1    0    0  502  501  0.00000000000E+00  0.00000000000E+00  0.46644346849E+02  0.46644346849E+02  0.00000000000E+00 0. -1.
         21   -1    0    0  501  502 -0.00000000000E+00 -0.00000000000E+00 -0.10952191824E+04  0.10952191824E+04  0.00000000000E+00 0. -1.
      99926    2    1    2    0    0  0.00000000000E+00  0.71054273576E-14 -0.10485748355E+04  0.11418635292E+04  0.45204328739E+03 0.  0.
      99925    2    3    3    0    0  0.64695359966E+02 -0.57726191004E+02 -0.83431799457E+03  0.87904932731E+03  0.26291329570E+03 0.  0.
         25    1    4    4    0    0  0.62392333578E+02 -0.10301784575E+02 -0.48984718729E+03  0.50950633465E+03  0.12509000000E+03 0.  0.
         25    1    4    4    0    0  0.23030263879E+01 -0.47424406429E+02 -0.34447080728E+03  0.36954299266E+03  0.12509000000E+03 0.  0.
         25    1    3    3    0    0 -0.64695359966E+02  0.57726191004E+02 -0.21425684094E+03  0.26281420189E+03  0.12509000000E+03 0.  0.
<mgrwt>
<rscale>  2 0.45204329E+03</rscale>
<asrwt>0</asrwt>
<pdfrwt beam="1">  1       21 0.68594634E-02 0.45204329E+03</pdfrwt>
<pdfrwt beam="2">  1       21 0.16106163E+00 0.45204329E+03</pdfrwt>
<totfact> 0.34851464E+04</totfact>
</mgrwt>
</event>
<event>
 7    0  0.4793433E-002  0.4516824E+03  0.7546771E-02  0.1027222E+00
         21   -1    0    0  502  501  0.00000000000E+00  0.00000000000E+00  0.34546350857E+03  0.34546350857E+03  0.00000000000E+00 0. -1.
         21   -1    0    0  501  502 -0.00000000000E+00 -0.00000000000E+00 -0.14764007590E+03  0.14764007590E+03  0.00000000000E+00 0. -1.
      99926    2    1    2    0    0  0.00000000000E+00  0.00000000000E+00  0.19782343267E+03  0.49310358447E+03  0.45168244875E+03 0.  0.
      99925    2    3    3    0    0  0.55087317447E+02  0.76772608201E+02  0.63543846281E+02  0.28668856241E+03  0.26310428636E+03 0.  0.
         25    1    3    3    0    0 -0.55087317447E+02 -0.76772608201E+02  0.13427958639E+03  0.20641502207E+03  0.12509000000E+03 0.  0.
         25    1    4    4    0    0  0.61448369168E+02  0.43217727337E+02  0.95481392717E+01  0.14622704638E+03  0.12509000000E+03 0.  0.
         25    1    4    4    0    0 -0.63610517211E+01  0.33554880864E+02  0.53995707010E+02  0.14046151603E+03  0.12509000000E+03 0.  0.
<mgrwt>
<rscale>  2 0.45168245E+03</rscale>
<asrwt>0</asrwt>
<pdfrwt beam="1">  1       21 0.50803457E-01 0.45168245E+03</pdfrwt>
<pdfrwt beam="2">  1       21 0.21711776E-01 0.45168245E+03</pdfrwt>
<totfact> 0.67518678E+04</totfact>
</mgrwt>
</event>
<event>
 7    0  0.4793433E-002  0.4570675E+03  0.7546771E-02  0.1025635E+00
         21   -1    0    0  502  501  0.00000000000E+00  0.00000000000E+00  0.10410724917E+03  0.10410724917E+03  0.00000000000E+00 0. -1.
         21   -1    0    0  501  502 -0.00000000000E+00 -0.00000000000E+00 -0.50167180795E+03  0.50167180795E+03  0.00000000000E+00 0. -1.
      99926    2    1    2    0    0  0.00000000000E+00  0.35527136788E-14 -0.39756455878E+03  0.60577905712E+03  0.45706748698E+03 0.  0.
      99925    2    3    3    0    0 -0.45348088856E+02 -0.31139523425E+02 -0.11605215721E+03  0.29285277280E+03  0.26318914161E+03 0.  0.
         25    1    3    3    0    0  0.45348088856E+02  0.31139523425E+02 -0.28151240157E+03  0.31292628432E+03  0.12509000000E+03 0.  0.
         25    1    4    4    0    0  0.53293326397E+01  0.13299647675E+02 -0.66328591968E+02  0.14231047968E+03  0.12509000000E+03 0.  0.
         25    1    4    4    0    0 -0.50677421496E+02 -0.44439171100E+02 -0.49723565239E+02  0.15054229312E+03  0.12509000000E+03 0.  0.
<mgrwt>
<rscale>  2 0.45706749E+03</rscale>
<asrwt>0</asrwt>
<pdfrwt beam="1">  1       21 0.15309889E-01 0.45706749E+03</pdfrwt>
<pdfrwt beam="2">  1       21 0.73775267E-01 0.45706749E+03</pdfrwt>
<totfact> 0.57380984E+04</totfact>
</mgrwt>
</event>
<event>
 7    0  0.4793433E-002  0.4656979E+03  0.7546771E-02  0.1023142E+00
         21   -1    0    0  502  501  0.00000000000E+00  0.00000000000E+00  0.28519219950E+02  0.28519219950E+02  0.00000000000E+00 0.  1.
         21   -1    0    0  501  502 -0.00000000000E+00 -0.00000000000E+00 -0.19011262270E+04  0.19011262270E+04  0.00000000000E+00 0.  1.
      99926    2    1    2    0    0  0.00000000000E+00  0.00000000000E+00 -0.18726070071E+04  0.19296454470E+04  0.46569791506E+03 0.  0.
      99925    2    3    3    0    0 -0.75816238808E+02  0.52657661254E+02 -0.15036983692E+04  0.15293180527E+04  0.26302849586E+03 0.  0.
         25    1    4    4    0    0 -0.28188522519E+02  0.14798738025E+01 -0.88492185538E+03  0.89416496300E+03  0.12509000000E+03 0.  0.
         25    1    4    4    0    0 -0.47627716290E+02  0.51177787452E+02 -0.61877651378E+03  0.63515308973E+03  0.12509000000E+03 0.  0.
         25    1    3    3    0    0  0.75816238808E+02 -0.52657661254E+02 -0.36890863793E+03  0.40032739426E+03  0.12509000000E+03 0.  0.
<mgrwt>
<rscale>  2 0.46569792E+03</rscale>
<asrwt>0</asrwt>
<pdfrwt beam="1">  1       21 0.41940040E-02 0.46569792E+03</pdfrwt>
<pdfrwt beam="2">  1       21 0.27957732E+00 0.46569792E+03</pdfrwt>
<totfact> 0.13717914E+04</totfact>
</mgrwt>
</event>
<event>
 7    0  0.4793433E-002  0.4539941E+03  0.7546771E-02  0.1026538E+00
         21   -1    0    0  502  501  0.00000000000E+00  0.00000000000E+00  0.42714296122E+03  0.42714296122E+03  0.00000000000E+00 0. -1.
         21   -1    0    0  501  502 -0.00000000000E+00 -0.00000000000E+00 -0.12063329988E+03  0.12063329988E+03  0.00000000000E+00 0. -1.
      99926    2    1    2    0    0  0.00000000000E+00  0.71054273576E-14  0.30650966134E+03  0.54777626110E+03  0.45399411861E+03 0.  0.
      99925    2    3    3    0    0  0.77350351288E+02  0.28765216262E+02  0.10225798254E+03  0.29444491503E+03  0.26349686618E+03 0.  0.
         25    1    4    4    0    0  0.36710702647E+02  0.41883426093E+02  0.19026021730E+02  0.13824396794E+03  0.12509000000E+03 0.  0.
         25    1    4    4    0    0  0.40639648641E+02 -0.13118209831E+02  0.83231960811E+02  0.15620094709E+03  0.12509000000E+03 0.  0.
         25    1    3    3    0    0 -0.77350351288E+02 -0.28765216262E+02  0.20425167879E+03  0.25333134607E+03  0.12509000000E+03 0.  0.
<mgrwt>
<rscale>  2 0.45399412E+03</rscale>
<asrwt>0</asrwt>
<pdfrwt beam="1">  1       21 0.62815141E-01 0.45399412E+03</pdfrwt>
<pdfrwt beam="2">  1       21 0.17740191E-01 0.45399412E+03</pdfrwt>
<totfact> 0.62509721E+04</totfact>
</mgrwt>
</event>
<event>
 7    0  0.4793433E-002  0.4454167E+03  0.7546771E-02  0.1029098E+00
         21   -1    0    0  502  501  0.00000000000E+00  0.00000000000E+00  0.78643355776E+02  0.78643355776E+02  0.00000000000E+00 0. -1.
         21   -1    0    0  501  502 -0.00000000000E+00 -0.00000000000E+00 -0.63068284069E+03  0.63068284069E+03  0.00000000000E+00 0. -1.
      99926    2    1    2    0    0  0.00000000000E+00  0.00000000000E+00 -0.55203948491E+03  0.70932619647E+03  0.44541672632E+03 0.  0.
      99925    2    3    3    0    0 -0.95522106297E+02 -0.19859732886E+02 -0.29268071182E+03  0.40529764014E+03  0.26284081922E+03 0.  0.
         25    1    4    4    0    0 -0.18700735444E+02  0.14699164279E+02 -0.15956771571E+03  0.20414491650E+03  0.12509000000E+03 0.  0.
         25    1    4    4    0    0 -0.76821370853E+02 -0.34558897165E+02 -0.13311299611E+03  0.20115272364E+03  0.12509000000E+03 0.  0.
         25    1    3    3    0    0  0.95522106297E+02  0.19859732886E+02 -0.25935877309E+03  0.30402855633E+03  0.12509000000E+03 0.  0.
<mgrwt>
<rscale>  2 0.44541673E+03</rscale>
<asrwt>0</asrwt>
<pdfrwt beam="1">  1       21 0.11565199E-01 0.44541673E+03</pdfrwt>
<pdfrwt beam="2">  1       21 0.92747476E-01 0.44541673E+03</pdfrwt>
<totfact> 0.56543745E+04</totfact>
</mgrwt>
</event>
<event>
 7    0  0.4793433E-002  0.4457517E+03  0.7546771E-02  0.1028997E+00
         21   -1    0    0  502  501  0.00000000000E+00  0.00000000000E+00  0.35617273169E+03  0.35617273169E+03  0.00000000000E+00 0. -1.
         21   -1    0    0  501  502 -0.00000000000E+00 -0.00000000000E+00 -0.13946503194E+03  0.13946503194E+03  0.00000000000E+00 0. -1.
      99926    2    1    2    0    0  0.35527136788E-14  0.00000000000E+00  0.21670769975E+03  0.49563776363E+03  0.44575168604E+03 0.  0.
      99925    2    3    3    0    0 -0.16341532841E+02  0.35367544895E+02  0.29846274042E+02  0.26742161730E+03  0.26287946363E+03 0.  0.
         25    1    4    4    0    0 -0.42846698975E+02  0.28345674435E+02  0.33474502345E+02  0.13931032725E+03  0.12509000000E+03 0.  0.
         25    1    4    4    0    0  0.26505166134E+02  0.70218704607E+01 -0.36282283029E+01  0.12811129005E+03  0.12509000000E+03 0.  0.
         25    1    3    3    0    0  0.16341532841E+02 -0.35367544895E+02  0.18686142571E+03  0.22821614633E+03  0.12509000000E+03 0.  0.
<mgrwt>
<rscale>  2 0.44575169E+03</rscale>
<asrwt>0</asrwt>
<pdfrwt beam="1">  1       21 0.52378343E-01 0.44575169E+03</pdfrwt>
<pdfrwt beam="2">  1       21 0.20509564E-01 0.44575169E+03</pdfrwt>
<totfact> 0.70622072E+04</totfact>
</mgrwt>
</event>
<event>
 7    0  0.4793433E-002  0.4771593E+03  0.7546771E-02  0.1019919E+00
         21   -1    0    0  502  501  0.00000000000E+00  0.00000000000E+00  0.10757800454E+03  0.10757800454E+03  0.00000000000E+00 0. -1.
         21   -1    0    0  501  502 -0.00000000000E+00 -0.00000000000E+00 -0.52910674506E+03  0.52910674506E+03  0.00000000000E+00 0. -1.
      99926    2    1    2    0    0  0.00000000000E+00  0.00000000000E+00 -0.42152874052E+03  0.63668474959E+03  0.47715929340E+03 0.  0.
      99925    2    3    3    0    0  0.69098227819E+02 -0.94687395646E+02 -0.17685825676E+03  0.33793498524E+03  0.26302270487E+03 0.  0.
         25    1    4    4    0    0  0.32978848799E+02 -0.68799297546E+02 -0.51380937746E+02  0.15526898169E+03  0.12509000000E+03 0.  0.
         25    1    4    4    0    0  0.36119379020E+02 -0.25888098099E+02 -0.12547731902E+03  0.18266600355E+03  0.12509000000E+03 0.  0.
         25    1    3    3    0    0 -0.69098227819E+02  0.94687395646E+02 -0.24467048376E+03  0.29874976436E+03  0.12509000000E+03 0.  0.
<mgrwt>
<rscale>  2 0.47715929E+03</rscale>
<asrwt>0</asrwt>
<pdfrwt beam="1">  1       21 0.15820295E-01 0.47715929E+03</pdfrwt>
<pdfrwt beam="2">  1       21 0.77809816E-01 0.47715929E+03</pdfrwt>
<totfact> 0.47588538E+04</totfact>
</mgrwt>
</event>
<event>
 7    0  0.4793433E-002  0.4532189E+03  0.7546771E-02  0.1026766E+00
         21   -1    0    0  502  501  0.00000000000E+00  0.00000000000E+00  0.83755714274E+03  0.83755714274E+03  0.00000000000E+00 0.  1.
         21   -1    0    0  501  502 -0.00000000000E+00 -0.00000000000E+00 -0.61311441721E+02  0.61311441721E+02  0.00000000000E+00 0.  1.
      99926    2    1    2    0    0  0.00000000000E+00  0.00000000000E+00  0.77624570102E+03  0.89886858446E+03  0.45321886962E+03 0.  0.
      99925    2    3    3    0    0  0.18584654360E+02  0.74851239274E+02  0.32966757184E+03  0.42873282645E+03  0.26302667385E+03 0.  0.
         25    1    4    4    0    0 -0.29333838716E+02  0.41416347499E+02  0.14431103350E+03  0.19760812338E+03  0.12509000000E+03 0.  0.
         25    1    4    4    0    0  0.47918493076E+02  0.33434891775E+02  0.18535653834E+03  0.23112470307E+03  0.12509000000E+03 0.  0.
         25    1    3    3    0    0 -0.18584654360E+02 -0.74851239274E+02  0.44657812919E+03  0.47013575802E+03  0.12509000000E+03 0.  0.
<mgrwt>
<rscale>  2 0.45321887E+03</rscale>
<asrwt>0</asrwt>
<pdfrwt beam="1">  1       21 0.12317016E+00 0.45321887E+03</pdfrwt>
<pdfrwt beam="2">  1       21 0.90163890E-02 0.45321887E+03</pdfrwt>
<totfact> 0.43891537E+04</totfact>
</mgrwt>
</event>
<event>
 7    0  0.4793433E-002  0.4634439E+03  0.7546771E-02  0.1023787E+00
         21   -1    0    0  502  501  0.00000000000E+00  0.00000000000E+00  0.63230170622E+02  0.63230170622E+02  0.00000000000E+00 0. -1.
         21   -1    0    0  501  502 -0.00000000000E+00 -0.00000000000E+00 -0.84920008976E+03  0.84920008976E+03  0.00000000000E+00 0. -1.
      99926    2    1    2    0    0 -0.13322676296E-14  0.00000000000E+00 -0.78596991914E+03  0.91243026038E+03  0.46344391923E+03 0.  0.
      99925    2    3    3    0    0  0.15601555274E+01  0.64564224989E+02 -0.28984189129E+03  0.39671570624E+03  0.26306663870E+03 0.  0.
         25    1    4    4    0    0  0.33938888823E+02  0.40251529314E+02 -0.11457822163E+03  0.17761675247E+03  0.12509000000E+03 0.  0.
         25    1    4    4    0    0 -0.32378733295E+02  0.24312695674E+02 -0.17526366966E+03  0.21909895377E+03  0.12509000000E+03 0.  0.
         25    1    3    3    0    0 -0.15601555274E+01 -0.64564224989E+02 -0.49612802785E+03  0.51571455414E+03  0.12509000000E+03 0.  0.
<mgrwt>
<rscale>  2 0.46344392E+03</rscale>
<asrwt>0</asrwt>
<pdfrwt beam="1">  1       21 0.92985548E-02 0.46344392E+03</pdfrwt>
<pdfrwt beam="2">  1       21 0.12488236E+00 0.46344392E+03</pdfrwt>
<totfact> 0.39990973E+04</totfact>
</mgrwt>
</event>
<event>
 7    0  0.4793433E-002  0.4488149E+03  0.7546771E-02  0.1028076E+00
         21   -1    0    0  502  501  0.00000000000E+00  0.00000000000E+00  0.36724864148E+03  0.36724864148E+03  0.00000000000E+00 0. -1.
         21   -1    0    0  501  502 -0.00000000000E+00 -0.00000000000E+00 -0.13712429051E+03  0.13712429051E+03  0.00000000000E+00 0. -1.
      99926    2    1    2    0    0  0.17763568394E-14  0.00000000000E+00  0.23012435097E+03  0.50437293198E+03  0.44881492579E+03 0.  0.
      99925    2    3    3    0    0 -0.12307856196E+02 -0.71060486551E+02  0.23542317010E+03  0.35988534893E+03  0.26247346395E+03 0.  0.
         25    1    4    4    0    0  0.29798810074E+02 -0.46059174991E+02  0.10127411995E+03  0.17003932532E+03  0.12509000000E+03 0.  0.
         25    1    4    4    0    0 -0.42106666270E+02 -0.25001311560E+02  0.13414905015E+03  0.18984602361E+03  0.12509000000E+03 0.  0.
         25    1    3    3    0    0  0.12307856196E+02  0.71060486551E+02 -0.52988191326E+01  0.14448758306E+03  0.12509000000E+03 0.  0.
<mgrwt>
<rscale>  2 0.44881493E+03</rscale>
<asrwt>0</asrwt>
<pdfrwt beam="1">  1       21 0.54007153E-01 0.44881493E+03</pdfrwt>
<pdfrwt beam="2">  1       21 0.20165337E-01 0.44881493E+03</pdfrwt>
<totfact> 0.68254026E+04</totfact>
</mgrwt>
</event>
<event>
 7    0  0.4793433E-002  0.4527853E+03  0.7546771E-02  0.1026895E+00
         21   -1    0    0  502  501  0.00000000000E+00  0.00000000000E+00  0.74489594073E+03  0.74489594073E+03  0.00000000000E+00 0.  1.
         21   -1    0    0  501  502 -0.00000000000E+00 -0.00000000000E+00 -0.68806430993E+02  0.68806430993E+02  0.00000000000E+00 0.  1.
      99926    2    1    2    0    0  0.00000000000E+00  0.00000000000E+00  0.67608950974E+03  0.81370237173E+03  0.45278529633E+03 0.  0.
      99925    2    3    3    0    0 -0.68286693226E+02 -0.13972951982E+02  0.27139456198E+03  0.38441945254E+03  0.26318242981E+03 0.  0.
         25    1    3    3    0    0  0.68286693226E+02  0.13972951982E+02  0.40469494776E+03  0.42928291918E+03  0.12509000000E+03 0.  0.
         25    1    4    4    0    0  0.41423304622E+01 -0.14744788261E+02  0.14781788093E+03  0.19424778430E+03  0.12509000000E+03 0.  0.
         25    1    4    4    0    0 -0.72429023688E+02  0.77183627885E+00  0.12357668105E+03  0.19017166824E+03  0.12509000000E+03 0.  0.
<mgrwt>
<rscale>  2 0.45278530E+03</rscale>
<asrwt>0</asrwt>
<pdfrwt beam="1">  1       21 0.10954352E+00 0.45278530E+03</pdfrwt>
<pdfrwt beam="2">  1       21 0.10118593E-01 0.45278530E+03</pdfrwt>
<totfact> 0.47936850E+04</totfact>
</mgrwt>
</event>
<event>
 7    0  0.4793433E-002  0.4619117E+03  0.7546771E-02  0.1024228E+00
         21   -1    0    0  502  501  0.00000000000E+00  0.00000000000E+00  0.16408937618E+03  0.16408937618E+03  0.00000000000E+00 0.  1.
         21   -1    0    0  501  502 -0.00000000000E+00 -0.00000000000E+00 -0.32507041587E+03  0.32507041587E+03  0.00000000000E+00 0.  1.
      99926    2    1    2    0    0  0.35527136788E-14  0.00000000000E+00 -0.16098103969E+03  0.48915979205E+03  0.46191168746E+03 0.  0.
      99925    2    3    3    0    0  0.22594422239E+02 -0.96431476681E+01 -0.22459233129E+03  0.34669083847E+03  0.26296259047E+03 0.  0.
         25    1    4    4    0    0  0.23303482729E+02  0.57219897775E+01 -0.63991249491E+02  0.14254185906E+03  0.12509000000E+03 0.  0.
         25    1    4    4    0    0 -0.70906048917E+00 -0.15365137446E+02 -0.16060108180E+03  0.20414897940E+03  0.12509000000E+03 0.  0.
         25    1    3    3    0    0 -0.22594422239E+02  0.96431476681E+01  0.63611291606E+02  0.14246895358E+03  0.12509000000E+03 0.  0.
<mgrwt>
<rscale>  2 0.46191169E+03</rscale>
<asrwt>0</asrwt>
<pdfrwt beam="1">  1       21 0.24130791E-01 0.46191169E+03</pdfrwt>
<pdfrwt beam="2">  1       21 0.47804472E-01 0.46191169E+03</pdfrwt>
<totfact> 0.62536831E+04</totfact>
</mgrwt>
</event>
<event>
 7    0  0.4793433E-002  0.4488503E+03  0.7546771E-02  0.1028065E+00
         21   -1    0    0  502  501  0.00000000000E+00  0.00000000000E+00  0.51410437061E+02  0.51410437061E+02  0.00000000000E+00 0. -1.
         21   -1    0    0  501  502 -0.00000000000E+00 -0.00000000000E+00 -0.97969677603E+03  0.97969677603E+03  0.00000000000E+00 0. -1.
      99926    2    1    2    0    0  0.00000000000E+00  0.00000000000E+00 -0.92828633897E+03  0.10311072131E+04  0.44885026208E+03 0.  0.
      99925    2    3    3    0    0 -0.15866295955E+02 -0.94219434234E+02 -0.69845752798E+03  0.75254333963E+03  0.26334296744E+03 0.  0.
         25    1    4    4    0    0 -0.46997326408E+02 -0.48066589389E+02 -0.39050747052E+03  0.41552706090E+03  0.12509000000E+03 0.  0.
         25    1    3    3    0    0  0.15866295955E+02  0.94219434234E+02 -0.22982881099E+03  0.27856387346E+03  0.12509000000E+03 0.  0.
         25    1    4    4    0    0  0.31131030453E+02 -0.46152844844E+02 -0.30795005746E+03  0.33701627873E+03  0.12509000000E+03 0.  0.
<mgrwt>
<rscale>  2 0.44885026E+03</rscale>
<asrwt>0</asrwt>
<pdfrwt beam="1">  1       21 0.75603591E-02 0.44885026E+03</pdfrwt>
<pdfrwt beam="2">  1       21 0.14407304E+00 0.44885026E+03</pdfrwt>
<totfact> 0.39857813E+04</totfact>
</mgrwt>
</event>
<event>
 7    0  0.4793433E-002  0.4564809E+03  0.7546771E-02  0.1025807E+00
         21   -1    0    0  502  501  0.00000000000E+00  0.00000000000E+00  0.42304312334E+03  0.42304312334E+03  0.00000000000E+00 0.  1.
         21   -1    0    0  501  502 -0.00000000000E+00 -0.00000000000E+00 -0.12314040777E+03  0.12314040777E+03  0.00000000000E+00 0.  1.
      99926    2    1    2    0    0 -0.35527136788E-14 -0.14210854715E-13  0.29990271557E+03  0.54618353112E+03  0.45648089868E+03 0.  0.
      99925    2    3    3    0    0 -0.23017755174E+02 -0.81494028287E+02  0.28033956044E+03  0.39386373976E+03  0.26337669344E+03 0.  0.
         25    1    4    4    0    0  0.17987969757E+02 -0.21887994509E+02  0.99194092984E+02  0.16214076459E+03  0.12509000000E+03 0.  0.
         25    1    4    4    0    0 -0.41005724931E+02 -0.59606033777E+02  0.18114546746E+03  0.23172297517E+03  0.12509000000E+03 0.  0.
         25    1    3    3    0    0  0.23017755174E+02  0.81494028287E+02  0.19563155126E+02  0.15231979135E+03  0.12509000000E+03 0.  0.
<mgrwt>
<rscale>  2 0.45648090E+03</rscale>
<asrwt>0</asrwt>
<pdfrwt beam="1">  1       21 0.62212223E-01 0.45648090E+03</pdfrwt>
<pdfrwt beam="2">  1       21 0.18108884E-01 0.45648090E+03</pdfrwt>
<totfact> 0.61396803E+04</totfact>
</mgrwt>
</event>
<event>
 7    0  0.4793433E-002  0.4410022E+03  0.7546771E-02  0.1030440E+00
         21   -1    0    0  502  501  0.00000000000E+00  0.00000000000E+00  0.17861133638E+04  0.17861133638E+04  0.00000000000E+00 0.  1.
         21   -1    0    0  501  502 -0.00000000000E+00 -0.00000000000E+00 -0.27221529683E+02  0.27221529683E+02  0.00000000000E+00 0.  1.
      99926    2    1    2    0    0  0.00000000000E+00  0.14210854715E-13  0.17588918341E+04  0.18133348935E+04  0.44100221292E+03 0.  0.
      99925    2    3    3    0    0 -0.28288194309E+01  0.67157224657E+02  0.81977595506E+03  0.86354321240E+03  0.26297560373E+03 0.  0.
         25    1    4    4    0    0 -0.48653820276E+01  0.24881928429E+02  0.52909374857E+03  0.54427059922E+03  0.12509000000E+03 0.  0.
         25    1    3    3    0    0  0.28288194309E+01 -0.67157224657E+02  0.93911587905E+03  0.94979168107E+03  0.12509000000E+03 0.  0.
         25    1    4    4    0    0  0.20365625968E+01  0.42275296228E+02  0.29068220649E+03  0.31927261318E+03  0.12509000000E+03 0.  0.
<mgrwt>
<rscale>  2 0.44100221E+03</rscale>
<asrwt>0</asrwt>
<pdfrwt beam="1">  1       21 0.26266365E+00 0.44100221E+03</pdfrwt>
<pdfrwt beam="2">  1       21 0.40031674E-02 0.44100221E+03</pdfrwt>
<totfact> 0.18984832E+04</totfact>
</mgrwt>
</event>
<event>
 7    0  0.4793433E-002  0.4589576E+03  0.7546771E-02  0.1025084E+00
         21   -1    0    0  502  501  0.00000000000E+00  0.00000000000E+00  0.13951101464E+03  0.13951101464E+03  0.00000000000E+00 0. -1.
         21   -1    0    0  501  502 -0.00000000000E+00 -0.00000000000E+00 -0.37746490895E+03  0.37746490895E+03  0.00000000000E+00 0. -1.
      99926    2    1    2    0    0  0.00000000000E+00  0.00000000000E+00 -0.23795389431E+03  0.51697592360E+03  0.45895756858E+03 0.  0.
      99925    2    3    3    0    0  0.76555168530E+02  0.47649054251E+02 -0.65920881757E+02  0.28594780473E+03  0.26322890832E+03 0.  0.
         25    1    4    4    0    0  0.23307313695E+02 -0.12666057029E+02 -0.45976668555E+02  0.13588606265E+03  0.12509000000E+03 0.  0.
         25    1    4    4    0    0  0.53247854835E+02  0.60315111280E+02 -0.19944213203E+02  0.15006174207E+03  0.12509000000E+03 0.  0.
         25    1    3    3    0    0 -0.76555168530E+02 -0.47649054251E+02 -0.17203301255E+03  0.23102811887E+03  0.12509000000E+03 0.  0.
<mgrwt>
<rscale>  2 0.45895757E+03</rscale>
<asrwt>0</asrwt>
<pdfrwt beam="1">  1       21 0.20516326E-01 0.45895757E+03</pdfrwt>
<pdfrwt beam="2">  1       21 0.55509545E-01 0.45895757E+03</pdfrwt>
<totfact> 0.62119919E+04</totfact>
</mgrwt>
</event>
<event>
 7    0  0.4793433E-002  0.4643580E+03  0.7546771E-02  0.1023525E+00
         21   -1    0    0  502  501  0.00000000000E+00  0.00000000000E+00  0.11720240925E+03  0.11720240925E+03  0.00000000000E+00 0.  1.
         21   -1    0    0  501  502 -0.00000000000E+00 -0.00000000000E+00 -0.45994861645E+03  0.45994861645E+03  0.00000000000E+00 0.  1.
      99926    2    1    2    0    0  0.71054273576E-14 -0.14210854715E-13 -0.34274620720E+03  0.57715102570E+03  0.46435799112E+03 0.  0.
      99925    2    3    3    0    0  0.55232523890E+02 -0.67916050129E+02 -0.31903543472E+03  0.42264235154E+03  0.26302039302E+03 0.  0.
         25    1    4    4    0    0 -0.13044142889E+02 -0.28025212567E+02 -0.15932929185E+03  0.20491191655E+03  0.12509000000E+03 0.  0.
         25    1    3    3    0    0 -0.55232523890E+02  0.67916050129E+02 -0.23710772480E+02  0.15450867416E+03  0.12509000000E+03 0.  0.
         25    1    4    4    0    0  0.68276666779E+02 -0.39890837563E+02 -0.15970614287E+03  0.21773043499E+03  0.12509000000E+03 0.  0.
<mgrwt>
<rscale>  2 0.46435799E+03</rscale>
<asrwt>0</asrwt>
<pdfrwt beam="1">  1       21 0.17235648E-01 0.46435799E+03</pdfrwt>
<pdfrwt beam="2">  1       21 0.67639503E-01 0.46435799E+03</pdfrwt>
<totfact> 0.55858119E+04</totfact>
</mgrwt>
</event>
<event>
 7    0  0.4793433E-002  0.4534561E+03  0.7546771E-02  0.1026696E+00
         21   -1    0    0  502  501  0.00000000000E+00  0.00000000000E+00  0.45003043300E+03  0.45003043300E+03  0.00000000000E+00 0. -1.
         21   -1    0    0  501  502 -0.00000000000E+00 -0.00000000000E+00 -0.11422695734E+03  0.11422695734E+03  0.00000000000E+00 0. -1.
      99926    2    1    2    0    0  0.71054273576E-14  0.00000000000E+00  0.33580347566E+03  0.56425739034E+03  0.45345609302E+03 0.  0.
      99925    2    3    3    0    0 -0.50250060527E+02  0.95833064385E+02  0.17715449250E+03  0.33507176085E+03  0.26302153123E+03 0.  0.
         25    1    3    3    0    0  0.50250060527E+02 -0.95833064385E+02  0.15864898315E+03  0.22918562950E+03  0.12509000000E+03 0.  0.
         25    1    4    4    0    0 -0.64337065074E+02  0.48139205988E+02  0.78084512620E+02  0.16793254689E+03  0.12509000000E+03 0.  0.
         25    1    4    4    0    0  0.14087004547E+02  0.47693858397E+02  0.99069979884E+02  0.16713921395E+03  0.12509000000E+03 0.  0.
<mgrwt>
<rscale>  2 0.45345609E+03</rscale>
<asrwt>0</asrwt>
<pdfrwt beam="1">  1       21 0.66180945E-01 0.45345609E+03</pdfrwt>
<pdfrwt beam="2">  1       21 0.16798082E-01 0.45345609E+03</pdfrwt>
<totfact> 0.61683850E+04</totfact>
</mgrwt>
</event>
<event>
 7    0  0.4793433E-002  0.4504391E+03  0.7546771E-02  0.1027591E+00
         21   -1    0    0  502  501  0.00000000000E+00  0.00000000000E+00  0.15557364152E+03  0.15557364152E+03  0.00000000000E+00 0. -1.
         21   -1    0    0  501  502 -0.00000000000E+00 -0.00000000000E+00 -0.32604393585E+03  0.32604393585E+03  0.00000000000E+00 0. -1.
      99926    2    1    2    0    0  0.88817841970E-15  0.00000000000E+00 -0.17047029432E+03  0.48161757737E+03  0.45043908532E+03 0.  0.
      99925    2    3    3    0    0 -0.31951461982E+01  0.67785398687E+02 -0.16828050422E+02  0.27219332747E+03  0.26306074395E+03 0.  0.
         25    1    3    3    0    0  0.31951461982E+01 -0.67785398687E+02 -0.15364224390E+03  0.20942424990E+03  0.12509000000E+03 0.  0.
         25    1    4    4    0    0 -0.18329334946E+02  0.50417461253E+01 -0.32304968581E+02  0.13058523201E+03  0.12509000000E+03 0.  0.
         25    1    4    4    0    0  0.15134188748E+02  0.62743652561E+02  0.15476918159E+02  0.14160809547E+03  0.12509000000E+03 0.  0.
<mgrwt>
<rscale>  2 0.45043909E+03</rscale>
<asrwt>0</asrwt>
<pdfrwt beam="1">  1       21 0.22878477E-01 0.45043909E+03</pdfrwt>
<pdfrwt beam="2">  1       21 0.47947637E-01 0.45043909E+03</pdfrwt>
<totfact> 0.69048842E+04</totfact>
</mgrwt>
</event>
<event>
 7    0  0.4793433E-002  0.4558052E+03  0.7546771E-02  0.1026005E+00
         21   -1    0    0  502  501  0.00000000000E+00  0.00000000000E+00  0.31736962986E+02  0.31736962986E+02  0.00000000000E+00 0.  1.
         21   -1    0    0  501  502 -0.00000000000E+00 -0.00000000000E+00 -0.16365646062E+04  0.16365646062E+04  0.00000000000E+00 0.  1.
      99926    2    1    2    0    0 -0.35527136788E-14  0.71054273576E-14 -0.16048276432E+04  0.16683015692E+04  0.45580517913E+03 0.  0.
      99925    2    3    3    0    0 -0.31203020122E+02  0.46274824594E+02 -0.64576885461E+03  0.69951043795E+03  0.26302557169E+03 0.  0.
         25    1    4    4    0    0 -0.19909466366E+02  0.25924325407E+02 -0.43003599559E+03  0.44905113640E+03  0.12509000000E+03 0.  0.
         25    1    3    3    0    0  0.31203020122E+02 -0.46274824594E+02 -0.95905878858E+03  0.96879113121E+03  0.12509000000E+03 0.  0.
         25    1    4    4    0    0 -0.11293553755E+02  0.20350499187E+02 -0.21573285902E+03  0.25045930156E+03  0.12509000000E+03 0.  0.
<mgrwt>
<rscale>  2 0.45580518E+03</rscale>
<asrwt>0</asrwt>
<pdfrwt beam="1">  1       21 0.46672017E-02 0.45580518E+03</pdfrwt>
<pdfrwt beam="2">  1       21 0.24067120E+00 0.45580518E+03</pdfrwt>
<totfact> 0.19805365E+04</totfact>
</mgrwt>
</event>
<event>
 7    0  0.4793433E-002  0.4552482E+03  0.7546771E-02  0.1026168E+00
         21   -1    0    0  502  501  0.00000000000E+00  0.00000000000E+00  0.37080315384E+03  0.37080315384E+03  0.00000000000E+00 0. -1.
         21   -1    0    0  501  502 -0.00000000000E+00 -0.00000000000E+00 -0.13973111339E+03  0.13973111339E+03  0.00000000000E+00 0. -1.
      99926    2    1    2    0    0  0.00000000000E+00  0.00000000000E+00  0.23107204045E+03  0.51053426724E+03  0.45524822915E+03 0.  0.
      99925    2    3    3    0    0 -0.16168164479E+02  0.10506143298E+03  0.10106974829E+03  0.30113651580E+03  0.26299960624E+03 0.  0.
         25    1    4    4    0    0  0.65466784226E+01  0.13777580161E+02  0.58529366827E+02  0.13894558501E+03  0.12509000000E+03 0.  0.
         25    1    4    4    0    0 -0.22714842901E+02  0.91283852819E+02  0.42540381466E+02  0.16219093078E+03  0.12509000000E+03 0.  0.
         25    1    3    3    0    0  0.16168164479E+02 -0.10506143298E+03  0.13000229216E+03  0.20939775144E+03  0.12509000000E+03 0.  0.
<mgrwt>
<rscale>  2 0.45524823E+03</rscale>
<asrwt>0</asrwt>
<pdfrwt beam="1">  1       21 0.54529876E-01 0.45524823E+03</pdfrwt>
<pdfrwt beam="2">  1       21 0.20548693E-01 0.45524823E+03</pdfrwt>
<totfact> 0.64409772E+04</totfact>
</mgrwt>
</event>
<event>
 7    0  0.4793433E-002  0.4441880E+03  0.7546771E-02  0.1029470E+00
         21   -1    0    0  502  501  0.00000000000E+00  0.00000000000E+00  0.16419160217E+04  0.16419160217E+04  0.00000000000E+00 0.  1.
         21   -1    0    0  501  502 -0.00000000000E+00 -0.00000000000E+00 -0.30041576238E+02  0.30041576238E+02  0.00000000000E+00 0.  1.
      99926    2    1    2    0    0  0.00000000000E+00  0.00000000000E+00  0.16118744455E+04  0.16719575979E+04  0.44418800228E+03 0.  0.
      99925    2    3    3    0    0  0.74424338970E+02 -0.43007454460E+02  0.81171187913E+03  0.85752757391E+03  0.26284737384E+03 0.  0.
         25    1    3    3    0    0 -0.74424338970E+02  0.43007454460E+02  0.80016256634E+03  0.81443002403E+03  0.12509000000E+03 0.  0.
         25    1    4    4    0    0  0.47059272369E+02 -0.48172298963E+02  0.51688564667E+03  0.53605356573E+03  0.12509000000E+03 0.  0.
         25    1    4    4    0    0  0.27365066601E+02  0.51648445027E+01  0.29482623246E+03  0.32147400818E+03  0.12509000000E+03 0.  0.
<mgrwt>
<rscale>  2 0.44418800E+03</rscale>
<asrwt>0</asrwt>
<pdfrwt beam="1">  1       21 0.24145818E+00 0.44418800E+03</pdfrwt>
<pdfrwt beam="2">  1       21 0.44178800E-02 0.44418800E+03</pdfrwt>
<totfact> 0.21609515E+04</totfact>
</mgrwt>
</event>
<event>
 7    0  0.4793433E-002  0.4529009E+03  0.7546771E-02  0.1026860E+00
         21   -1    0    0  502  501  0.00000000000E+00  0.00000000000E+00  0.32980842923E+03  0.32980842923E+03  0.00000000000E+00 0. -1.
         21   -1    0    0  501  502 -0.00000000000E+00 -0.00000000000E+00 -0.15548358634E+03  0.15548358634E+03  0.00000000000E+00 0. -1.
      99926    2    1    2    0    0  0.44408920985E-15  0.00000000000E+00  0.17432484289E+03  0.48529201557E+03  0.45290086060E+03 0.  0.
      99925    2    3    3    0    0  0.22002636865E+01 -0.11095546205E+03  0.10439945071E+03  0.30403798309E+03  0.26310434078E+03 0.  0.
         25    1    4    4    0    0  0.69084172519E+01 -0.14365541995E+02  0.60985531170E+02  0.14007440215E+03  0.12509000000E+03 0.  0.
         25    1    3    3    0    0 -0.22002636865E+01  0.11095546205E+03  0.69925392184E+02  0.18125403248E+03  0.12509000000E+03 0.  0.
         25    1    4    4    0    0 -0.47081535654E+01 -0.96589920051E+02  0.43413919537E+02  0.16396358094E+03  0.12509000000E+03 0.  0.
<mgrwt>
<rscale>  2 0.45290086E+03</rscale>
<asrwt>0</asrwt>
<pdfrwt beam="1">  1       21 0.48501239E-01 0.45290086E+03</pdfrwt>
<pdfrwt beam="2">  1       21 0.22865233E-01 0.45290086E+03</pdfrwt>
<totfact> 0.67433585E+04</totfact>
</mgrwt>
</event>
<event>
 7    0  0.4793433E-002  0.4632473E+03  0.7546771E-02  0.1023844E+00
         21   -1    0    0  502  501  0.00000000000E+00  0.00000000000E+00  0.13666170683E+03  0.13666170683E+03  0.00000000000E+00 0.  1.
         21   -1    0    0  501  502 -0.00000000000E+00 -0.00000000000E+00 -0.39257159361E+03  0.39257159361E+03  0.00000000000E+00 0.  1.
      99926    2    1    2    0    0  0.00000000000E+00  0.00000000000E+00 -0.25590988678E+03  0.52923330044E+03  0.46324725163E+03 0.  0.
      99925    2    3    3    0    0  0.39723967432E+02 -0.98060453570E+02 -0.22631246376E+03  0.36274798069E+03  0.26301125471E+03 0.  0.
         25    1    3    3    0    0 -0.39723967432E+02  0.98060453570E+02 -0.29597423025E+02  0.16648531975E+03  0.12509000000E+03 0.  0.
         25    1    4    4    0    0  0.19989901501E+02 -0.22011678474E+02 -0.65181663197E+02  0.14415362454E+03  0.12509000000E+03 0.  0.
         25    1    4    4    0    0  0.19734065931E+02 -0.76048775096E+02 -0.16113080056E+03  0.21859435615E+03  0.12509000000E+03 0.  0.
<mgrwt>
<rscale>  2 0.46324725E+03</rscale>
<asrwt>0</asrwt>
<pdfrwt beam="1">  1       21 0.20097310E-01 0.46324725E+03</pdfrwt>
<pdfrwt beam="2">  1       21 0.57731116E-01 0.46324725E+03</pdfrwt>
<totfact> 0.59286496E+04</totfact>
</mgrwt>
</event>
<event>
 7    0  0.4793433E-002  0.4484520E+03  0.7546771E-02  0.1028185E+00
         21   -1    0    0  502  501  0.00000000000E+00  0.00000000000E+00  0.24344665284E+03  0.24344665284E+03  0.00000000000E+00 0.  1.
         21   -1    0    0  501  502 -0.00000000000E+00 -0.00000000000E+00 -0.20652283827E+03  0.20652283827E+03  0.00000000000E+00 0.  1.
      99926    2    1    2    0    0 -0.44408920985E-15  0.71054273576E-14  0.36923814572E+02  0.44996949111E+03  0.44845197608E+03 0.  0.
      99925    2    3    3    0    0  0.33227188219E+01  0.58569090498E+02 -0.65792997802E+02  0.27780785059E+03  0.26345228120E+03 0.  0.
         25    1    4    4    0    0 -0.38986686789E+02  0.33118100066E+02 -0.39273449675E+02  0.14073621513E+03  0.12509000000E+03 0.  0.
         25    1    4    4    0    0  0.42309405611E+02  0.25450990433E+02 -0.26519548127E+02  0.13707163547E+03  0.12509000000E+03 0.  0.
         25    1    3    3    0    0 -0.33227188219E+01 -0.58569090498E+02  0.10271681237E+03  0.17216164052E+03  0.12509000000E+03 0.  0.
<mgrwt>
<rscale>  2 0.44845198E+03</rscale>
<asrwt>0</asrwt>
<pdfrwt beam="1">  1       21 0.35800978E-01 0.44845198E+03</pdfrwt>
<pdfrwt beam="2">  1       21 0.30371006E-01 0.44845198E+03</pdfrwt>
<totfact> 0.72637309E+04</totfact>
</mgrwt>
</event>
<event>
 7    0  0.4793433E-002  0.4425413E+03  0.7546771E-02  0.1029970E+00
         21   -1    0    0  502  501  0.00000000000E+00  0.00000000000E+00  0.47689713529E+03  0.47689713529E+03  0.00000000000E+00 0. -1.
         21   -1    0    0  501  502 -0.00000000000E+00 -0.00000000000E+00 -0.10266509929E+03  0.10266509929E+03  0.00000000000E+00 0. -1.
      99926    2    1    2    0    0  0.35527136788E-14  0.00000000000E+00  0.37423203600E+03  0.57956223457E+03  0.44254126019E+03 0.  0.
      99925    2    3    3    0    0  0.31234126467E+02  0.15999889183E+02  0.36235486075E+03  0.44910096637E+03  0.26298111296E+03 0.  0.
         25    1    4    4    0    0  0.55390457296E+02  0.71449748065E+01  0.17226290483E+03  0.22009354808E+03  0.12509000000E+03 0.  0.
         25    1    3    3    0    0 -0.31234126467E+02 -0.15999889183E+02  0.11877175254E+02  0.13046126821E+03  0.12509000000E+03 0.  0.
         25    1    4    4    0    0 -0.24156330830E+02  0.88549143769E+01  0.19009195591E+03  0.22900741829E+03  0.12509000000E+03 0.  0.
<mgrwt>
<rscale>  2 0.44254126E+03</rscale>
<asrwt>0</asrwt>
<pdfrwt beam="1">  1       21 0.70131931E-01 0.44254126E+03</pdfrwt>
<pdfrwt beam="2">  1       21 0.15097809E-01 0.44254126E+03</pdfrwt>
<totfact> 0.66241383E+04</totfact>
</mgrwt>
</event>
<event>
 7    0  0.4793433E-002  0.4607455E+03  0.7546771E-02  0.1024565E+00
         21   -1    0    0  502  501  0.00000000000E+00  0.00000000000E+00  0.13397245162E+03  0.13397245162E+03  0.00000000000E+00 0. -1.
         21   -1    0    0  501  502 -0.00000000000E+00 -0.00000000000E+00 -0.39613822069E+03  0.39613822069E+03  0.00000000000E+00 0. -1.
      99926    2    1    2    0    0 -0.14210854715E-13 -0.71054273576E-14 -0.26216576907E+03  0.53011067231E+03  0.46074552024E+03 0.  0.
      99925    2    3    3    0    0 -0.89868188541E+02  0.36123044515E+02 -0.85787694966E+02  0.29317629578E+03  0.26308106382E+03 0.  0.
         25    1    3    3    0    0  0.89868188541E+02 -0.36123044515E+02 -0.17637807411E+03  0.23693437653E+03  0.12509000000E+03 0.  0.
         25    1    4    4    0    0 -0.75279862333E+02  0.36392272612E+02 -0.22186695477E+02  0.15208948923E+03  0.12509000000E+03 0.  0.
         25    1    4    4    0    0 -0.14588326209E+02 -0.26922809703E+00 -0.63600999489E+02  0.14108680655E+03  0.12509000000E+03 0.  0.
<mgrwt>
<rscale>  2 0.46074552E+03</rscale>
<asrwt>0</asrwt>
<pdfrwt beam="1">  1       21 0.19701831E-01 0.46074552E+03</pdfrwt>
<pdfrwt beam="2">  1       21 0.58255620E-01 0.46074552E+03</pdfrwt>
<totfact> 0.60400931E+04</totfact>
</mgrwt>
</event>
<event>
 7    0  0.4793433E-002  0.4299232E+03  0.7546771E-02  0.1033884E+00
         21   -1    0    0  502  501  0.00000000000E+00  0.00000000000E+00  0.12575816112E+04  0.12575816112E+04  0.00000000000E+00 0.  1.
         21   -1    0    0  501  502 -0.00000000000E+00 -0.00000000000E+00 -0.36743924400E+02  0.36743924400E+02  0.00000000000E+00 0.  1.
      99926    2    1    2    0    0  0.00000000000E+00 -0.14210854715E-13  0.12208376868E+04  0.12943255356E+04  0.42992317290E+03 0.  0.
      99925    2    3    3    0    0 -0.32457907932E+02 -0.80921365273E+02  0.81306895766E+03  0.85898127216E+03  0.26299413086E+03 0.  0.
         25    1    4    4    0    0 -0.44493257194E+02 -0.26618574670E+02  0.48367284005E+03  0.50226996999E+03  0.12509000000E+03 0.  0.
         25    1    4    4    0    0  0.12035349262E+02 -0.54302790603E+02  0.32939611761E+03  0.35671130217E+03  0.12509000000E+03 0.  0.
         25    1    3    3    0    0  0.32457907932E+02  0.80921365273E+02  0.40776872913E+03  0.43534426343E+03  0.12509000000E+03 0.  0.
<mgrwt>
<rscale>  2 0.42992317E+03</rscale>
<asrwt>0</asrwt>
<pdfrwt beam="1">  1       21 0.18493844E+00 0.42992317E+03</pdfrwt>
<pdfrwt beam="2">  1       21 0.54035191E-02 0.42992317E+03</pdfrwt>
<totfact> 0.35762705E+04</totfact>
</mgrwt>
</event>
<event>
 7    0  0.4793433E-002  0.4406094E+03  0.7546771E-02  0.1030560E+00
         21   -1    0    0  502  501  0.00000000000E+00  0.00000000000E+00  0.37604437286E+02  0.37604437286E+02  0.00000000000E+00 0.  1.
         21   -1    0    0  501  502 -0.00000000000E+00 -0.00000000000E+00 -0.12906496973E+04  0.12906496973E+04  0.00000000000E+00 0.  1.
      99926    2    1    2    0    0  0.00000000000E+00 -0.17763568394E-14 -0.12530452600E+04  0.13282541346E+04  0.44060937621E+03 0.  0.
      99925    2    3    3    0    0 -0.88009076033E+02  0.12500335996E+02 -0.92906715201E+03  0.96976957644E+03  0.26341109046E+03 0.  0.
         25    1    4    4    0    0 -0.53373871461E+02 -0.12139132198E+02 -0.34700466863E+03  0.37290196679E+03  0.12509000000E+03 0.  0.
         25    1    4    4    0    0 -0.34635204572E+02  0.24639468194E+02 -0.58206248338E+03  0.59686760965E+03  0.12509000000E+03 0.  0.
         25    1    3    3    0    0  0.88009076033E+02 -0.12500335996E+02 -0.32397810801E+03  0.35848455815E+03  0.12509000000E+03 0.  0.
<mgrwt>
<rscale>  2 0.44060938E+03</rscale>
<asrwt>0</asrwt>
<pdfrwt beam="1">  1       21 0.55300647E-02 0.44060938E+03</pdfrwt>
<pdfrwt beam="2">  1       21 0.18980141E+00 0.44060938E+03</pdfrwt>
<totfact> 0.31707364E+04</totfact>
</mgrwt>
</event>
<event>
 7    0  0.4793433E-002  0.4349618E+03  0.7546771E-02  0.1032304E+00
         21   -1    0    0  502  501  0.00000000000E+00  0.00000000000E+00  0.30969639151E+03  0.30969639151E+03  0.00000000000E+00 0.  1.
         21   -1    0    0  501  502 -0.00000000000E+00 -0.00000000000E+00 -0.15272359746E+03  0.15272359746E+03  0.00000000000E+00 0.  1.
      99926    2    1    2    0    0  0.00000000000E+00  0.00000000000E+00  0.15697279406E+03  0.46241998897E+03  0.43496182376E+03 0.  0.
      99925    2    3    3    0    0 -0.70345711730E+02  0.54663702831E+02  0.12967232220E+03  0.30644094092E+03  0.26297243119E+03 0.  0.
         25    1    4    4    0    0 -0.66814798680E+02  0.46932470706E+02  0.92366326109E+02  0.17563006698E+03  0.12509000000E+03 0.  0.
         25    1    4    4    0    0 -0.35309130505E+01  0.77312321252E+01  0.37305996088E+02  0.13081087394E+03  0.12509000000E+03 0.  0.
         25    1    3    3    0    0  0.70345711730E+02 -0.54663702831E+02  0.27300471858E+02  0.15597904805E+03  0.12509000000E+03 0.  0.
<mgrwt>
<rscale>  2 0.43496182E+03</rscale>
<asrwt>0</asrwt>
<pdfrwt beam="1">  1       21 0.45543587E-01 0.43496182E+03</pdfrwt>
<pdfrwt beam="2">  1       21 0.22459352E-01 0.43496182E+03</pdfrwt>
<totfact> 0.79985326E+04</totfact>
</mgrwt>
</event>
<event>
 7    0  0.4793433E-002  0.4536174E+03  0.7546771E-02  0.1026649E+00
         21   -1    0    0  502  501  0.00000000000E+00  0.00000000000E+00  0.62290614142E+03  0.62290614142E+03  0.00000000000E+00 0.  1.
         21   -1    0    0  501  502 -0.00000000000E+00 -0.00000000000E+00 -0.82584180821E+02  0.82584180821E+02  0.00000000000E+00 0.  1.
      99926    2    1    2    0    0  0.14210854715E-13  0.14210854715E-13  0.54032196060E+03  0.70549032224E+03  0.45361743096E+03 0.  0.
      99925    2    3    3    0    0  0.49985435067E+02  0.99696263865E+02  0.35357523012E+03  0.45457253054E+03  0.26302633598E+03 0.  0.
         25    1    3    3    0    0 -0.49985435067E+02 -0.99696263865E+02  0.18674673048E+03  0.25091779170E+03  0.12509000000E+03 0.  0.
         25    1    4    4    0    0  0.57999549960E+02  0.71278711543E+02  0.21958238928E+03  0.26890246614E+03  0.12509000000E+03 0.  0.
         25    1    4    4    0    0 -0.80141148929E+01  0.28417552322E+02  0.13399284084E+03  0.18567006440E+03  0.12509000000E+03 0.  0.
<mgrwt>
<rscale>  2 0.45361743E+03</rscale>
<asrwt>0</asrwt>
<pdfrwt beam="1">  1       21 0.91603842E-01 0.45361743E+03</pdfrwt>
<pdfrwt beam="2">  1       21 0.12144733E-01 0.45361743E+03</pdfrwt>
<totfact> 0.53182085E+04</totfact>
</mgrwt>
</event>
<event>
 7    0  0.4793433E-002  0.4459492E+03  0.7546771E-02  0.1028937E+00
         21   -1    0    0  502  501  0.00000000000E+00  0.00000000000E+00  0.77716603404E+03  0.77716603404E+03  0.00000000000E+00 0. -1.
         21   -1    0    0  501  502 -0.00000000000E+00 -0.00000000000E+00 -0.63973028478E+02  0.63973028478E+02  0.00000000000E+00 0. -1.
      99926    2    1    2    0    0  0.00000000000E+00  0.00000000000E+00  0.71319300556E+03  0.84113906252E+03  0.44594916673E+03 0.  0.
      99925    2    3    3    0    0 -0.71506380422E+02 -0.50782700099E+02  0.55947990776E+03  0.62441972880E+03  0.26304027345E+03 0.  0.
         25    1    4    4    0    0 -0.56136038835E+01 -0.93019022090E+01  0.31316577366E+03  0.33739938919E+03  0.12509000000E+03 0.  0.
         25    1    4    4    0    0 -0.65892776539E+02 -0.41480797890E+02  0.24631413411E+03  0.28702033962E+03  0.12509000000E+03 0.  0.
         25    1    3    3    0    0  0.71506380422E+02  0.50782700099E+02  0.15371309780E+03  0.21671933371E+03  0.12509000000E+03 0.  0.
<mgrwt>
<rscale>  2 0.44594917E+03</rscale>
<asrwt>0</asrwt>
<pdfrwt beam="1">  1       21 0.11428912E+00 0.44594917E+03</pdfrwt>
<pdfrwt beam="2">  1       21 0.94077988E-02 0.44594917E+03</pdfrwt>
<totfact> 0.49242888E+04</totfact>
</mgrwt>
</event>
<event>
 7    0  0.4793433E-002  0.4549317E+03  0.7546771E-02  0.1026261E+00
         21   -1    0    0  502  501  0.00000000000E+00  0.00000000000E+00  0.22994622309E+03  0.22994622309E+03  0.00000000000E+00 0. -1.
         21   -1    0    0  501  502 -0.00000000000E+00 -0.00000000000E+00 -0.22501222404E+03  0.22501222404E+03  0.00000000000E+00 0. -1.
      99926    2    1    2    0    0  0.00000000000E+00  0.00000000000E+00  0.49339990504E+01  0.45495844713E+03  0.45493169187E+03 0.  0.
      99925    2    3    3    0    0 -0.72639981273E+02 -0.56569182265E+02 -0.62596950444E+02  0.28559323080E+03  0.26299900383E+03 0.  0.
         25    1    4    4    0    0 -0.73690778072E+02 -0.12610290862E+02 -0.25867417757E+02  0.14800669448E+03  0.12509000000E+03 0.  0.
         25    1    4    4    0    0  0.10507967990E+01 -0.43958891403E+02 -0.36729532686E+02  0.13758653633E+03  0.12509000000E+03 0.  0.
         25    1    3    3    0    0  0.72639981273E+02  0.56569182265E+02  0.67530949494E+02  0.16936521633E+03  0.12509000000E+03 0.  0.
<mgrwt>
<rscale>  2 0.45493169E+03</rscale>
<asrwt>0</asrwt>
<pdfrwt beam="1">  1       21 0.33815621E-01 0.45493169E+03</pdfrwt>
<pdfrwt beam="2">  1       21 0.33090033E-01 0.45493169E+03</pdfrwt>
<totfact> 0.68586209E+04</totfact>
</mgrwt>
</event>
<event>
 7    0  0.4793433E-002  0.4587736E+03  0.7546771E-02  0.1025138E+00
         21   -1    0    0  502  501  0.00000000000E+00  0.00000000000E+00  0.35825999092E+02  0.35825999092E+02  0.00000000000E+00 0. -1.
         21   -1    0    0  501  502 -0.00000000000E+00 -0.00000000000E+00 -0.14687183666E+04  0.14687183666E+04  0.00000000000E+00 0. -1.
      99926    2    1    2    0    0  0.00000000000E+00  0.00000000000E+00 -0.14328923675E+04  0.15045443657E+04  0.45877359500E+03 0.  0.
      99925    2    3    3    0    0 -0.38599729160E+02 -0.94521686248E+02 -0.10837191377E+04  0.11198448195E+04  0.26302274097E+03 0.  0.
         25    1    4    4    0    0 -0.38195824695E+02 -0.25732281013E+02 -0.40846446414E+03  0.42966475056E+03  0.12509000000E+03 0.  0.
         25    1    4    4    0    0 -0.40390446499E+00 -0.68789405235E+02 -0.67525467352E+03  0.69018006899E+03  0.12509000000E+03 0.  0.
         25    1    3    3    0    0  0.38599729160E+02  0.94521686248E+02 -0.34917322984E+03  0.38469954613E+03  0.12509000000E+03 0.  0.
<mgrwt>
<rscale>  2 0.45877360E+03</rscale>
<asrwt>0</asrwt>
<pdfrwt beam="1">  1       21 0.52685310E-02 0.45877360E+03</pdfrwt>
<pdfrwt beam="2">  1       21 0.21598792E+00 0.45877360E+03</pdfrwt>
<totfact> 0.22986809E+04</totfact>
</mgrwt>
</event>
<event>
 7    0  0.4793433E-002  0.4516528E+03  0.7546771E-02  0.1027230E+00
         21   -1    0    0  502  501  0.00000000000E+00  0.00000000000E+00  0.66534357789E+03  0.66534357789E+03  0.00000000000E+00 0.  1.
         21   -1    0    0  501  502 -0.00000000000E+00 -0.00000000000E+00 -0.76648456334E+02  0.76648456334E+02  0.00000000000E+00 0.  1.
      99926    2    1    2    0    0  0.00000000000E+00  0.00000000000E+00  0.58869512155E+03  0.74199203422E+03  0.45165277892E+03 0.  0.
      99925    2    3    3    0    0  0.36372343224E+02 -0.84546600615E+02  0.27283497605E+03  0.39001729842E+03  0.26306556955E+03 0.  0.
         25    1    4    4    0    0  0.16536234297E+02 -0.67489006041E+01  0.94069814561E+02  0.15752978390E+03  0.12509000000E+03 0.  0.
         25    1    4    4    0    0  0.19836108927E+02 -0.77797700011E+02  0.17876516149E+03  0.23248751452E+03  0.12509000000E+03 0.  0.
         25    1    3    3    0    0 -0.36372343224E+02  0.84546600615E+02  0.31586014551E+03  0.35197473581E+03  0.12509000000E+03 0.  0.
<mgrwt>
<rscale>  2 0.45165278E+03</rscale>
<asrwt>0</asrwt>
<pdfrwt beam="1">  1       21 0.97844641E-01 0.45165278E+03</pdfrwt>
<pdfrwt beam="2">  1       21 0.11271832E-01 0.45165278E+03</pdfrwt>
<totfact> 0.52037436E+04</totfact>
</mgrwt>
</event>
<event>
 7    0  0.4793433E-002  0.4586498E+03  0.7546771E-02  0.1025174E+00
         21   -1    0    0  502  501  0.00000000000E+00  0.00000000000E+00  0.63669368960E+03  0.63669368960E+03  0.00000000000E+00 0.  1.
         21   -1    0    0  501  502 -0.00000000000E+00 -0.00000000000E+00 -0.82598430213E+02  0.82598430213E+02  0.00000000000E+00 0.  1.
      99926    2    1    2    0    0  0.14210854715E-13  0.35527136788E-14  0.55409525939E+03  0.71929211981E+03  0.45864975433E+03 0.  0.
      99925    2    3    3    0    0 -0.11489477183E+03 -0.17505352151E+02  0.36152368366E+03  0.46192357895E+03  0.26299576611E+03 0.  0.
         25    1    4    4    0    0 -0.37478085323E+02  0.11534778506E+02  0.12048108707E+03  0.17804734886E+03  0.12509000000E+03 0.  0.
         25    1    3    3    0    0  0.11489477183E+03  0.17505352151E+02  0.19257157573E+03  0.25736854086E+03  0.12509000000E+03 0.  0.
         25    1    4    4    0    0 -0.77416686508E+02 -0.29040130658E+02  0.24104259659E+03  0.28387623009E+03  0.12509000000E+03 0.  0.
<mgrwt>
<rscale>  2 0.45864975E+03</rscale>
<asrwt>0</asrwt>
<pdfrwt beam="1">  1       21 0.93631422E-01 0.45864975E+03</pdfrwt>
<pdfrwt beam="2">  1       21 0.12146828E-01 0.45864975E+03</pdfrwt>
<totfact> 0.50405337E+04</totfact>
</mgrwt>
</event>
<event>
 7    0  0.4793433E-002  0.4540668E+03  0.7546771E-02  0.1026516E+00
         21   -1    0    0  502  501  0.00000000000E+00  0.00000000000E+00  0.91154351647E+02  0.91154351647E+02  0.00000000000E+00 0.  1.
         21   -1    0    0  501  502 -0.00000000000E+00 -0.00000000000E+00 -0.56546026391E+03  0.56546026391E+03  0.00000000000E+00 0.  1.
      99926    2    1    2    0    0 -0.14210854715E-13  0.00000000000E+00 -0.47430591227E+03  0.65661461556E+03  0.45406679570E+03 0.  0.
      99925    2    3    3    0    0  0.96367495554E+02  0.40692780431E+02 -0.35779274842E+03  0.45620148718E+03  0.26298583517E+03 0.  0.
         25    1    3    3    0    0 -0.96367495554E+02 -0.40692780431E+02 -0.11651316384E+03  0.20041312838E+03  0.12509000000E+03 0.  0.
         25    1    4    4    0    0  0.24161557560E+02  0.17346941712E+02 -0.11380457591E+03  0.17170814439E+03  0.12509000000E+03 0.  0.
         25    1    4    4    0    0  0.72205937994E+02  0.23345838719E+02 -0.24398817251E+03  0.28449334279E+03  0.12509000000E+03 0.  0.
<mgrwt>
<rscale>  2 0.45406680E+03</rscale>
<asrwt>0</asrwt>
<pdfrwt beam="1">  1       21 0.13405052E-01 0.45406680E+03</pdfrwt>
<pdfrwt beam="2">  1       21 0.83155918E-01 0.45406680E+03</pdfrwt>
<totfact> 0.55731009E+04</totfact>
</mgrwt>
</event>
<event>
 7    0  0.4793433E-002  0.4560087E+03  0.7546771E-02  0.1025945E+00
         21   -1    0    0  502  501  0.00000000000E+00  0.00000000000E+00  0.88517970600E+03  0.88517970600E+03  0.00000000000E+00 0.  1.
         21   -1    0    0  501  502 -0.00000000000E+00 -0.00000000000E+00 -0.58729303115E+02  0.58729303115E+02  0.00000000000E+00 0.  1.
      99926    2    1    2    0    0  0.14210854715E-13  0.00000000000E+00  0.82645040288E+03  0.94390900911E+03  0.45600871599E+03 0.  0.
      99925    2    3    3    0    0  0.79966094444E+02  0.80318441079E+02  0.54528240309E+03  0.61596300678E+03  0.26311955147E+03 0.  0.
         25    1    4    4    0    0  0.70206301265E+01  0.56842505239E+02  0.30225595984E+03  0.33209416286E+03  0.12509000000E+03 0.  0.
         25    1    4    4    0    0  0.72945464318E+02  0.23475935840E+02  0.24302644325E+03  0.28386884392E+03  0.12509000000E+03 0.  0.
         25    1    3    3    0    0 -0.79966094444E+02 -0.80318441079E+02  0.28116799979E+03  0.32794600233E+03  0.12509000000E+03 0.  0.
<mgrwt>
<rscale>  2 0.45600872E+03</rscale>
<asrwt>0</asrwt>
<pdfrwt beam="1">  1       21 0.13017348E+00 0.45600872E+03</pdfrwt>
<pdfrwt beam="2">  1       21 0.86366628E-02 0.45600872E+03</pdfrwt>
<totfact> 0.41063544E+04</totfact>
</mgrwt>
</event>
<event>
 7    0  0.4793433E-002  0.4559381E+03  0.7546771E-02  0.1025966E+00
         21   -1    0    0  502  501  0.00000000000E+00  0.00000000000E+00  0.65393397705E+03  0.65393397705E+03  0.00000000000E+00 0.  1.
         21   -1    0    0  501  502 -0.00000000000E+00 -0.00000000000E+00 -0.79472665844E+02  0.79472665844E+02  0.00000000000E+00 0.  1.
      99926    2    1    2    0    0  0.00000000000E+00  0.00000000000E+00  0.57446131121E+03  0.73340664290E+03  0.45593805036E+03 0.  0.
      99925    2    3    3    0    0  0.75493226996E+02  0.25919406076E+02  0.49227375117E+03  0.56377956352E+03  0.26295038927E+03 0.  0.
         25    1    3    3    0    0 -0.75493226996E+02 -0.25919406076E+02  0.82187560041E+02  0.16962707938E+03  0.12509000000E+03 0.  0.
         25    1    4    4    0    0  0.43512836965E+02  0.49772537461E+02  0.22115094548E+03  0.26253746638E+03  0.12509000000E+03 0.  0.
         25    1    4    4    0    0  0.31980390032E+02 -0.23853131386E+02  0.27112280569E+03  0.30124209714E+03  0.12509000000E+03 0.  0.
<mgrwt>
<rscale>  2 0.45593805E+03</rscale>
<asrwt>0</asrwt>
<pdfrwt beam="1">  1       21 0.96166759E-01 0.45593805E+03</pdfrwt>
<pdfrwt beam="2">  1       21 0.11687157E-01 0.45593805E+03</pdfrwt>
<totfact> 0.50751103E+04</totfact>
</mgrwt>
</event>
<event>
 7    0  0.4793433E-002  0.4547816E+03  0.7546771E-02  0.1026306E+00
         21   -1    0    0  502  501  0.00000000000E+00  0.00000000000E+00  0.26519309189E+03  0.26519309189E+03  0.00000000000E+00 0.  1.
         21   -1    0    0  501  502 -0.00000000000E+00 -0.00000000000E+00 -0.19497708652E+03  0.19497708652E+03  0.00000000000E+00 0.  1.
      99926    2    1    2    0    0  0.71054273576E-14  0.71054273576E-14  0.70216005363E+02  0.46017017841E+03  0.45478160219E+03 0.  0.
      99925    2    3    3    0    0 -0.53385024646E+02 -0.53778295455E+02 -0.40684817753E+02  0.27662572443E+03  0.26291533067E+03 0.  0.
         25    1    3    3    0    0  0.53385024646E+02  0.53778295455E+02  0.11090082312E+03  0.18354445398E+03  0.12509000000E+03 0.  0.
         25    1    4    4    0    0 -0.32540705893E+02  0.62784945921E-01  0.10441129113E+02  0.12967431033E+03  0.12509000000E+03 0.  0.
         25    1    4    4    0    0 -0.20844318752E+02 -0.53841080401E+02 -0.51125946867E+02  0.14695141410E+03  0.12509000000E+03 0.  0.
<mgrwt>
<rscale>  2 0.45478160E+03</rscale>
<asrwt>0</asrwt>
<pdfrwt beam="1">  1       21 0.38998984E-01 0.45478160E+03</pdfrwt>
<pdfrwt beam="2">  1       21 0.28673101E-01 0.45478160E+03</pdfrwt>
<totfact> 0.68287009E+04</totfact>
</mgrwt>
</event>
<event>
 7    0  0.4793433E-002  0.4581710E+03  0.7546771E-02  0.1025313E+00
         21   -1    0    0  502  501  0.00000000000E+00  0.00000000000E+00  0.98474958086E+03  0.98474958086E+03  0.00000000000E+00 0. -1.
         21   -1    0    0  501  502 -0.00000000000E+00 -0.00000000000E+00 -0.53292908571E+02  0.53292908571E+02  0.00000000000E+00 0. -1.
      99926    2    1    2    0    0  0.00000000000E+00 -0.14210854715E-13  0.93145667229E+03  0.10380424894E+04  0.45817101339E+03 0.  0.
      99925    2    3    3    0    0  0.87696308302E+02 -0.69783311002E+02  0.51791739381E+03  0.59169890436E+03  0.26326567120E+03 0.  0.
         25    1    3    3    0    0 -0.87696308302E+02  0.69783311002E+02  0.41353927848E+03  0.44634358507E+03  0.12509000000E+03 0.  0.
         25    1    4    4    0    0  0.16805811493E+02 -0.17972822436E+01  0.25207562080E+03  0.28191362547E+03  0.12509000000E+03 0.  0.
         25    1    4    4    0    0  0.70890496809E+02 -0.67986028759E+02  0.26584177301E+03  0.30978527889E+03  0.12509000000E+03 0.  0.
<mgrwt>
<rscale>  2 0.45817101E+03</rscale>
<asrwt>0</asrwt>
<pdfrwt beam="1">  1       21 0.14481610E+00 0.45817101E+03</pdfrwt>
<pdfrwt beam="2">  1       21 0.78371931E-02 0.45817101E+03</pdfrwt>
<totfact> 0.36799827E+04</totfact>
</mgrwt>
</event>
<event>
 7    0  0.4793433E-002  0.4532676E+03  0.7546771E-02  0.1026752E+00
         21   -1    0    0  502  501  0.00000000000E+00  0.00000000000E+00  0.13335298115E+03  0.13335298115E+03  0.00000000000E+00 0. -1.
         21   -1    0    0  501  502 -0.00000000000E+00 -0.00000000000E+00 -0.38516483578E+03  0.38516483578E+03  0.00000000000E+00 0. -1.
      99926    2    1    2    0    0  0.00000000000E+00 -0.14210854715E-13 -0.25181185462E+03  0.51851781693E+03  0.45326759904E+03 0.  0.
      99925    2    3    3    0    0 -0.13562822207E+02  0.75327046394E+02 -0.65762488234E+02  0.28162123844E+03  0.26292147691E+03 0.  0.
         25    1    3    3    0    0  0.13562822207E+02 -0.75327046394E+02 -0.18604936639E+03  0.23689657849E+03  0.12509000000E+03 0.  0.
         25    1    4    4    0    0 -0.15702175946E+02  0.91732830505E+00 -0.12806535213E+02  0.12672377545E+03  0.12509000000E+03 0.  0.
         25    1    4    4    0    0  0.21393537391E+01  0.74409718089E+02 -0.52955953021E+02  0.15489746299E+03  0.12509000000E+03 0.  0.
<mgrwt>
<rscale>  2 0.45326760E+03</rscale>
<asrwt>0</asrwt>
<pdfrwt beam="1">  1       21 0.19610733E-01 0.45326760E+03</pdfrwt>
<pdfrwt beam="2">  1       21 0.56641887E-01 0.45326760E+03</pdfrwt>
<totfact> 0.64875483E+04</totfact>
</mgrwt>
</event>
<event>
 7    0  0.4793433E-002  0.4712774E+03  0.7546771E-02  0.1021560E+00
         21   -1    0    0  502  501  0.00000000000E+00  0.00000000000E+00  0.84248409270E+02  0.84248409270E+02  0.00000000000E+00 0. -1.
         21   -1    0    0  501  502 -0.00000000000E+00 -0.00000000000E+00 -0.65907001283E+03  0.65907001283E+03  0.00000000000E+00 0. -1.
      99926    2    1    2    0    0  0.00000000000E+00  0.00000000000E+00 -0.57482160356E+03  0.74331842210E+03  0.47127741375E+03 0.  0.
      99925    2    3    3    0    0  0.10533438629E+03 -0.66145061311E+02 -0.40120036719E+03  0.49580611152E+03  0.26342259492E+03 0.  0.
         25    1    4    4    0    0  0.63638984900E+02 -0.21533645936E+02 -0.13767629166E+03  0.19777736900E+03  0.12509000000E+03 0.  0.
         25    1    4    4    0    0  0.41695401389E+02 -0.44611415374E+02 -0.26352407553E+03  0.29802874251E+03  0.12509000000E+03 0.  0.
         25    1    3    3    0    0 -0.10533438629E+03  0.66145061311E+02 -0.17362123637E+03  0.24751231058E+03  0.12509000000E+03 0.  0.
<mgrwt>
<rscale>  2 0.47127741E+03</rscale>
<asrwt>0</asrwt>
<pdfrwt beam="1">  1       21 0.12389472E-01 0.47127741E+03</pdfrwt>
<pdfrwt beam="2">  1       21 0.96922058E-01 0.47127741E+03</pdfrwt>
<totfact> 0.44623319E+04</totfact>
</mgrwt>
</event>
<event>
 7    0  0.4793433E-002  0.4524185E+03  0.7546771E-02  0.1027003E+00
         21   -1    0    0  502  501  0.00000000000E+00  0.00000000000E+00  0.48962833037E+02  0.48962833037E+02  0.00000000000E+00 0.  1.
         21   -1    0    0  501  502 -0.00000000000E+00 -0.00000000000E+00 -0.10450911425E+04  0.10450911425E+04  0.00000000000E+00 0.  1.
      99926    2    1    2    0    0  0.00000000000E+00  0.00000000000E+00 -0.99612830951E+03  0.10940539756E+04  0.45241849264E+03 0.  0.
      99925    2    3    3    0    0  0.48173085220E+02  0.97674128909E+02 -0.67191029900E+03  0.72987584879E+03  0.26342821250E+03 0.  0.
         25    1    3    3    0    0 -0.48173085220E+02 -0.97674128909E+02 -0.32421801051E+03  0.36417812679E+03  0.12509000000E+03 0.  0.
         25    1    4    4    0    0 -0.70295605795E+00  0.14759112827E+02 -0.26449021904E+03  0.29295206029E+03  0.12509000000E+03 0.  0.
         25    1    4    4    0    0  0.48876041278E+02  0.82915016082E+02 -0.40742007996E+03  0.43692378850E+03  0.12509000000E+03 0.  0.
<mgrwt>
<rscale>  2 0.45241849E+03</rscale>
<asrwt>0</asrwt>
<pdfrwt beam="1">  1       21 0.72004171E-02 0.45241849E+03</pdfrwt>
<pdfrwt beam="2">  1       21 0.15368986E+00 0.45241849E+03</pdfrwt>
<totfact> 0.36429289E+04</totfact>
</mgrwt>
</event>
<event>
 7    0  0.4793433E-002  0.4645222E+03  0.7546771E-02  0.1023478E+00
         21   -1    0    0  502  501  0.00000000000E+00  0.00000000000E+00  0.24215198308E+03  0.24215198308E+03  0.00000000000E+00 0. -1.
         21   -1    0    0  501  502 -0.00000000000E+00 -0.00000000000E+00 -0.22277417027E+03  0.22277417027E+03  0.00000000000E+00 0. -1.
      99926    2    1    2    0    0  0.14210854715E-13  0.00000000000E+00  0.19377812812E+02  0.46492615335E+03  0.46452215064E+03 0.  0.
      99925    2    3    3    0    0 -0.68509610471E+02 -0.95858775952E+02  0.43221047020E+02  0.29143701947E+03  0.26303042744E+03 0.  0.
         25    1    4    4    0    0 -0.33318424138E+02 -0.38556539578E+02 -0.18971566605E+02  0.13639704018E+03  0.12509000000E+03 0.  0.
         25    1    4    4    0    0 -0.35191186333E+02 -0.57302236374E+02  0.62192613626E+02  0.15503997929E+03  0.12509000000E+03 0.  0.
         25    1    3    3    0    0  0.68509610471E+02  0.95858775952E+02 -0.23843234209E+02  0.17348913387E+03  0.12509000000E+03 0.  0.
<mgrwt>
<rscale>  2 0.46452215E+03</rscale>
<asrwt>0</asrwt>
<pdfrwt beam="1">  1       21 0.35610586E-01 0.46452215E+03</pdfrwt>
<pdfrwt beam="2">  1       21 0.32760907E-01 0.46452215E+03</pdfrwt>
<totfact> 0.62907597E+04</totfact>
</mgrwt>
</event>
<event>
 7    0  0.4793433E-002  0.4459503E+03  0.7546771E-02  0.1028937E+00
         21   -1    0    0  502  501  0.00000000000E+00  0.00000000000E+00  0.22299513457E+03  0.22299513457E+03  0.00000000000E+00 0. -1.
         21   -1    0    0  501  502 -0.00000000000E+00 -0.00000000000E+00 -0.22295520734E+03  0.22295520734E+03  0.00000000000E+00 0. -1.
      99926    2    1    2    0    0  0.35527136788E-14  0.00000000000E+00  0.39927228837E-01  0.44595034192E+03  0.44595034013E+03 0.  0.
      99925    2    3    3    0    0 -0.30272427579E+02 -0.14641168693E+02  0.98925530684E+02  0.28298821637E+03  0.26299293962E+03 0.  0.
         25    1    4    4    0    0 -0.49150867160E+02 -0.19112692127E+01  0.73949819249E+02  0.15341298693E+03  0.12509000000E+03 0.  0.
         25    1    4    4    0    0  0.18878439581E+02 -0.12729899480E+02  0.24975711435E+02  0.12957522944E+03  0.12509000000E+03 0.  0.
         25    1    3    3    0    0  0.30272427579E+02  0.14641168693E+02 -0.98885603455E+02  0.16296212555E+03  0.12509000000E+03 0.  0.
<mgrwt>
<rscale>  2 0.44595034E+03</rscale>
<asrwt>0</asrwt>
<pdfrwt beam="1">  1       21 0.32793402E-01 0.44595034E+03</pdfrwt>
<pdfrwt beam="2">  1       21 0.32787530E-01 0.44595034E+03</pdfrwt>
<totfact> 0.74445944E+04</totfact>
</mgrwt>
</event>
<event>
 7    0  0.4793433E-002  0.4541115E+03  0.7546771E-02  0.1026503E+00
         21   -1    0    0  502  501  0.00000000000E+00  0.00000000000E+00  0.10406716942E+04  0.10406716942E+04  0.00000000000E+00 0. -1.
         21   -1    0    0  501  502 -0.00000000000E+00 -0.00000000000E+00 -0.49539461103E+02  0.49539461103E+02  0.00000000000E+00 0. -1.
      99926    2    1    2    0    0  0.00000000000E+00  0.00000000000E+00  0.99113223314E+03  0.10902111553E+04  0.45411150577E+03 0.  0.
      99925    2    3    3    0    0 -0.44471871392E+02 -0.90310679437E+02  0.74386815885E+03  0.79538782401E+03  0.26299845374E+03 0.  0.
         25    1    3    3    0    0  0.44471871392E+02  0.90310679437E+02  0.24726407429E+03  0.29482333133E+03  0.12509000000E+03 0.  0.
         25    1    4    4    0    0 -0.34889102605E+02 -0.27397073365E+02  0.26503222673E+03  0.29640755458E+03  0.12509000000E+03 0.  0.
         25    1    4    4    0    0 -0.95827687865E+01 -0.62913606071E+02  0.47883593213E+03  0.49898026943E+03  0.12509000000E+03 0.  0.
<mgrwt>
<rscale>  2 0.45411151E+03</rscale>
<asrwt>0</asrwt>
<pdfrwt beam="1">  1       21 0.15303994E+00 0.45411151E+03</pdfrwt>
<pdfrwt beam="2">  1       21 0.72852155E-02 0.45411151E+03</pdfrwt>
<totfact> 0.36085036E+04</totfact>
</mgrwt>
</event>
<event>
 7    0  0.4793433E-002  0.4759551E+03  0.7546771E-02  0.1020253E+00
         21   -1    0    0  502  501  0.00000000000E+00  0.00000000000E+00  0.29481844350E+03  0.29481844350E+03  0.00000000000E+00 0.  1.
         21   -1    0    0  501  502 -0.00000000000E+00 -0.00000000000E+00 -0.19209555380E+03  0.19209555380E+03  0.00000000000E+00 0.  1.
      99926    2    1    2    0    0  0.14210854715E-13  0.00000000000E+00  0.10272288970E+03  0.48691399730E+03  0.47595509105E+03 0.  0.
      99925    2    3    3    0    0 -0.10607086877E+03  0.61773225491E+02  0.11262782259E+03  0.31137888291E+03  0.26306809330E+03 0.  0.
         25    1    3    3    0    0  0.10607086877E+03 -0.61773225491E+02 -0.99049328929E+01  0.17553511439E+03  0.12509000000E+03 0.  0.
         25    1    4    4    0    0 -0.75490165024E+02  0.11106237704E+02  0.87708987663E+02  0.17077027888E+03  0.12509000000E+03 0.  0.
         25    1    4    4    0    0 -0.30580703746E+02  0.50666987787E+02  0.24918834928E+02  0.14060860403E+03  0.12509000000E+03 0.  0.
<mgrwt>
<rscale>  2 0.47595509E+03</rscale>
<asrwt>0</asrwt>
<pdfrwt beam="1">  1       21 0.43355654E-01 0.47595509E+03</pdfrwt>
<pdfrwt beam="2">  1       21 0.28249346E-01 0.47595509E+03</pdfrwt>
<totfact> 0.56244802E+04</totfact>
</mgrwt>
</event>
<event>
 7    0  0.4793433E-002  0.4542245E+03  0.7546771E-02  0.1026470E+00
         21   -1    0    0  502  501  0.00000000000E+00  0.00000000000E+00  0.10533775503E+04  0.10533775503E+04  0.00000000000E+00 0.  1.
         21   -1    0    0  501  502 -0.00000000000E+00 -0.00000000000E+00 -0.48966275031E+02  0.48966275031E+02  0.00000000000E+00 0.  1.
      99926    2    1    2    0    0  0.00000000000E+00  0.00000000000E+00  0.10044112753E+04  0.11023438254E+04  0.45422450326E+03 0.  0.
      99925    2    3    3    0    0  0.11889525194E+02 -0.45496798490E+02  0.88037179700E+03  0.92001275352E+03  0.26297841396E+03 0.  0.
         25    1    4    4    0    0 -0.94917963426E+01 -0.59949783544E+02  0.43406728978E+03  0.45579160907E+03  0.12509000000E+03 0.  0.
         25    1    4    4    0    0  0.21381321536E+02  0.14452985054E+02  0.44630450722E+03  0.46422114445E+03  0.12509000000E+03 0.  0.
         25    1    3    3    0    0 -0.11889525194E+02  0.45496798490E+02  0.12403947830E+03  0.18233107185E+03  0.12509000000E+03 0.  0.
<mgrwt>
<rscale>  2 0.45422450E+03</rscale>
<asrwt>0</asrwt>
<pdfrwt beam="1">  1       21 0.15490845E+00 0.45422450E+03</pdfrwt>
<pdfrwt beam="2">  1       21 0.72009235E-02 0.45422450E+03</pdfrwt>
<totfact> 0.35628084E+04</totfact>
</mgrwt>
</event>
<event>
 7    0  0.4793433E-002  0.4548790E+03  0.7546771E-02  0.1026277E+00
         21   -1    0    0  502  501  0.00000000000E+00  0.00000000000E+00  0.24374744212E+03  0.24374744212E+03  0.00000000000E+00 0. -1.
         21   -1    0    0  501  502 -0.00000000000E+00 -0.00000000000E+00 -0.21222264014E+03  0.21222264014E+03  0.00000000000E+00 0. -1.
      99926    2    1    2    0    0  0.00000000000E+00  0.00000000000E+00  0.31524801989E+02  0.45597008226E+03  0.45487899795E+03 0.  0.
      99925    2    3    3    0    0  0.94647056825E+02  0.53582022929E+02  0.51050186639E+02  0.28906337990E+03  0.26291142519E+03 0.  0.
         25    1    4    4    0    0  0.29580958346E+02 -0.88011540086E+01  0.37999609267E+02  0.13432785196E+03  0.12509000000E+03 0.  0.
         25    1    4    4    0    0  0.65066098479E+02  0.62383176938E+02  0.13050577372E+02  0.15473552794E+03  0.12509000000E+03 0.  0.
         25    1    3    3    0    0 -0.94647056825E+02 -0.53582022929E+02 -0.19525384650E+02  0.16690670236E+03  0.12509000000E+03 0.  0.
<mgrwt>
<rscale>  2 0.45487900E+03</rscale>
<asrwt>0</asrwt>
<pdfrwt beam="1">  1       21 0.35845212E-01 0.45487900E+03</pdfrwt>
<pdfrwt beam="2">  1       21 0.31209212E-01 0.45487900E+03</pdfrwt>
<totfact> 0.68540969E+04</totfact>
</mgrwt>
</event>
<event>
 7    0  0.4793433E-002  0.4504260E+03  0.7546771E-02  0.1027595E+00
         21   -1    0    0  502  501  0.00000000000E+00  0.00000000000E+00  0.98109883136E+03  0.98109883136E+03  0.00000000000E+00 0. -1.
         21   -1    0    0  501  502 -0.00000000000E+00 -0.00000000000E+00 -0.51698045051E+02  0.51698045051E+02  0.00000000000E+00 0. -1.
      99926    2    1    2    0    0  0.35527136788E-14  0.00000000000E+00  0.92940078631E+03  0.10327968764E+04  0.45042598319E+03 0.  0.
      99925    2    3    3    0    0 -0.28149966380E+02 -0.92353499371E+02  0.70250547896E+03  0.75629989984E+03  0.26297148340E+03 0.  0.
         25    1    3    3    0    0  0.28149966380E+02  0.92353499371E+02  0.22689530735E+03  0.27649697657E+03  0.12509000000E+03 0.  0.
         25    1    4    4    0    0 -0.48972789482E+02 -0.59716857460E+02  0.41826128252E+03  0.44334461284E+03  0.12509000000E+03 0.  0.
         25    1    4    4    0    0  0.20822823103E+02 -0.32636641911E+02  0.28424419643E+03  0.31295528700E+03  0.12509000000E+03 0.  0.
<mgrwt>
<rscale>  2 0.45042598E+03</rscale>
<asrwt>0</asrwt>
<pdfrwt beam="1">  1       21 0.14427923E+00 0.45042598E+03</pdfrwt>
<pdfrwt beam="2">  1       21 0.76026543E-02 0.45042598E+03</pdfrwt>
<totfact> 0.39299695E+04</totfact>
</mgrwt>
</event>
<event>
 7    0  0.4793433E-002  0.4574034E+03  0.7546771E-02  0.1025537E+00
         21   -1    0    0  502  501  0.00000000000E+00  0.00000000000E+00  0.17332380424E+03  0.17332380424E+03  0.00000000000E+00 0.  1.
         21   -1    0    0  501  502 -0.00000000000E+00 -0.00000000000E+00 -0.30177311750E+03  0.30177311750E+03  0.00000000000E+00 0.  1.
      99926    2    1    2    0    0 -0.15543122345E-14  0.00000000000E+00 -0.12844931326E+03  0.47509692174E+03  0.45740338758E+03 0.  0.
      99925    2    3    3    0    0 -0.18531101366E+01 -0.63993293699E+02  0.19071697402E+02  0.27136049312E+03  0.26300990843E+03 0.  0.
         25    1    4    4    0    0  0.16676253870E+02 -0.18988654142E+02 -0.25084573711E+02  0.13005925714E+03  0.12509000000E+03 0.  0.
         25    1    3    3    0    0  0.18531101366E+01  0.63993293699E+02 -0.14752101067E+03  0.20373642861E+03  0.12509000000E+03 0.  0.
         25    1    4    4    0    0 -0.18529364007E+02 -0.45004639557E+02  0.44156271114E+02  0.14130123598E+03  0.12509000000E+03 0.  0.
<mgrwt>
<rscale>  2 0.45740339E+03</rscale>
<asrwt>0</asrwt>
<pdfrwt beam="1">  1       21 0.25488795E-01 0.45740339E+03</pdfrwt>
<pdfrwt beam="2">  1       21 0.44378399E-01 0.45740339E+03</pdfrwt>
<totfact> 0.65795011E+04</totfact>
</mgrwt>
</event>
<event>
 7    0  0.4793433E-002  0.4543939E+03  0.7546771E-02  0.1026420E+00
         21   -1    0    0  502  501  0.00000000000E+00  0.00000000000E+00  0.62224299947E+02  0.62224299947E+02  0.00000000000E+00 0.  1.
         21   -1    0    0  501  502 -0.00000000000E+00 -0.00000000000E+00 -0.82955458506E+03  0.82955458506E+03  0.00000000000E+00 0.  1.
      99926    2    1    2    0    0  0.00000000000E+00  0.00000000000E+00 -0.76733028511E+03  0.89177888501E+03  0.45439389663E+03 0.  0.
      99925    2    3    3    0    0  0.16181268123E+02 -0.11175558164E+03 -0.48953142076E+03  0.56686218707E+03  0.26256538947E+03 0.  0.
         25    1    4    4    0    0  0.31689108529E+02 -0.27493574537E+02 -0.19254550069E+03  0.23341245506E+03  0.12509000000E+03 0.  0.
         25    1    4    4    0    0 -0.15507840406E+02 -0.84262007105E+02 -0.29698592007E+03  0.33344973201E+03  0.12509000000E+03 0.  0.
         25    1    3    3    0    0 -0.16181268123E+02  0.11175558164E+03 -0.27779886435E+03  0.32491669794E+03  0.12509000000E+03 0.  0.
<mgrwt>
<rscale>  2 0.45439390E+03</rscale>
<asrwt>0</asrwt>
<pdfrwt beam="1">  1       21 0.91506321E-02 0.45439390E+03</pdfrwt>
<pdfrwt beam="2">  1       21 0.12199332E+00 0.45439390E+03</pdfrwt>
<totfact> 0.43798547E+04</totfact>
</mgrwt>
</event>
<event>
 7    0  0.4793433E-002  0.4361720E+03  0.7546771E-02  0.1031928E+00
         21   -1    0    0  502  501  0.00000000000E+00  0.00000000000E+00  0.16735551996E+03  0.16735551996E+03  0.00000000000E+00 0. -1.
         21   -1    0    0  501  502 -0.00000000000E+00 -0.00000000000E+00 -0.28419439497E+03  0.28419439497E+03  0.00000000000E+00 0. -1.
      99926    2    1    2    0    0 -0.71054273576E-14  0.00000000000E+00 -0.11683887501E+03  0.45154991493E+03  0.43617198782E+03 0.  0.
      99925    2    3    3    0    0  0.63622560135E+02  0.68250984002E+02 -0.88191414909E+02  0.29288608148E+03  0.26324609035E+03 0.  0.
         25    1    4    4    0    0 -0.58886472213E+00  0.59194986741E+02 -0.43001890334E+02  0.14491743818E+03  0.12509000000E+03 0.  0.
         25    1    4    4    0    0  0.64211424857E+02  0.90559972614E+01 -0.45189524575E+02  0.14796864330E+03  0.12509000000E+03 0.  0.
         25    1    3    3    0    0 -0.63622560135E+02 -0.68250984002E+02 -0.28647460099E+02  0.15866383345E+03  0.12509000000E+03 0.  0.
<mgrwt>
<rscale>  2 0.43617199E+03</rscale>
<asrwt>0</asrwt>
<pdfrwt beam="1">  1       21 0.24611106E-01 0.43617199E+03</pdfrwt>
<pdfrwt beam="2">  1       21 0.41793293E-01 0.43617199E+03</pdfrwt>
<totfact> 0.80150906E+04</totfact>
</mgrwt>
</event>
<event>
 7    0  0.4793433E-002  0.4279629E+03  0.7546771E-02  0.1034505E+00
         21   -1    0    0  502  501  0.00000000000E+00  0.00000000000E+00  0.39589816614E+03  0.39589816614E+03  0.00000000000E+00 0.  1.
         21   -1    0    0  501  502 -0.00000000000E+00 -0.00000000000E+00 -0.11565613315E+03  0.11565613315E+03  0.00000000000E+00 0.  1.
      99926    2    1    2    0    0  0.00000000000E+00  0.00000000000E+00  0.28024203299E+03  0.51155429929E+03  0.42796285361E+03 0.  0.
      99925    2    3    3    0    0  0.25621329563E+01  0.84931791699E+02  0.17192579560E+03  0.32554384488E+03  0.26305957877E+03 0.  0.
         25    1    4    4    0    0  0.65113982563E+01  0.47262944818E+02  0.13408101557E+03  0.18947667692E+03  0.12509000000E+03 0.  0.
         25    1    3    3    0    0 -0.25621329563E+01 -0.84931791699E+02  0.10831623739E+03  0.18601045441E+03  0.12509000000E+03 0.  0.
         25    1    4    4    0    0 -0.39492653000E+01  0.37668846881E+02  0.37844780024E+02  0.13606716796E+03  0.12509000000E+03 0.  0.
<mgrwt>
<rscale>  2 0.42796285E+03</rscale>
<asrwt>0</asrwt>
<pdfrwt beam="1">  1       21 0.58220318E-01 0.42796285E+03</pdfrwt>
<pdfrwt beam="2">  1       21 0.17008255E-01 0.42796285E+03</pdfrwt>
<totfact> 0.80352960E+04</totfact>
</mgrwt>
</event>
<event>
 7    0  0.4793433E-002  0.4503482E+03  0.7546771E-02  0.1027618E+00
         21   -1    0    0  502  501  0.00000000000E+00  0.00000000000E+00  0.13041066302E+03  0.13041066302E+03  0.00000000000E+00 0.  1.
         21   -1    0    0  501  502 -0.00000000000E+00 -0.00000000000E+00 -0.38879771249E+03  0.38879771249E+03  0.00000000000E+00 0.  1.
      99926    2    1    2    0    0 -0.35527136788E-14  0.71054273576E-14 -0.25838704947E+03  0.51920837552E+03  0.45034816517E+03 0.  0.
      99925    2    3    3    0    0  0.13668548123E+02 -0.48038343363E+02 -0.27464433474E+03  0.38353848547E+03  0.26301662988E+03 0.  0.
         25    1    4    4    0    0  0.38454872638E+02 -0.93734175509E+01 -0.16611392455E+03  0.21167896025E+03  0.12509000000E+03 0.  0.
         25    1    3    3    0    0 -0.13668548123E+02  0.48038343363E+02  0.16257285267E+02  0.13566989005E+03  0.12509000000E+03 0.  0.
         25    1    4    4    0    0 -0.24786324514E+02 -0.38664925813E+02 -0.10853041019E+03  0.17185952521E+03  0.12509000000E+03 0.  0.
<mgrwt>
<rscale>  2 0.45034817E+03</rscale>
<asrwt>0</asrwt>
<pdfrwt beam="1">  1       21 0.19178039E-01 0.45034817E+03</pdfrwt>
<pdfrwt beam="2">  1       21 0.57176134E-01 0.45034817E+03</pdfrwt>
<totfact> 0.66356433E+04</totfact>
</mgrwt>
</event>
<event>
 7    0  0.4793433E-002  0.4619387E+03  0.7546771E-02  0.1024220E+00
         21   -1    0    0  502  501  0.00000000000E+00  0.00000000000E+00  0.25123101751E+03  0.25123101751E+03  0.00000000000E+00 0.  1.
         21   -1    0    0  501  502 -0.00000000000E+00 -0.00000000000E+00 -0.21234178257E+03  0.21234178257E+03  0.00000000000E+00 0.  1.
      99926    2    1    2    0    0 -0.35527136788E-14  0.00000000000E+00  0.38889234937E+02  0.46357280008E+03  0.46193870630E+03 0.  0.
      99925    2    3    3    0    0 -0.25884715332E+02 -0.86301637565E+02  0.10335056463E+03  0.29647773055E+03  0.26286824527E+03 0.  0.
         25    1    4    4    0    0 -0.40494496307E+02 -0.29379394292E+02  0.78893264743E+02  0.15612369571E+03  0.12509000000E+03 0.  0.
         25    1    3    3    0    0  0.25884715332E+02  0.86301637565E+02 -0.64461329694E+02  0.16709506953E+03  0.12509000000E+03 0.  0.
         25    1    4    4    0    0  0.14609780974E+02 -0.56922243272E+02  0.24457299888E+02  0.14035403484E+03  0.12509000000E+03 0.  0.
<mgrwt>
<rscale>  2 0.46193871E+03</rscale>
<asrwt>0</asrwt>
<pdfrwt beam="1">  1       21 0.36945738E-01 0.46193871E+03</pdfrwt>
<pdfrwt beam="2">  1       21 0.31226733E-01 0.46193871E+03</pdfrwt>
<totfact> 0.64288753E+04</totfact>
</mgrwt>
</event>
<event>
 7    0  0.4793433E-002  0.4523664E+03  0.7546771E-02  0.1027019E+00
         21   -1    0    0  502  501  0.00000000000E+00  0.00000000000E+00  0.11756669853E+03  0.11756669853E+03  0.00000000000E+00 0. -1.
         21   -1    0    0  501  502 -0.00000000000E+00 -0.00000000000E+00 -0.43514730998E+03  0.43514730998E+03  0.00000000000E+00 0. -1.
      99926    2    1    2    0    0 -0.71054273576E-14 -0.71054273576E-14 -0.31758061145E+03  0.55271400851E+03  0.45236636749E+03 0.  0.
      99925    2    3    3    0    0  0.46473900893E+02  0.41304412892E+02 -0.88428891862E+02  0.28434132607E+03  0.26299133599E+03 0.  0.
         25    1    4    4    0    0  0.35310206791E+01 -0.14017593488E+02 -0.53311033395E+02  0.13674258816E+03  0.12509000000E+03 0.  0.
         25    1    3    3    0    0 -0.46473900893E+02 -0.41304412892E+02 -0.22915171959E+03  0.26837268244E+03  0.12509000000E+03 0.  0.
         25    1    4    4    0    0  0.42942880214E+02  0.55322006380E+02 -0.35117858467E+02  0.14759873792E+03  0.12509000000E+03 0.  0.
<mgrwt>
<rscale>  2 0.45236637E+03</rscale>
<asrwt>0</asrwt>
<pdfrwt beam="1">  1       21 0.17289221E-01 0.45236637E+03</pdfrwt>
<pdfrwt beam="2">  1       21 0.63992250E-01 0.45236637E+03</pdfrwt>
<totfact> 0.62989723E+04</totfact>
</mgrwt>
</event>
<event>
 7    0  0.4793433E-002  0.4562806E+03  0.7546771E-02  0.1025865E+00
         21   -1    0    0  502  501  0.00000000000E+00  0.00000000000E+00  0.74315839394E+02  0.74315839394E+02  0.00000000000E+00 0. -1.
         21   -1    0    0  501  502 -0.00000000000E+00 -0.00000000000E+00 -0.70036219255E+03  0.70036219255E+03  0.00000000000E+00 0. -1.
      99926    2    1    2    0    0  0.00000000000E+00  0.00000000000E+00 -0.62604635316E+03  0.77467803194E+03  0.45628063390E+03 0.  0.
      99925    2    3    3    0    0 -0.78152752448E+02 -0.31513568337E+02 -0.52444187433E+03  0.59282112137E+03  0.26324255867E+03 0.  0.
         25    1    4    4    0    0 -0.68908302996E+02 -0.98532551774E+01 -0.21582744662E+03  0.25898732724E+03  0.12509000000E+03 0.  0.
         25    1    4    4    0    0 -0.92444494525E+01 -0.21660313159E+02 -0.30861442771E+03  0.33383379413E+03  0.12509000000E+03 0.  0.
         25    1    3    3    0    0  0.78152752448E+02  0.31513568337E+02 -0.10160447883E+03  0.18185691057E+03  0.12509000000E+03 0.  0.
<mgrwt>
<rscale>  2 0.45628063E+03</rscale>
<asrwt>0</asrwt>
<pdfrwt beam="1">  1       21 0.10928800E-01 0.45628063E+03</pdfrwt>
<pdfrwt beam="2">  1       21 0.10299444E+00 0.45628063E+03</pdfrwt>
<totfact> 0.48524369E+04</totfact>
</mgrwt>
</event>
<event>
 7    0  0.4793433E-002  0.4588475E+03  0.7546771E-02  0.1025116E+00
         21   -1    0    0  502  501  0.00000000000E+00  0.00000000000E+00  0.14323847197E+03  0.14323847197E+03  0.00000000000E+00 0.  1.
         21   -1    0    0  501  502 -0.00000000000E+00 -0.00000000000E+00 -0.36746593019E+03  0.36746593019E+03  0.00000000000E+00 0.  1.
      99926    2    1    2    0    0  0.00000000000E+00  0.71054273576E-14 -0.22422745822E+03  0.51070440216E+03  0.45884750557E+03 0.  0.
      99925    2    3    3    0    0 -0.19548533136E+02 -0.43984008966E+02 -0.22324037336E+02  0.26836324252E+03  0.26306601662E+03 0.  0.
         25    1    3    3    0    0  0.19548533136E+02  0.43984008966E+02 -0.20190342089E+03  0.24234115965E+03  0.12509000000E+03 0.  0.
         25    1    4    4    0    0 -0.23656235611E+02 -0.59344832362E+02 -0.22600771413E+02  0.14226640355E+03  0.12509000000E+03 0.  0.
         25    1    4    4    0    0  0.41077024749E+01  0.15360823396E+02  0.27673407716E+00  0.12609683896E+03  0.12509000000E+03 0.  0.
<mgrwt>
<rscale>  2 0.45884751E+03</rscale>
<asrwt>0</asrwt>
<pdfrwt beam="1">  1       21 0.21064481E-01 0.45884751E+03</pdfrwt>
<pdfrwt beam="2">  1       21 0.54039107E-01 0.45884751E+03</pdfrwt>
<totfact> 0.62591739E+04</totfact>
</mgrwt>
</event>
<event>
 7    0  0.4793433E-002  0.4592456E+03  0.7546771E-02  0.1025000E+00
         21   -1    0    0  502  501  0.00000000000E+00  0.00000000000E+00  0.78546703167E+03  0.78546703167E+03  0.00000000000E+00 0. -1.
         21   -1    0    0  501  502 -0.00000000000E+00 -0.00000000000E+00 -0.67127752446E+02  0.67127752446E+02  0.00000000000E+00 0. -1.
      99926    2    1    2    0    0 -0.17763568394E-14 -0.14210854715E-13  0.71833927923E+03  0.85259478412E+03  0.45924562690E+03 0.  0.
      99925    2    3    3    0    0  0.12334550357E+02 -0.11624105661E+03  0.44514030406E+03  0.53018307139E+03  0.26321108356E+03 0.  0.
         25    1    4    4    0    0 -0.26161688260E+02 -0.64262328346E+02  0.17951475654E+03  0.22953678723E+03  0.12509000000E+03 0.  0.
         25    1    4    4    0    0  0.38496238617E+02 -0.51978728267E+02  0.26562554753E+03  0.30064628416E+03  0.12509000000E+03 0.  0.
         25    1    3    3    0    0 -0.12334550357E+02  0.11624105661E+03  0.27319897516E+03  0.32241171273E+03  0.12509000000E+03 0.  0.
<mgrwt>
<rscale>  2 0.45924563E+03</rscale>
<asrwt>0</asrwt>
<pdfrwt beam="1">  1       21 0.11550985E+00 0.45924563E+03</pdfrwt>
<pdfrwt beam="2">  1       21 0.98717288E-02 0.45924563E+03</pdfrwt>
<totfact> 0.43844953E+04</totfact>
</mgrwt>
</event>
<event>
 7    0  0.4793433E-002  0.4429221E+03  0.7546771E-02  0.1029854E+00
         21   -1    0    0  502  501  0.00000000000E+00  0.00000000000E+00  0.19043588206E+04  0.19043588206E+04  0.00000000000E+00 0.  1.
         21   -1    0    0  501  502 -0.00000000000E+00 -0.00000000000E+00 -0.25754072372E+02  0.25754072372E+02  0.00000000000E+00 0.  1.
      99926    2    1    2    0    0 -0.35527136788E-14  0.00000000000E+00  0.18786047482E+04  0.19301128930E+04  0.44292209197E+03 0.  0.
      99925    2    3    3    0    0 -0.24904734608E+02 -0.58032229147E+02  0.85002256107E+03  0.89202965485E+03  0.26304099563E+03 0.  0.
         25    1    4    4    0    0 -0.39941170005E+02 -0.48175890260E+02  0.36704774682E+03  0.39279481922E+03  0.12509000000E+03 0.  0.
         25    1    4    4    0    0  0.15036435397E+02 -0.98563388862E+01  0.48297481425E+03  0.49923483563E+03  0.12509000000E+03 0.  0.
         25    1    3    3    0    0  0.24904734608E+02  0.58032229147E+02  0.10285821871E+04  0.10380832381E+04  0.12509000000E+03 0.  0.
<mgrwt>
<rscale>  2 0.44292209E+03</rscale>
<asrwt>0</asrwt>
<pdfrwt beam="1">  1       21 0.28005267E+00 0.44292209E+03</pdfrwt>
<pdfrwt beam="2">  1       21 0.37873649E-02 0.44292209E+03</pdfrwt>
<totfact> 0.16365812E+04</totfact>
</mgrwt>
</event>
<event>
 7    0  0.4793433E-002  0.4690195E+03  0.7546771E-02  0.1022197E+00
         21   -1    0    0  502  501  0.00000000000E+00  0.00000000000E+00  0.16799737943E+03  0.16799737943E+03  0.00000000000E+00 0.  1.
         21   -1    0    0  501  502 -0.00000000000E+00 -0.00000000000E+00 -0.32735519008E+03  0.32735519008E+03  0.00000000000E+00 0.  1.
      99926    2    1    2    0    0 -0.14210854715E-13  0.00000000000E+00 -0.15935781065E+03  0.49535256951E+03  0.46901946261E+03 0.  0.
      99925    2    3    3    0    0  0.11699450618E+03 -0.42852846973E+02 -0.11831858860E+03  0.31409086143E+03  0.26292527428E+03 0.  0.
         25    1    4    4    0    0  0.42773664696E+02  0.91420624880E+01 -0.80540282601E+02  0.15507226999E+03  0.12509000000E+03 0.  0.
         25    1    3    3    0    0 -0.11699450618E+03  0.42852846973E+02 -0.41039222046E+02  0.18126170808E+03  0.12509000000E+03 0.  0.
         25    1    4    4    0    0  0.74220841483E+02 -0.51994909461E+02 -0.37778306002E+02  0.15901859144E+03  0.12509000000E+03 0.  0.
<mgrwt>
<rscale>  2 0.46901946E+03</rscale>
<asrwt>0</asrwt>
<pdfrwt beam="1">  1       21 0.24705497E-01 0.46901946E+03</pdfrwt>
<pdfrwt beam="2">  1       21 0.48140469E-01 0.46901946E+03</pdfrwt>
<totfact> 0.58779256E+04</totfact>
</mgrwt>
</event>
<event>
 7    0  0.4793433E-002  0.4679373E+03  0.7546771E-02  0.1022504E+00
         21   -1    0    0  502  501  0.00000000000E+00  0.00000000000E+00  0.42327046787E+03  0.42327046787E+03  0.00000000000E+00 0.  1.
         21   -1    0    0  501  502 -0.00000000000E+00 -0.00000000000E+00 -0.12932945241E+03  0.12932945241E+03  0.00000000000E+00 0.  1.
      99926    2    1    2    0    0  0.00000000000E+00 -0.35527136788E-14  0.29394101546E+03  0.55259992028E+03  0.46793733696E+03 0.  0.
      99925    2    3    3    0    0  0.10565859391E+03  0.29578080947E+02  0.11242796074E+03  0.30636203028E+03  0.26301909798E+03 0.  0.
         25    1    4    4    0    0  0.77875740334E+02 -0.11530896970E+02  0.38117407401E+02  0.15263694626E+03  0.12509000000E+03 0.  0.
         25    1    4    4    0    0  0.27782853572E+02  0.41108977916E+02  0.74310553342E+02  0.15372508402E+03  0.12509000000E+03 0.  0.
         25    1    3    3    0    0 -0.10565859391E+03 -0.29578080947E+02  0.18151305471E+03  0.24623789000E+03  0.12509000000E+03 0.  0.
<mgrwt>
<rscale>  2 0.46793734E+03</rscale>
<asrwt>0</asrwt>
<pdfrwt beam="1">  1       21 0.62245657E-01 0.46793734E+03</pdfrwt>
<pdfrwt beam="2">  1       21 0.19019037E-01 0.46793734E+03</pdfrwt>
<totfact> 0.55762959E+04</totfact>
</mgrwt>
</event>
<event>
 7    0  0.4793433E-002  0.4590145E+03  0.7546771E-02  0.1025067E+00
         21   -1    0    0  502  501  0.00000000000E+00  0.00000000000E+00  0.88680497330E+02  0.88680497330E+02  0.00000000000E+00 0.  1.
         21   -1    0    0  501  502 -0.00000000000E+00 -0.00000000000E+00 -0.59397025411E+03  0.59397025411E+03  0.00000000000E+00 0.  1.
      99926    2    1    2    0    0 -0.71054273576E-14  0.00000000000E+00 -0.50528975678E+03  0.68265075144E+03  0.45901449883E+03 0.  0.
      99925    2    3    3    0    0  0.41376740280E+02 -0.28830889640E+02 -0.47365975562E+03  0.54411837289E+03  0.26299806994E+03 0.  0.
         25    1    3    3    0    0 -0.41376740280E+02  0.28830889640E+02 -0.31630001164E+02  0.13853237855E+03  0.12509000000E+03 0.  0.
         25    1    4    4    0    0  0.34605325987E+02  0.16137414107E+02 -0.18854218646E+03  0.22946374201E+03  0.12509000000E+03 0.  0.
         25    1    4    4    0    0  0.67714142928E+01 -0.44968303748E+02 -0.28511756916E+03  0.31465463088E+03  0.12509000000E+03 0.  0.
<mgrwt>
<rscale>  2 0.45901450E+03</rscale>
<asrwt>0</asrwt>
<pdfrwt beam="1">  1       21 0.13041249E-01 0.45901450E+03</pdfrwt>
<pdfrwt beam="2">  1       21 0.87348569E-01 0.45901450E+03</pdfrwt>
<totfact> 0.52185527E+04</totfact>
</mgrwt>
</event>
<event>
 7    0  0.4793433E-002  0.4632702E+03  0.7546771E-02  0.1023837E+00
         21   -1    0    0  502  501  0.00000000000E+00  0.00000000000E+00  0.18962964475E+03  0.18962964475E+03  0.00000000000E+00 0. -1.
         21   -1    0    0  501  502 -0.00000000000E+00 -0.00000000000E+00 -0.28294527344E+03  0.28294527344E+03  0.00000000000E+00 0. -1.
      99926    2    1    2    0    0 -0.35527136788E-14  0.00000000000E+00 -0.93315628689E+02  0.47257491820E+03  0.46327016605E+03 0.  0.
      99925    2    3    3    0    0 -0.27238426998E+02  0.11380969554E+03 -0.26237134801E+02  0.28861402249E+03  0.26251683381E+03 0.  0.
         25    1    4    4    0    0 -0.50928455789E+02  0.64804124555E+02 -0.26869058628E+02  0.15219308979E+03  0.12509000000E+03 0.  0.
         25    1    4    4    0    0  0.23690028791E+02  0.49005570989E+02  0.63192382639E+00  0.13642093270E+03  0.12509000000E+03 0.  0.
         25    1    3    3    0    0  0.27238426998E+02 -0.11380969554E+03 -0.67078493888E+02  0.18396089570E+03  0.12509000000E+03 0.  0.
<mgrwt>
<rscale>  2 0.46327017E+03</rscale>
<asrwt>0</asrwt>
<pdfrwt beam="1">  1       21 0.27886712E-01 0.46327017E+03</pdfrwt>
<pdfrwt beam="2">  1       21 0.41609599E-01 0.46327017E+03</pdfrwt>
<totfact> 0.63006521E+04</totfact>
</mgrwt>
</event>
<event>
 7    0  0.4793433E-002  0.4372411E+03  0.7546771E-02  0.1031597E+00
         21   -1    0    0  502  501  0.00000000000E+00  0.00000000000E+00  0.65514524377E+03  0.65514524377E+03  0.00000000000E+00 0. -1.
         21   -1    0    0  501  502 -0.00000000000E+00 -0.00000000000E+00 -0.72953201626E+02  0.72953201626E+02  0.00000000000E+00 0. -1.
      99926    2    1    2    0    0  0.00000000000E+00  0.00000000000E+00  0.58219204215E+03  0.72809844540E+03  0.43724109168E+03 0.  0.
      99925    2    3    3    0    0 -0.24508729895E+02 -0.68140833851E+02  0.26871227530E+03  0.38290151117E+03  0.26298940907E+03 0.  0.
         25    1    4    4    0    0 -0.17543190633E+02 -0.22911130675E+01  0.16309763366E+03  0.20630404490E+03  0.12509000000E+03 0.  0.
         25    1    4    4    0    0 -0.69655392618E+01 -0.65849720783E+02  0.10561464164E+03  0.17659746627E+03  0.12509000000E+03 0.  0.
         25    1    3    3    0    0  0.24508729895E+02  0.68140833851E+02  0.31347976684E+03  0.34519693423E+03  0.12509000000E+03 0.  0.
<mgrwt>
<rscale>  2 0.43724109E+03</rscale>
<asrwt>0</asrwt>
<pdfrwt beam="1">  1       21 0.96344886E-01 0.43724109E+03</pdfrwt>
<pdfrwt beam="2">  1       21 0.10728412E-01 0.43724109E+03</pdfrwt>
<totfact> 0.59255517E+04</totfact>
</mgrwt>
</event>
<event>
 7    0  0.4793433E-002  0.4421722E+03  0.7546771E-02  0.1030082E+00
         21   -1    0    0  502  501  0.00000000000E+00  0.00000000000E+00  0.48043942671E+03  0.48043942671E+03  0.00000000000E+00 0. -1.
         21   -1    0    0  501  502 -0.00000000000E+00 -0.00000000000E+00 -0.10173823790E+03  0.10173823790E+03  0.00000000000E+00 0. -1.
      99926    2    1    2    0    0  0.14210854715E-13 -0.17763568394E-14  0.37870118881E+03  0.58217766460E+03  0.44217218678E+03 0.  0.
      99925    2    3    3    0    0  0.70198926796E+02 -0.12053548304E+02  0.33477596275E+03  0.43167812662E+03  0.26305490381E+03 0.  0.
         25    1    4    4    0    0 -0.60427642395E+01 -0.10020750524E+02  0.14317276213E+03  0.19048065087E+03  0.12509000000E+03 0.  0.
         25    1    3    3    0    0 -0.70198926796E+02  0.12053548304E+02  0.43925226064E+02  0.15049953799E+03  0.12509000000E+03 0.  0.
         25    1    4    4    0    0  0.76241691035E+02 -0.20327977796E+01  0.19160320062E+03  0.24119747575E+03  0.12509000000E+03 0.  0.
<mgrwt>
<rscale>  2 0.44217219E+03</rscale>
<asrwt>0</asrwt>
<pdfrwt beam="1">  1       21 0.70652856E-01 0.44217219E+03</pdfrwt>
<pdfrwt beam="2">  1       21 0.14961506E-01 0.44217219E+03</pdfrwt>
<totfact> 0.66256172E+04</totfact>
</mgrwt>
</event>
<event>
 7    0  0.4793433E-002  0.4570736E+03  0.7546771E-02  0.1025633E+00
         21   -1    0    0  502  501  0.00000000000E+00  0.00000000000E+00  0.35952466584E+03  0.35952466584E+03  0.00000000000E+00 0.  1.
         21   -1    0    0  501  502 -0.00000000000E+00 -0.00000000000E+00 -0.14527255302E+03  0.14527255302E+03  0.00000000000E+00 0.  1.
      99926    2    1    2    0    0  0.35527136788E-14  0.17763568394E-14  0.21425211282E+03  0.50479721886E+03  0.45707358742E+03 0.  0.
      99925    2    3    3    0    0  0.21110075885E+02  0.13761636792E+02  0.25855541354E+03  0.36972202312E+03  0.26307499797E+03 0.  0.
         25    1    4    4    0    0  0.47999579896E+02 -0.84065861043E+01  0.13822492342E+03  0.19268696872E+03  0.12509000000E+03 0.  0.
         25    1    3    3    0    0 -0.21110075885E+02 -0.13761636792E+02 -0.44303300715E+02  0.13507519574E+03  0.12509000000E+03 0.  0.
         25    1    4    4    0    0 -0.26889504011E+02  0.22168222897E+02  0.12033049012E+03  0.17703505439E+03  0.12509000000E+03 0.  0.
<mgrwt>
<rscale>  2 0.45707359E+03</rscale>
<asrwt>0</asrwt>
<pdfrwt beam="1">  1       21 0.52871275E-01 0.45707359E+03</pdfrwt>
<pdfrwt beam="2">  1       21 0.21363611E-01 0.45707359E+03</pdfrwt>
<totfact> 0.63877086E+04</totfact>
</mgrwt>
</event>
<event>
 7    0  0.4793433E-002  0.4459397E+03  0.7546771E-02  0.1028940E+00
         21   -1    0    0  502  501  0.00000000000E+00  0.00000000000E+00  0.44954727815E+03  0.44954727815E+03  0.00000000000E+00 0.  1.
         21   -1    0    0  501  502 -0.00000000000E+00 -0.00000000000E+00 -0.11059025966E+03  0.11059025966E+03  0.00000000000E+00 0.  1.
      99926    2    1    2    0    0  0.00000000000E+00  0.00000000000E+00  0.33895701849E+03  0.56013753781E+03  0.44593968300E+03 0.  0.
      99925    2    3    3    0    0  0.55214681974E+02 -0.61907024506E+02  0.13573069143E+03  0.30749235401E+03  0.26314936136E+03 0.  0.
         25    1    4    4    0    0  0.22651065990E+02 -0.57005726192E+02  0.10522359564E+03  0.17459162863E+03  0.12509000000E+03 0.  0.
         25    1    4    4    0    0  0.32563615985E+02 -0.49012983143E+01  0.30507095792E+02  0.13290072537E+03  0.12509000000E+03 0.  0.
         25    1    3    3    0    0 -0.55214681974E+02  0.61907024506E+02  0.20322632706E+03  0.25264518380E+03  0.12509000000E+03 0.  0.
<mgrwt>
<rscale>  2 0.44593968E+03</rscale>
<asrwt>0</asrwt>
<pdfrwt beam="1">  1       21 0.66109893E-01 0.44593968E+03</pdfrwt>
<pdfrwt beam="2">  1       21 0.16263274E-01 0.44593968E+03</pdfrwt>
<totfact> 0.65791190E+04</totfact>
</mgrwt>
</event>
<event>
 7    0  0.4793433E-002  0.4520739E+03  0.7546771E-02  0.1027105E+00
         21   -1    0    0  502  501  0.00000000000E+00  0.00000000000E+00  0.52265729245E+02  0.52265729245E+02  0.00000000000E+00 0.  1.
         21   -1    0    0  501  502 -0.00000000000E+00 -0.00000000000E+00 -0.97755652389E+03  0.97755652389E+03  0.00000000000E+00 0.  1.
      99926    2    1    2    0    0  0.00000000000E+00  0.00000000000E+00 -0.92529079465E+03  0.10298222531E+04  0.45207390811E+03 0.  0.
      99925    2    3    3    0    0  0.91324433447E+02  0.60454413008E+02 -0.55270677188E+03  0.62182562286E+03  0.26303505729E+03 0.  0.
         25    1    3    3    0    0 -0.91324433447E+02 -0.60454413008E+02 -0.37258402276E+03  0.40799663028E+03  0.12509000000E+03 0.  0.
         25    1    4    4    0    0  0.66342814995E+02  0.57236681580E+02 -0.24490590049E+03  0.28862400284E+03  0.12509000000E+03 0.  0.
         25    1    4    4    0    0  0.24981618452E+02  0.32177314279E+01 -0.30780087139E+03  0.33320162002E+03  0.12509000000E+03 0.  0.
<mgrwt>
<rscale>  2 0.45207391E+03</rscale>
<asrwt>0</asrwt>
<pdfrwt beam="1">  1       21 0.76861369E-02 0.45207391E+03</pdfrwt>
<pdfrwt beam="2">  1       21 0.14375831E+00 0.45207391E+03</pdfrwt>
<totfact> 0.38907832E+04</totfact>
</mgrwt>
</event>
<event>
 7    0  0.4793433E-002  0.4574136E+03  0.7546771E-02  0.1025534E+00
         21   -1    0    0  502  501  0.00000000000E+00  0.00000000000E+00  0.14654434555E+04  0.14654434555E+04  0.00000000000E+00 0.  1.
         21   -1    0    0  501  502 -0.00000000000E+00 -0.00000000000E+00 -0.35693491223E+02  0.35693491223E+02  0.00000000000E+00 0.  1.
      99926    2    1    2    0    0  0.00000000000E+00  0.00000000000E+00  0.14297499642E+04  0.15011369467E+04  0.45741356829E+03 0.  0.
      99925    2    3    3    0    0  0.10257180845E+02  0.71102799340E+02  0.11939402844E+04  0.12247051630E+04  0.26315112710E+03 0.  0.
         25    1    4    4    0    0 -0.20363195778E+02  0.31311452191E+01  0.58824017676E+03  0.60174619024E+03  0.12509000000E+03 0.  0.
         25    1    4    4    0    0  0.30620376622E+02  0.67971654121E+02  0.60570010767E+03  0.62295897277E+03  0.12509000000E+03 0.  0.
         25    1    3    3    0    0 -0.10257180845E+02 -0.71102799340E+02  0.23580967982E+03  0.27643178368E+03  0.12509000000E+03 0.  0.
<mgrwt>
<rscale>  2 0.45741357E+03</rscale>
<asrwt>0</asrwt>
<pdfrwt beam="1">  1       21 0.21550635E+00 0.45741357E+03</pdfrwt>
<pdfrwt beam="2">  1       21 0.52490438E-02 0.45741357E+03</pdfrwt>
<totfact> 0.23311192E+04</totfact>
</mgrwt>
</event>
<event>
 7    0  0.4793433E-002  0.4013364E+03  0.7546771E-02  0.1043318E+00
         21   -1    0    0  502  501  0.00000000000E+00  0.00000000000E+00  0.14622211557E+03  0.14622211557E+03  0.00000000000E+00 0. -1.
         21   -1    0    0  501  502 -0.00000000000E+00 -0.00000000000E+00 -0.27538735770E+03  0.27538735770E+03  0.00000000000E+00 0. -1.
      99926    2    1    2    0    0  0.00000000000E+00  0.00000000000E+00 -0.12916524213E+03  0.42160947328E+03  0.40133637784E+03 0.  0.
      99925    2    3    3    0    0 -0.16501548768E+02 -0.23384417209E+02 -0.45235570551E+02  0.26827705677E+03  0.26288246474E+03 0.  0.
         25    1    3    3    0    0  0.16501548768E+02  0.23384417209E+02 -0.83929671578E+02  0.15333241650E+03  0.12509000000E+03 0.  0.
         25    1    4    4    0    0  0.28422143119E+02 -0.18412768543E+02 -0.38113256024E+02  0.13508137048E+03  0.12509000000E+03 0.  0.
         25    1    4    4    0    0 -0.44923691887E+02 -0.49716486663E+01 -0.71223145272E+01  0.13319568629E+03  0.12509000000E+03 0.  0.
<mgrwt>
<rscale>  2 0.40133638E+03</rscale>
<asrwt>0</asrwt>
<pdfrwt beam="1">  1       21 0.21503252E-01 0.40133638E+03</pdfrwt>
<pdfrwt beam="2">  1       21 0.40498141E-01 0.40133638E+03</pdfrwt>
<totfact> 0.11171971E+05</totfact>
</mgrwt>
</event>
<event>
 7    0  0.4793433E-002  0.4541874E+03  0.7546771E-02  0.1026481E+00
         21   -1    0    0  502  501  0.00000000000E+00  0.00000000000E+00  0.28347368280E+02  0.28347368280E+02  0.00000000000E+00 0.  1.
         21   -1    0    0  501  502 -0.00000000000E+00 -0.00000000000E+00 -0.18192710850E+04  0.18192710850E+04  0.00000000000E+00 0.  1.
      99926    2    1    2    0    0  0.00000000000E+00  0.00000000000E+00 -0.17909237167E+04  0.18476184533E+04  0.45418739502E+03 0.  0.
      99925    2    3    3    0    0  0.73231839512E+02  0.84925697971E+02 -0.10932476428E+04  0.11300010839E+04  0.26293870926E+03 0.  0.
         25    1    3    3    0    0 -0.73231839512E+02 -0.84925697971E+02 -0.69767607395E+03  0.71761736933E+03  0.12509000000E+03 0.  0.
         25    1    4    4    0    0 -0.30553817340E+01  0.28123392634E+02 -0.52340225915E+03  0.53888560340E+03  0.12509000000E+03 0.  0.
         25    1    4    4    0    0  0.76287221246E+02  0.56802305337E+02 -0.56984538361E+03  0.59111548054E+03  0.12509000000E+03 0.  0.
<mgrwt>
<rscale>  2 0.45418740E+03</rscale>
<asrwt>0</asrwt>
<pdfrwt beam="1">  1       21 0.41687289E-02 0.45418740E+03</pdfrwt>
<pdfrwt beam="2">  1       21 0.26753997E+00 0.45418740E+03</pdfrwt>
<totfact> 0.16465034E+04</totfact>
</mgrwt>
</event>
<event>
 7    0  0.4793433E-002  0.4533598E+03  0.7546771E-02  0.1026725E+00
         21   -1    0    0  502  501  0.00000000000E+00  0.00000000000E+00  0.97296186088E+03  0.97296186088E+03  0.00000000000E+00 0. -1.
         21   -1    0    0  501  502 -0.00000000000E+00 -0.00000000000E+00 -0.52811713165E+02  0.52811713165E+02  0.00000000000E+00 0. -1.
      99926    2    1    2    0    0  0.00000000000E+00 -0.71054273576E-14  0.92015014771E+03  0.10257735740E+04  0.45335982494E+03 0.  0.
      99925    2    3    3    0    0 -0.20773404988E+02 -0.37370390165E+02  0.34686885883E+03  0.43744796293E+03  0.26308674354E+03 0.  0.
         25    1    4    4    0    0 -0.39450070308E+01  0.21429128017E+02  0.17622743466E+03  0.21720586418E+03  0.12509000000E+03 0.  0.
         25    1    4    4    0    0 -0.16828397957E+02 -0.58799518182E+02  0.17064142418E+03  0.22024209875E+03  0.12509000000E+03 0.  0.
         25    1    3    3    0    0  0.20773404988E+02  0.37370390165E+02  0.57328128888E+03  0.58832561111E+03  0.12509000000E+03 0.  0.
<mgrwt>
<rscale>  2 0.45335982E+03</rscale>
<asrwt>0</asrwt>
<pdfrwt beam="1">  1       21 0.14308262E+00 0.45335982E+03</pdfrwt>
<pdfrwt beam="2">  1       21 0.77664290E-02 0.45335982E+03</pdfrwt>
<totfact> 0.38671920E+04</totfact>
</mgrwt>
</event>
<event>
 7    0  0.4793433E-002  0.4524089E+03  0.7546771E-02  0.1027006E+00
         21   -1    0    0  502  501  0.00000000000E+00  0.00000000000E+00  0.49365446347E+02  0.49365446347E+02  0.00000000000E+00 0. -1.
         21   -1    0    0  501  502 -0.00000000000E+00 -0.00000000000E+00 -0.10365236299E+04  0.10365236299E+04  0.00000000000E+00 0. -1.
      99926    2    1    2    0    0  0.14210854715E-13 -0.14210854715E-13 -0.98715818356E+03  0.10858890762E+04  0.45240889310E+03 0.  0.
      99925    2    3    3    0    0 -0.69092987703E+02  0.70225302707E+02 -0.50079361585E+03  0.57412405702E+03  0.26290445618E+03 0.  0.
         25    1    4    4    0    0 -0.25892528106E+02 -0.32619327757E+01 -0.19899209256E+03  0.23648768301E+03  0.12509000000E+03 0.  0.
         25    1    3    3    0    0  0.69092987703E+02 -0.70225302707E+02 -0.48636456770E+03  0.51176501923E+03  0.12509000000E+03 0.  0.
         25    1    4    4    0    0 -0.43200459597E+02  0.73487235482E+02 -0.30180152330E+03  0.33763637401E+03  0.12509000000E+03 0.  0.
<mgrwt>
<rscale>  2 0.45240889E+03</rscale>
<asrwt>0</asrwt>
<pdfrwt beam="1">  1       21 0.72596249E-02 0.45240889E+03</pdfrwt>
<pdfrwt beam="2">  1       21 0.15242994E+00 0.45240889E+03</pdfrwt>
<totfact> 0.36724234E+04</totfact>
</mgrwt>
</event>
<event>
 7    0  0.4793433E-002  0.4500663E+03  0.7546771E-02  0.1027702E+00
         21   -1    0    0  502  501  0.00000000000E+00  0.00000000000E+00  0.18231821206E+03  0.18231821206E+03  0.00000000000E+00 0. -1.
         21   -1    0    0  501  502 -0.00000000000E+00 -0.00000000000E+00 -0.27775568713E+03  0.27775568713E+03  0.00000000000E+00 0. -1.
      99926    2    1    2    0    0  0.26645352591E-14  0.71054273576E-14 -0.95437475073E+02  0.46007389920E+03  0.45006630742E+03 0.  0.
      99925    2    3    3    0    0 -0.41549530487E+01 -0.39944724764E+02 -0.16332809446E+03  0.31219053647E+03  0.26300954345E+03 0.  0.
         25    1    3    3    0    0  0.41549530487E+01  0.39944724764E+02  0.67890619392E+02  0.14788336273E+03  0.12509000000E+03 0.  0.
         25    1    4    4    0    0  0.23863285551E+02 -0.21184488659E+02 -0.11810333272E+03  0.17496898084E+03  0.12509000000E+03 0.  0.
         25    1    4    4    0    0 -0.28018238600E+02 -0.18760236105E+02 -0.45224761742E+02  0.13722155562E+03  0.12509000000E+03 0.  0.
<mgrwt>
<rscale>  2 0.45006631E+03</rscale>
<asrwt>0</asrwt>
<pdfrwt beam="1">  1       21 0.26811502E-01 0.45006631E+03</pdfrwt>
<pdfrwt beam="2">  1       21 0.40846424E-01 0.45006631E+03</pdfrwt>
<totfact> 0.70916635E+04</totfact>
</mgrwt>
</event>
<event>
 7    0  0.4793433E-002  0.4536809E+03  0.7546771E-02  0.1026630E+00
         21   -1    0    0  502  501  0.00000000000E+00  0.00000000000E+00  0.11641682484E+04  0.11641682484E+04  0.00000000000E+00 0. -1.
         21   -1    0    0  501  502 -0.00000000000E+00 -0.00000000000E+00 -0.44200305851E+02  0.44200305851E+02  0.00000000000E+00 0. -1.
      99926    2    1    2    0    0  0.00000000000E+00  0.00000000000E+00  0.11199679425E+04  0.12083685542E+04  0.45368091271E+03 0.  0.
      99925    2    3    3    0    0 -0.65132167295E+02  0.90904072963E+02  0.68783997368E+03  0.74480859127E+03  0.26288830050E+03 0.  0.
         25    1    3    3    0    0  0.65132167295E+02 -0.90904072963E+02  0.43212796882E+03  0.46355996294E+03  0.12509000000E+03 0.  0.
         25    1    4    4    0    0 -0.60504268662E+02  0.33087647498E+02  0.41888679368E+03  0.44257113887E+03  0.12509000000E+03 0.  0.
         25    1    4    4    0    0 -0.46278986334E+01  0.57816425464E+02  0.26895318001E+03  0.30223745240E+03  0.12509000000E+03 0.  0.
<mgrwt>
<rscale>  2 0.45368091E+03</rscale>
<asrwt>0</asrwt>
<pdfrwt beam="1">  1       21 0.17120119E+00 0.45368091E+03</pdfrwt>
<pdfrwt beam="2">  1       21 0.65000457E-02 0.45368091E+03</pdfrwt>
<totfact> 0.32221637E+04</totfact>
</mgrwt>
</event>
<event>
 7    0  0.4793433E-002  0.4487835E+03  0.7546771E-02  0.1028085E+00
         21   -1    0    0  502  501  0.00000000000E+00  0.00000000000E+00  0.89334914551E+03  0.89334914551E+03  0.00000000000E+00 0. -1.
         21   -1    0    0  501  502 -0.00000000000E+00 -0.00000000000E+00 -0.56362797244E+02  0.56362797244E+02  0.00000000000E+00 0. -1.
      99926    2    1    2    0    0  0.35527136788E-14  0.00000000000E+00  0.83698634826E+03  0.94971194275E+03  0.44878349683E+03 0.  0.
      99925    2    3    3    0    0 -0.20775886869E+02 -0.78619931046E+02  0.67747373261E+03  0.73129831294E+03  0.26308522023E+03 0.  0.
         25    1    4    4    0    0 -0.40137516479E+02 -0.67521232440E+02  0.38799335711E+03  0.41515839185E+03  0.12509000000E+03 0.  0.
         25    1    4    4    0    0  0.19361629610E+02 -0.11098698606E+02  0.28948037550E+03  0.31613992110E+03  0.12509000000E+03 0.  0.
         25    1    3    3    0    0  0.20775886869E+02  0.78619931046E+02  0.15951261565E+03  0.21841362981E+03  0.12509000000E+03 0.  0.
<mgrwt>
<rscale>  2 0.44878350E+03</rscale>
<asrwt>0</asrwt>
<pdfrwt beam="1">  1       21 0.13137487E+00 0.44878350E+03</pdfrwt>
<pdfrwt beam="2">  1       21 0.82886472E-02 0.44878350E+03</pdfrwt>
<totfact> 0.43215293E+04</totfact>
</mgrwt>
</event>
<event>
 7    0  0.4793433E-002  0.4483556E+03  0.7546771E-02  0.1028214E+00
         21   -1    0    0  502  501  0.00000000000E+00  0.00000000000E+00  0.36549313591E+02  0.36549313591E+02  0.00000000000E+00 0.  1.
         21   -1    0    0  501  502 -0.00000000000E+00 -0.00000000000E+00 -0.13750101365E+04  0.13750101365E+04  0.00000000000E+00 0.  1.
      99926    2    1    2    0    0  0.00000000000E+00  0.00000000000E+00 -0.13384608229E+04  0.14115594501E+04  0.44835555833E+03 0.  0.
      99925    2    3    3    0    0 -0.34881651457E+02  0.78437824638E+02 -0.64771590028E+03  0.70434994918E+03  0.26306604017E+03 0.  0.
         25    1    4    4    0    0  0.20047127848E+02  0.37174552963E+02 -0.26945771377E+03  0.30006466359E+03  0.12509000000E+03 0.  0.
         25    1    3    3    0    0  0.34881651457E+02 -0.78437824638E+02 -0.69074492265E+03  0.70720950094E+03  0.12509000000E+03 0.  0.
         25    1    4    4    0    0 -0.54928779305E+02  0.41263271675E+02 -0.37825818651E+03  0.40428528560E+03  0.12509000000E+03 0.  0.
<mgrwt>
<rscale>  2 0.44835556E+03</rscale>
<asrwt>0</asrwt>
<pdfrwt beam="1">  1       21 0.53748994E-02 0.44835556E+03</pdfrwt>
<pdfrwt beam="2">  1       21 0.20220736E+00 0.44835556E+03</pdfrwt>
<totfact> 0.27413973E+04</totfact>
</mgrwt>
</event>
<event>
 7    0  0.4793433E-002  0.4629320E+03  0.7546771E-02  0.1023934E+00
         21   -1    0    0  502  501  0.00000000000E+00  0.00000000000E+00  0.44626108486E+02  0.44626108486E+02  0.00000000000E+00 0. -1.
         21   -1    0    0  501  502 -0.00000000000E+00 -0.00000000000E+00 -0.12005644244E+04  0.12005644244E+04  0.00000000000E+00 0. -1.
      99926    2    1    2    0    0  0.71054273576E-14  0.35527136788E-14 -0.11559383159E+04  0.12451905329E+04  0.46293203928E+03 0.  0.
      99925    2    3    3    0    0 -0.41326585561E+02  0.18100634808E+02 -0.42191849818E+03  0.49922262434E+03  0.26300663469E+03 0.  0.
         25    1    4    4    0    0  0.52784759052E+01  0.25769890887E+02 -0.25594693747E+03  0.28609140582E+03  0.12509000000E+03 0.  0.
         25    1    3    3    0    0  0.41326585561E+02 -0.18100634808E+02 -0.73401981771E+03  0.74596790853E+03  0.12509000000E+03 0.  0.
         25    1    4    4    0    0 -0.46605061466E+02 -0.76692560789E+01 -0.16597156071E+03  0.21313121852E+03  0.12509000000E+03 0.  0.
<mgrwt>
<rscale>  2 0.46293204E+03</rscale>
<asrwt>0</asrwt>
<pdfrwt beam="1">  1       21 0.65626620E-02 0.46293204E+03</pdfrwt>
<pdfrwt beam="2">  1       21 0.17655362E+00 0.46293204E+03</pdfrwt>
<totfact> 0.28921368E+04</totfact>
</mgrwt>
</event>
<event>
 7    0  0.4793433E-002  0.4553310E+03  0.7546771E-02  0.1026144E+00
         21   -1    0    0  502  501  0.00000000000E+00  0.00000000000E+00  0.29442697222E+02  0.29442697222E+02  0.00000000000E+00 0. -1.
         21   -1    0    0  501  502 -0.00000000000E+00 -0.00000000000E+00 -0.17604221750E+04  0.17604221750E+04  0.00000000000E+00 0. -1.
      99926    2    1    2    0    0  0.00000000000E+00 -0.35527136788E-14 -0.17309794777E+04  0.17898648722E+04  0.45533098766E+03 0.  0.
      99925    2    3    3    0    0 -0.94912491546E+02  0.28218533788E+02 -0.13070825324E+04  0.13369401598E+04  0.26294405820E+03 0.  0.
         25    1    4    4    0    0 -0.58925038236E+02 -0.13114919104E+02 -0.79053829945E+03  0.80264716547E+03  0.12509000000E+03 0.  0.
         25    1    3    3    0    0  0.94912491546E+02 -0.28218533788E+02 -0.42389694538E+03  0.45292471240E+03  0.12509000000E+03 0.  0.
         25    1    4    4    0    0 -0.35987453310E+02  0.41333452892E+02 -0.51654423291E+03  0.53429299432E+03  0.12509000000E+03 0.  0.
<mgrwt>
<rscale>  2 0.45533099E+03</rscale>
<asrwt>0</asrwt>
<pdfrwt beam="1">  1       21 0.43298087E-02 0.45533099E+03</pdfrwt>
<pdfrwt beam="2">  1       21 0.25888560E+00 0.45533099E+03</pdfrwt>
<totfact> 0.17410221E+04</totfact>
</mgrwt>
</event>
<event>
 7    0  0.4793433E-002  0.4349685E+03  0.7546771E-02  0.1032302E+00
         21   -1    0    0  502  501  0.00000000000E+00  0.00000000000E+00  0.35714379275E+02  0.35714379275E+02  0.00000000000E+00 0. -1.
         21   -1    0    0  501  502 -0.00000000000E+00 -0.00000000000E+00 -0.13243798869E+04  0.13243798869E+04  0.00000000000E+00 0. -1.
      99926    2    1    2    0    0  0.00000000000E+00  0.00000000000E+00 -0.12886655076E+04  0.13600942661E+04  0.43496853028E+03 0.  0.
      99925    2    3    3    0    0  0.33592699556E+02  0.86386009936E+02 -0.85515861483E+03  0.89947864944E+03  0.26301059315E+03 0.  0.
         25    1    3    3    0    0 -0.33592699556E+02 -0.86386009936E+02 -0.43350689277E+03  0.46061561671E+03  0.12509000000E+03 0.  0.
         25    1    4    4    0    0 -0.34477241096E+01  0.76339161145E+02 -0.40609365239E+03  0.43173964022E+03  0.12509000000E+03 0.  0.
         25    1    4    4    0    0  0.37040423665E+02  0.10046848791E+02 -0.44906496245E+03  0.46773900923E+03  0.12509000000E+03 0.  0.
<mgrwt>
<rscale>  2 0.43496853E+03</rscale>
<asrwt>0</asrwt>
<pdfrwt beam="1">  1       21 0.52521144E-02 0.43496853E+03</pdfrwt>
<pdfrwt beam="2">  1       21 0.19476176E+00 0.43496853E+03</pdfrwt>
<totfact> 0.32134963E+04</totfact>
</mgrwt>
</event>
<event>
 7    0  0.4793433E-002  0.4595348E+03  0.7546771E-02  0.1024916E+00
         21   -1    0    0  502  501  0.00000000000E+00  0.00000000000E+00  0.60638658856E+03  0.60638658856E+03  0.00000000000E+00 0. -1.
         21   -1    0    0  501  502 -0.00000000000E+00 -0.00000000000E+00 -0.87061699269E+02  0.87061699269E+02  0.00000000000E+00 0. -1.
      99926    2    1    2    0    0  0.00000000000E+00  0.35527136788E-14  0.51932488929E+03  0.69344828782E+03  0.45953475087E+03 0.  0.
      99925    2    3    3    0    0  0.11562264033E+03  0.20054824103E+02  0.32554567101E+03  0.43466520402E+03  0.26302673770E+03 0.  0.
         25    1    3    3    0    0 -0.11562264033E+03 -0.20054824103E+02  0.19377921828E+03  0.25878308380E+03  0.12509000000E+03 0.  0.
         25    1    4    4    0    0  0.83248124087E+02  0.36147574863E+02  0.20886811709E+03  0.25982743460E+03  0.12509000000E+03 0.  0.
         25    1    4    4    0    0  0.32374516243E+02 -0.16092750760E+02  0.11667755392E+03  0.17483776943E+03  0.12509000000E+03 0.  0.
<mgrwt>
<rscale>  2 0.45953475E+03</rscale>
<asrwt>0</asrwt>
<pdfrwt beam="1">  1       21 0.89174497E-01 0.45953475E+03</pdfrwt>
<pdfrwt beam="2">  1       21 0.12803191E-01 0.45953475E+03</pdfrwt>
<totfact> 0.51400721E+04</totfact>
</mgrwt>
</event>
<event>
 7    0  0.4793433E-002  0.4542156E+03  0.7546771E-02  0.1026472E+00
         21   -1    0    0  502  501  0.00000000000E+00  0.00000000000E+00  0.75178647087E+03  0.75178647087E+03  0.00000000000E+00 0. -1.
         21   -1    0    0  501  502 -0.00000000000E+00 -0.00000000000E+00 -0.68607197147E+02  0.68607197147E+02  0.00000000000E+00 0. -1.
      99926    2    1    2    0    0 -0.71054273576E-14  0.00000000000E+00  0.68317927372E+03  0.82039366802E+03  0.45421564315E+03 0.  0.
      99925    2    3    3    0    0 -0.40272325354E+02  0.88738361098E+02  0.53107638899E+03  0.60066849294E+03  0.26318083241E+03 0.  0.
         25    1    4    4    0    0 -0.80970691880E+01  0.14467895765E+02  0.18558458147E+03  0.22441931182E+03  0.12509000000E+03 0.  0.
         25    1    4    4    0    0 -0.32175256166E+02  0.74270465333E+02  0.34549180752E+03  0.37624918112E+03  0.12509000000E+03 0.  0.
         25    1    3    3    0    0  0.40272325354E+02 -0.88738361098E+02  0.15210288473E+03  0.21972517508E+03  0.12509000000E+03 0.  0.
<mgrwt>
<rscale>  2 0.45421564E+03</rscale>
<asrwt>0</asrwt>
<pdfrwt beam="1">  1       21 0.11055683E+00 0.45421564E+03</pdfrwt>
<pdfrwt beam="2">  1       21 0.10089294E-01 0.45421564E+03</pdfrwt>
<totfact> 0.47083277E+04</totfact>
</mgrwt>
</event>
<event>
 7    0  0.4793433E-002  0.4536852E+03  0.7546771E-02  0.1026629E+00
         21   -1    0    0  502  501  0.00000000000E+00  0.00000000000E+00  0.33103922393E+03  0.33103922393E+03  0.00000000000E+00 0. -1.
         21   -1    0    0  501  502 -0.00000000000E+00 -0.00000000000E+00 -0.15544252811E+03  0.15544252811E+03  0.00000000000E+00 0. -1.
      99926    2    1    2    0    0 -0.35527136788E-14  0.71054273576E-14  0.17559669581E+03  0.48648175204E+03  0.45368523834E+03 0.  0.
      99925    2    3    3    0    0 -0.26922364891E+02  0.60340538742E+02  0.13518669063E+02  0.27134786535E+03  0.26283286566E+03 0.  0.
         25    1    4    4    0    0  0.94024615862E+01  0.93241495387E+01  0.33154438521E+02  0.13008486054E+03  0.12509000000E+03 0.  0.
         25    1    3    3    0    0  0.26922364891E+02 -0.60340538742E+02  0.16207802675E+03  0.21513388669E+03  0.12509000000E+03 0.  0.
         25    1    4    4    0    0 -0.36324826477E+02  0.51016389203E+02 -0.19635769457E+02  0.14126300481E+03  0.12509000000E+03 0.  0.
<mgrwt>
<rscale>  2 0.45368524E+03</rscale>
<asrwt>0</asrwt>
<pdfrwt beam="1">  1       21 0.48682239E-01 0.45368524E+03</pdfrwt>
<pdfrwt beam="2">  1       21 0.22859195E-01 0.45368524E+03</pdfrwt>
<totfact> 0.66927036E+04</totfact>
</mgrwt>
</event>
<event>
 7    0  0.4793433E-002  0.4481797E+03  0.7546771E-02  0.1028266E+00
         21   -1    0    0  502  501  0.00000000000E+00  0.00000000000E+00  0.51748594762E+02  0.51748594762E+02  0.00000000000E+00 0. -1.
         21   -1    0    0  501  502 -0.00000000000E+00 -0.00000000000E+00 -0.97038901358E+03  0.97038901358E+03  0.00000000000E+00 0. -1.
      99926    2    1    2    0    0  0.35527136788E-14  0.00000000000E+00 -0.91864041881E+03  0.10221376083E+04  0.44817973103E+03 0.  0.
      99925    2    3    3    0    0  0.21074970677E+02  0.80847913686E+01 -0.81937650344E+03  0.86086035874E+03  0.26304597437E+03 0.  0.
         25    1    4    4    0    0  0.30406463095E+02  0.60558372332E+00 -0.29916809559E+03  0.32569000177E+03  0.12509000000E+03 0.  0.
         25    1    4    4    0    0 -0.93314924182E+01  0.74792076453E+01 -0.52020840784E+03  0.53517035698E+03  0.12509000000E+03 0.  0.
         25    1    3    3    0    0 -0.21074970677E+02 -0.80847913686E+01 -0.99263915377E+02  0.16127724959E+03  0.12509000000E+03 0.  0.
<mgrwt>
<rscale>  2 0.44817973E+03</rscale>
<asrwt>0</asrwt>
<pdfrwt beam="1">  1       21 0.76100879E-02 0.44817973E+03</pdfrwt>
<pdfrwt beam="2">  1       21 0.14270426E+00 0.44817973E+03</pdfrwt>
<totfact> 0.40426833E+04</totfact>
</mgrwt>
</event>
<event>
 7    0  0.4793433E-002  0.4503279E+03  0.7546771E-02  0.1027624E+00
         21   -1    0    0  502  501  0.00000000000E+00  0.00000000000E+00  0.12099263200E+03  0.12099263200E+03  0.00000000000E+00 0.  1.
         21   -1    0    0  501  502 -0.00000000000E+00 -0.00000000000E+00 -0.41902389039E+03  0.41902389039E+03  0.00000000000E+00 0.  1.
      99926    2    1    2    0    0  0.00000000000E+00  0.00000000000E+00 -0.29803125839E+03  0.54001652240E+03  0.45032789552E+03 0.  0.
      99925    2    3    3    0    0 -0.72593860072E+02 -0.63215647989E+02 -0.24927899303E+03  0.37481852559E+03  0.26283611641E+03 0.  0.
         25    1    4    4    0    0 -0.24459291972E+02 -0.57489657356E+02 -0.16547728809E+03  0.21664154412E+03  0.12509000000E+03 0.  0.
         25    1    4    4    0    0 -0.48134568100E+02 -0.57259906335E+01 -0.83801704947E+02  0.15817698147E+03  0.12509000000E+03 0.  0.
         25    1    3    3    0    0  0.72593860072E+02  0.63215647989E+02 -0.48752265360E+02  0.16519799681E+03  0.12509000000E+03 0.  0.
<mgrwt>
<rscale>  2 0.45032790E+03</rscale>
<asrwt>0</asrwt>
<pdfrwt beam="1">  1       21 0.17793034E-01 0.45032790E+03</pdfrwt>
<pdfrwt beam="2">  1       21 0.61621160E-01 0.45032790E+03</pdfrwt>
<totfact> 0.64897550E+04</totfact>
</mgrwt>
</event>
<event>
 7    0  0.4793433E-002  0.4603711E+03  0.7546771E-02  0.1024674E+00
         21   -1    0    0  502  501  0.00000000000E+00  0.00000000000E+00  0.35194787558E+02  0.35194787558E+02  0.00000000000E+00 0. -1.
         21   -1    0    0  501  502 -0.00000000000E+00 -0.00000000000E+00 -0.15054898199E+04  0.15054898199E+04  0.00000000000E+00 0. -1.
      99926    2    1    2    0    0  0.71054273576E-14 -0.71054273576E-14 -0.14702950323E+04  0.15406846075E+04  0.46037113021E+03 0.  0.
      99925    2    3    3    0    0  0.49629936332E+02 -0.41708144043E+02 -0.12512492217E+04  0.12802402273E+04  0.26303559669E+03 0.  0.
         25    1    4    4    0    0  0.64235161474E+01 -0.39121248548E+02 -0.77082571731E+03  0.78191529478E+03  0.12509000000E+03 0.  0.
         25    1    3    3    0    0 -0.49629936332E+02  0.41708144043E+02 -0.21904581069E+03  0.26044438013E+03  0.12509000000E+03 0.  0.
         25    1    4    4    0    0  0.43206420184E+02 -0.25868954952E+01 -0.48042350435E+03  0.49832493255E+03  0.12509000000E+03 0.  0.
<mgrwt>
<rscale>  2 0.46037113E+03</rscale>
<asrwt>0</asrwt>
<pdfrwt beam="1">  1       21 0.51757047E-02 0.46037113E+03</pdfrwt>
<pdfrwt beam="2">  1       21 0.22139553E+00 0.46037113E+03</pdfrwt>
<totfact> 0.21872677E+04</totfact>
</mgrwt>
</event>
<event>
 7    0  0.4793433E-002  0.4079879E+03  0.7546771E-02  0.1041048E+00
         21   -1    0    0  502  501  0.00000000000E+00  0.00000000000E+00  0.40576876621E+03  0.40576876621E+03  0.00000000000E+00 0. -1.
         21   -1    0    0  501  502 -0.00000000000E+00 -0.00000000000E+00 -0.10255478839E+03  0.10255478839E+03  0.00000000000E+00 0. -1.
      99926    2    1    2    0    0  0.00000000000E+00  0.00000000000E+00  0.30321397782E+03  0.50832355461E+03  0.40798789176E+03 0.  0.
      99925    2    3    3    0    0 -0.43978126264E+02  0.17235533189E+02  0.24503061582E+03  0.36250191387E+03  0.26293819745E+03 0.  0.
         25    1    4    4    0    0 -0.47174388084E+02  0.28821105143E+02  0.93621798378E+02  0.16573662306E+03  0.12509000000E+03 0.  0.
         25    1    3    3    0    0  0.43978126264E+02 -0.17235533189E+02  0.58183361998E+02  0.14582164074E+03  0.12509000000E+03 0.  0.
         25    1    4    4    0    0  0.31962618202E+01 -0.11585571954E+02  0.15140881744E+03  0.19676529081E+03  0.12509000000E+03 0.  0.
<mgrwt>
<rscale>  2 0.40798789E+03</rscale>
<asrwt>0</asrwt>
<pdfrwt beam="1">  1       21 0.59671877E-01 0.40798789E+03</pdfrwt>
<pdfrwt beam="2">  1       21 0.15081587E-01 0.40798789E+03</pdfrwt>
<totfact> 0.95652988E+04</totfact>
</mgrwt>
</event>
<event>
 7    0  0.4793433E-002  0.4555313E+03  0.7546771E-02  0.1026085E+00
         21   -1    0    0  502  501  0.00000000000E+00  0.00000000000E+00  0.22880391952E+03  0.22880391952E+03  0.00000000000E+00 0.  1.
         21   -1    0    0  501  502 -0.00000000000E+00 -0.00000000000E+00 -0.22673210270E+03  0.22673210270E+03  0.00000000000E+00 0.  1.
      99926    2    1    2    0    0  0.00000000000E+00  0.00000000000E+00  0.20718168166E+01  0.45553602222E+03  0.45553131080E+03 0.  0.
      99925    2    3    3    0    0 -0.85921803305E+02  0.21670651699E+02  0.72270059971E+02  0.28693152979E+03  0.26316262612E+03 0.  0.
         25    1    4    4    0    0 -0.47810068892E+02  0.46496007093E+01 -0.50022222753E+01  0.13408934261E+03  0.12509000000E+03 0.  0.
         25    1    4    4    0    0 -0.38111734413E+02  0.17021050990E+02  0.77272282246E+02  0.15284218717E+03  0.12509000000E+03 0.  0.
         25    1    3    3    0    0  0.85921803305E+02 -0.21670651699E+02 -0.70198243154E+02  0.16860449244E+03  0.12509000000E+03 0.  0.
<mgrwt>
<rscale>  2 0.45553131E+03</rscale>
<asrwt>0</asrwt>
<pdfrwt beam="1">  1       21 0.33647635E-01 0.45553131E+03</pdfrwt>
<pdfrwt beam="2">  1       21 0.33342956E-01 0.45553131E+03</pdfrwt>
<totfact> 0.68216887E+04</totfact>
</mgrwt>
</event>
<event>
 7    0  0.4793433E-002  0.4537567E+03  0.7546771E-02  0.1026608E+00
         21   -1    0    0  502  501  0.00000000000E+00  0.00000000000E+00  0.29615366767E+03  0.29615366767E+03  0.00000000000E+00 0. -1.
         21   -1    0    0  501  502 -0.00000000000E+00 -0.00000000000E+00 -0.17380766954E+03  0.17380766954E+03  0.00000000000E+00 0. -1.
      99926    2    1    2    0    0  0.00000000000E+00  0.88817841970E-15  0.12234599813E+03  0.46996133720E+03  0.45375666960E+03 0.  0.
      99925    2    3    3    0    0  0.47633492887E+02  0.46268557998E+01  0.18190563156E+03  0.32338297770E+03  0.26305234087E+03 0.  0.
         25    1    3    3    0    0 -0.47633492887E+02 -0.46268557998E+01 -0.59559633432E+02  0.14657835950E+03  0.12509000000E+03 0.  0.
         25    1    4    4    0    0 -0.15692304574E+02  0.97245305853E+01  0.97302808301E+02  0.15954986531E+03  0.12509000000E+03 0.  0.
         25    1    4    4    0    0  0.63325797461E+02 -0.50976747855E+01  0.84602823262E+02  0.16383311239E+03  0.12509000000E+03 0.  0.
<mgrwt>
<rscale>  2 0.45375667E+03</rscale>
<asrwt>0</asrwt>
<pdfrwt beam="1">  1       21 0.43552010E-01 0.45375667E+03</pdfrwt>
<pdfrwt beam="2">  1       21 0.25559951E-01 0.45375667E+03</pdfrwt>
<totfact> 0.68107909E+04</totfact>
</mgrwt>
</event>
<event>
 7    0  0.4793433E-002  0.4416009E+03  0.7546771E-02  0.1030257E+00
         21   -1    0    0  502  501  0.00000000000E+00  0.00000000000E+00  0.17758595210E+03  0.17758595210E+03  0.00000000000E+00 0.  1.
         21   -1    0    0  501  502 -0.00000000000E+00 -0.00000000000E+00 -0.27453089650E+03  0.27453089650E+03  0.00000000000E+00 0.  1.
      99926    2    1    2    0    0  0.14210854715E-13  0.00000000000E+00 -0.96944944395E+02  0.45211684860E+03  0.44160086339E+03 0.  0.
      99925    2    3    3    0    0 -0.91845789871E+02  0.38374975880E+02 -0.51656241818E+02  0.28596371871E+03  0.26305625484E+03 0.  0.
         25    1    4    4    0    0 -0.45544949675E+02 -0.20724232432E+02 -0.34454328080E+02  0.13906273791E+03  0.12509000000E+03 0.  0.
         25    1    3    3    0    0  0.91845789871E+02 -0.38374975880E+02 -0.45288702577E+02  0.16615312989E+03  0.12509000000E+03 0.  0.
         25    1    4    4    0    0 -0.46300840196E+02  0.59099208312E+02 -0.17201913738E+02  0.14690098081E+03  0.12509000000E+03 0.  0.
<mgrwt>
<rscale>  2 0.44160086E+03</rscale>
<asrwt>0</asrwt>
<pdfrwt beam="1">  1       21 0.26115582E-01 0.44160086E+03</pdfrwt>
<pdfrwt beam="2">  1       21 0.40372190E-01 0.44160086E+03</pdfrwt>
<totfact> 0.76613806E+04</totfact>
</mgrwt>
</event>
<event>
 7    0  0.4793433E-002  0.4531975E+03  0.7546771E-02  0.1026773E+00
         21   -1    0    0  502  501  0.00000000000E+00  0.00000000000E+00  0.22422586197E+03  0.22422586197E+03  0.00000000000E+00 0. -1.
         21   -1    0    0  501  502 -0.00000000000E+00 -0.00000000000E+00 -0.22899676658E+03  0.22899676658E+03  0.00000000000E+00 0. -1.
      99926    2    1    2    0    0  0.00000000000E+00 -0.17763568394E-14 -0.47709046077E+01  0.45322262856E+03  0.45319751710E+03 0.  0.
      99925    2    3    3    0    0  0.42346624164E+02 -0.72669287390E+01 -0.10483800943E+03  0.28737034971E+03  0.26409215217E+03 0.  0.
         25    1    3    3    0    0 -0.42346624164E+02  0.72669287390E+01  0.10006710482E+03  0.16585227885E+03  0.12509000000E+03 0.  0.
         25    1    4    4    0    0  0.96022622760E+01 -0.43545024451E+02 -0.60609930161E+02  0.14597754735E+03  0.12509000000E+03 0.  0.
         25    1    4    4    0    0  0.32744361888E+02  0.36278095712E+02 -0.44228079268E+02  0.14139280236E+03  0.12509000000E+03 0.  0.
<mgrwt>
<rscale>  2 0.45319752E+03</rscale>
<asrwt>0</asrwt>
<pdfrwt beam="1">  1       21 0.32974392E-01 0.45319752E+03</pdfrwt>
<pdfrwt beam="2">  1       21 0.33675995E-01 0.45319752E+03</pdfrwt>
<totfact> 0.69672848E+04</totfact>
</mgrwt>
</event>
<event>
 7    0  0.4793433E-002  0.4628754E+03  0.7546771E-02  0.1023951E+00
         21   -1    0    0  502  501  0.00000000000E+00  0.00000000000E+00  0.34706458156E+03  0.34706458156E+03  0.00000000000E+00 0.  1.
         21   -1    0    0  501  502 -0.00000000000E+00 -0.00000000000E+00 -0.15433268590E+03  0.15433268590E+03  0.00000000000E+00 0.  1.
      99926    2    1    2    0    0  0.00000000000E+00  0.00000000000E+00  0.19273189566E+03  0.50139726746E+03  0.46287540030E+03 0.  0.
      99925    2    3    3    0    0  0.10541487108E+03  0.15646867341E+02  0.59831324724E+02  0.29005113109E+03  0.26304515150E+03 0.  0.
         25    1    4    4    0    0  0.80273341209E+02 -0.11802037286E+02  0.70330229865E+01  0.14926509607E+03  0.12509000000E+03 0.  0.
         25    1    4    4    0    0  0.25141529868E+02  0.27448904627E+02  0.52798301737E+02  0.14078603502E+03  0.12509000000E+03 0.  0.
         25    1    3    3    0    0 -0.10541487108E+03 -0.15646867341E+02  0.13290057094E+03  0.21134613637E+03  0.12509000000E+03 0.  0.
<mgrwt>
<rscale>  2 0.46287540E+03</rscale>
<asrwt>0</asrwt>
<pdfrwt beam="1">  1       21 0.51038909E-01 0.46287540E+03</pdfrwt>
<pdfrwt beam="2">  1       21 0.22695983E-01 0.46287540E+03</pdfrwt>
<totfact> 0.61252725E+04</totfact>
</mgrwt>
</event>
<event>
 7    0  0.4793433E-002  0.4350188E+03  0.7546771E-02  0.1032286E+00
         21   -1    0    0  502  501  0.00000000000E+00  0.00000000000E+00  0.69323783337E+02  0.69323783337E+02  0.00000000000E+00 0. -1.
         21   -1    0    0  501  502 -0.00000000000E+00 -0.00000000000E+00 -0.68245464423E+03  0.68245464423E+03  0.00000000000E+00 0. -1.
      99926    2    1    2    0    0 -0.71054273576E-14  0.00000000000E+00 -0.61313086090E+03  0.75177842757E+03  0.43501879451E+03 0.  0.
      99925    2    3    3    0    0 -0.33792368522E+02  0.66115253971E+02 -0.29350663224E+03  0.40060851624E+03  0.26235069876E+03 0.  0.
         25    1    4    4    0    0 -0.11200503290E+01  0.22251397734E+02 -0.90618638396E+02  0.15606288777E+03  0.12509000000E+03 0.  0.
         25    1    4    4    0    0 -0.32672318193E+02  0.43863856237E+02 -0.20288799385E+03  0.24454562848E+03  0.12509000000E+03 0.  0.
         25    1    3    3    0    0  0.33792368522E+02 -0.66115253971E+02 -0.31962422865E+03  0.35116991133E+03  0.12509000000E+03 0.  0.
<mgrwt>
<rscale>  2 0.43501879E+03</rscale>
<asrwt>0</asrwt>
<pdfrwt beam="1">  1       21 0.10194674E-01 0.43501879E+03</pdfrwt>
<pdfrwt beam="2">  1       21 0.10036098E+00 0.43501879E+03</pdfrwt>
<totfact> 0.58896163E+04</totfact>
</mgrwt>
</event>
<event>
 7    0  0.4793433E-002  0.4609298E+03  0.7546771E-02  0.1024512E+00
         21   -1    0    0  502  501  0.00000000000E+00  0.00000000000E+00  0.81615835449E+02  0.81615835449E+02  0.00000000000E+00 0. -1.
         21   -1    0    0  501  502 -0.00000000000E+00 -0.00000000000E+00 -0.65078141857E+03  0.65078141857E+03  0.00000000000E+00 0. -1.
      99926    2    1    2    0    0 -0.31086244690E-14  0.00000000000E+00 -0.56916558312E+03  0.73239725402E+03  0.46092979583E+03 0.  0.
      99925    2    3    3    0    0  0.13704065482E+01 -0.83777817932E+02 -0.22270030099E+03  0.35463237924E+03  0.26296026231E+03 0.  0.
         25    1    4    4    0    0  0.38331494177E+02 -0.47726645408E+02 -0.95124490263E+02  0.16865145382E+03  0.12509000000E+03 0.  0.
         25    1    4    4    0    0 -0.36961087629E+02 -0.36051172524E+02 -0.12757581073E+03  0.18598092542E+03  0.12509000000E+03 0.  0.
         25    1    3    3    0    0 -0.13704065482E+01  0.83777817932E+02 -0.34646528213E+03  0.37776487477E+03  0.12509000000E+03 0.  0.
<mgrwt>
<rscale>  2 0.46092980E+03</rscale>
<asrwt>0</asrwt>
<pdfrwt beam="1">  1       21 0.12002329E-01 0.46092980E+03</pdfrwt>
<pdfrwt beam="2">  1       21 0.95703150E-01 0.46092980E+03</pdfrwt>
<totfact> 0.48860689E+04</totfact>
</mgrwt>
</event>
<event>
 7    0  0.4793433E-002  0.4486182E+03  0.7546771E-02  0.1028135E+00
         21   -1    0    0  502  501  0.00000000000E+00  0.00000000000E+00  0.47613867435E+02  0.47613867435E+02  0.00000000000E+00 0. -1.
         21   -1    0    0  501  502 -0.00000000000E+00 -0.00000000000E+00 -0.10567211223E+04  0.10567211223E+04  0.00000000000E+00 0. -1.
      99926    2    1    2    0    0  0.00000000000E+00  0.00000000000E+00 -0.10091072548E+04  0.11043349897E+04  0.44861823160E+03 0.  0.
      99925    2    3    3    0    0 -0.40941628460E+02 -0.27514148174E+02 -0.40334713138E+03  0.48383029145E+03  0.26262063369E+03 0.  0.
         25    1    4    4    0    0  0.14379657824E+02 -0.14860386946E+02 -0.23028799621E+03  0.26288338661E+03  0.12509000000E+03 0.  0.
         25    1    3    3    0    0  0.40941628460E+02  0.27514148174E+02 -0.60576012346E+03  0.62050469826E+03  0.12509000000E+03 0.  0.
         25    1    4    4    0    0 -0.55321286285E+02 -0.12653761227E+02 -0.17305913517E+03  0.22094690483E+03  0.12509000000E+03 0.  0.
<mgrwt>
<rscale>  2 0.44861823E+03</rscale>
<asrwt>0</asrwt>
<pdfrwt beam="1">  1       21 0.70020397E-02 0.44861823E+03</pdfrwt>
<pdfrwt beam="2">  1       21 0.15540016E+00 0.44861823E+03</pdfrwt>
<totfact> 0.37158922E+04</totfact>
</mgrwt>
</event>
<event>
 7    0  0.4793433E-002  0.4562556E+03  0.7546771E-02  0.1025873E+00
         21   -1    0    0  502  501  0.00000000000E+00  0.00000000000E+00  0.95874945384E+03  0.95874945384E+03  0.00000000000E+00 0. -1.
         21   -1    0    0  501  502 -0.00000000000E+00 -0.00000000000E+00 -0.54281434402E+02  0.54281434402E+02  0.00000000000E+00 0. -1.
      99926    2    1    2    0    0  0.00000000000E+00  0.35527136788E-14  0.90446801944E+03  0.10130308882E+04  0.45625561076E+03 0.  0.
      99925    2    3    3    0    0 -0.10595365638E+03 -0.24043679995E+02  0.64683999723E+03  0.70672388248E+03  0.26315848497E+03 0.  0.
         25    1    4    4    0    0 -0.15587644467E+02  0.99311657549E+01  0.30214258159E+03  0.32753511327E+03  0.12509000000E+03 0.  0.
         25    1    4    4    0    0 -0.90366011913E+02 -0.33974845750E+02  0.34469741564E+03  0.37918876921E+03  0.12509000000E+03 0.  0.
         25    1    3    3    0    0  0.10595365638E+03  0.24043679995E+02  0.25762802221E+03  0.30630700576E+03  0.12509000000E+03 0.  0.
<mgrwt>
<rscale>  2 0.45625561E+03</rscale>
<asrwt>0</asrwt>
<pdfrwt beam="1">  1       21 0.14099256E+00 0.45625561E+03</pdfrwt>
<pdfrwt beam="2">  1       21 0.79825645E-02 0.45625561E+03</pdfrwt>
<totfact> 0.38286971E+04</totfact>
</mgrwt>
</event>
<event>
 7    0  0.4793433E-002  0.4581770E+03  0.7546771E-02  0.1025311E+00
         21   -1    0    0  502  501  0.00000000000E+00  0.00000000000E+00  0.28584017406E+03  0.28584017406E+03  0.00000000000E+00 0.  1.
         21   -1    0    0  501  502 -0.00000000000E+00 -0.00000000000E+00 -0.18360449047E+03  0.18360449047E+03  0.00000000000E+00 0.  1.
      99926    2    1    2    0    0  0.00000000000E+00  0.00000000000E+00  0.10223568359E+03  0.46944466453E+03  0.45817699425E+03 0.  0.
      99925    2    3    3    0    0  0.10292850482E+03 -0.29301295161E+02  0.11040514104E+03  0.30462023935E+03  0.26296644662E+03 0.  0.
         25    1    4    4    0    0  0.68307909706E+02 -0.21641666442E+02  0.18371345975E+02  0.14532496932E+03  0.12509000000E+03 0.  0.
         25    1    4    4    0    0  0.34620595112E+02 -0.76596287190E+01  0.92033795069E+02  0.15929527003E+03  0.12509000000E+03 0.  0.
         25    1    3    3    0    0 -0.10292850482E+03  0.29301295161E+02 -0.81694574549E+01  0.16482442518E+03  0.12509000000E+03 0.  0.
<mgrwt>
<rscale>  2 0.45817699E+03</rscale>
<asrwt>0</asrwt>
<pdfrwt beam="1">  1       21 0.42035320E-01 0.45817699E+03</pdfrwt>
<pdfrwt beam="2">  1       21 0.27000660E-01 0.45817699E+03</pdfrwt>
<totfact> 0.65803379E+04</totfact>
</mgrwt>
</event>
<event>
 7    0  0.4793433E-002  0.4476803E+03  0.7546771E-02  0.1028416E+00
         21   -1    0    0  502  501  0.00000000000E+00  0.00000000000E+00  0.16526424017E+03  0.16526424017E+03  0.00000000000E+00 0. -1.
         21   -1    0    0  501  502 -0.00000000000E+00 -0.00000000000E+00 -0.30317756336E+03  0.30317756336E+03  0.00000000000E+00 0. -1.
      99926    2    1    2    0    0 -0.31086244690E-14  0.00000000000E+00 -0.13791332318E+03  0.46844180353E+03  0.44768028613E+03 0.  0.
      99925    2    3    3    0    0  0.36310510825E+01 -0.27076283217E+02  0.19989634568E+02  0.26515097292E+03  0.26298126037E+03 0.  0.
         25    1    3    3    0    0 -0.36310510825E+01  0.27076283217E+02 -0.15790295775E+03  0.20329083061E+03  0.12509000000E+03 0.  0.
         25    1    4    4    0    0 -0.28635217715E+02  0.12834613474E+02  0.43365698533E+01  0.12903881949E+03  0.12509000000E+03 0.  0.
         25    1    4    4    0    0  0.32266268798E+02 -0.39910896691E+02  0.15653064715E+02  0.13611215343E+03  0.12509000000E+03 0.  0.
<mgrwt>
<rscale>  2 0.44768029E+03</rscale>
<asrwt>0</asrwt>
<pdfrwt beam="1">  1       21 0.24303565E-01 0.44768029E+03</pdfrwt>
<pdfrwt beam="2">  1       21 0.44584935E-01 0.44768029E+03</pdfrwt>
<totfact> 0.71621946E+04</totfact>
</mgrwt>
</event>
<event>
 7    0  0.4793433E-002  0.4575355E+03  0.7546771E-02  0.1025498E+00
         21   -1    0    0  502  501  0.00000000000E+00  0.00000000000E+00  0.23499706646E+03  0.23499706646E+03  0.00000000000E+00 0.  1.
         21   -1    0    0  501  502 -0.00000000000E+00 -0.00000000000E+00 -0.22270352301E+03  0.22270352301E+03  0.00000000000E+00 0.  1.
      99926    2    1    2    0    0  0.00000000000E+00  0.00000000000E+00  0.12293543448E+02  0.45770058947E+03  0.45753546135E+03 0.  0.
      99925    2    3    3    0    0  0.40839105934E+02  0.90540120446E+02 -0.51172149542E+02  0.28582636723E+03  0.26308321370E+03 0.  0.
         25    1    4    4    0    0  0.78248185937E+01  0.11166568661E+02 -0.45939563925E+02  0.13395473741E+03  0.12509000000E+03 0.  0.
         25    1    4    4    0    0  0.33014287340E+02  0.79373551785E+02 -0.52325856173E+01  0.15187162982E+03  0.12509000000E+03 0.  0.
         25    1    3    3    0    0 -0.40839105934E+02 -0.90540120446E+02  0.63465692990E+02  0.17187422224E+03  0.12509000000E+03 0.  0.
<mgrwt>
<rscale>  2 0.45753546E+03</rscale>
<asrwt>0</asrwt>
<pdfrwt beam="1">  1       21 0.34558392E-01 0.45753546E+03</pdfrwt>
<pdfrwt beam="2">  1       21 0.32750518E-01 0.45753546E+03</pdfrwt>
<totfact> 0.66983033E+04</totfact>
</mgrwt>
</event>
<event>
 7    0  0.4793433E-002  0.4607905E+03  0.7546771E-02  0.1024552E+00
         21   -1    0    0  502  501  0.00000000000E+00  0.00000000000E+00  0.20721853272E+04  0.20721853272E+04  0.00000000000E+00 0.  1.
         21   -1    0    0  501  502 -0.00000000000E+00 -0.00000000000E+00 -0.25616423263E+02  0.25616423263E+02  0.00000000000E+00 0.  1.
      99926    2    1    2    0    0  0.35527136788E-14  0.00000000000E+00  0.20465689039E+04  0.20978017504E+04  0.46079052256E+03 0.  0.
      99925    2    3    3    0    0  0.30527365472E+02 -0.10873022491E+03  0.14432327767E+04  0.14713704515E+04  0.26316530130E+03 0.  0.
         25    1    4    4    0    0 -0.16136461868E+02 -0.70392700037E+02  0.84209783137E+03  0.85439556607E+03  0.12509000000E+03 0.  0.
         25    1    4    4    0    0  0.46663827340E+02 -0.38337524871E+02  0.60113494534E+03  0.61697488539E+03  0.12509000000E+03 0.  0.
         25    1    3    3    0    0 -0.30527365472E+02  0.10873022491E+03  0.60333612721E+03  0.62643129898E+03  0.12509000000E+03 0.  0.
<mgrwt>
<rscale>  2 0.46079052E+03</rscale>
<asrwt>0</asrwt>
<pdfrwt beam="1">  1       21 0.30473302E+00 0.46079052E+03</pdfrwt>
<pdfrwt beam="2">  1       21 0.37671225E-02 0.46079052E+03</pdfrwt>
<totfact> 0.11645530E+04</totfact>
</mgrwt>
</event>
<event>
 7    0  0.4793433E-002  0.4401518E+03  0.7546771E-02  0.1030700E+00
         21   -1    0    0  502  501  0.00000000000E+00  0.00000000000E+00  0.62893572740E+02  0.62893572740E+02  0.00000000000E+00 0.  1.
         21   -1    0    0  501  502 -0.00000000000E+00 -0.00000000000E+00 -0.77008508755E+03  0.77008508755E+03  0.00000000000E+00 0.  1.
      99926    2    1    2    0    0 -0.14210854715E-13 -0.55511151231E-15 -0.70719151481E+03  0.83297866029E+03  0.44015180322E+03 0.  0.
      99925    2    3    3    0    0 -0.94659638240E+02 -0.84633909333E+00 -0.39783820859E+03  0.48612402277E+03  0.26283105200E+03 0.  0.
         25    1    4    4    0    0 -0.69235296290E+02  0.28603799593E+02 -0.17662783299E+03  0.22903406535E+03  0.12509000000E+03 0.  0.
         25    1    4    4    0    0 -0.25424341949E+02 -0.29450138687E+02 -0.22121037561E+03  0.25708995742E+03  0.12509000000E+03 0.  0.
         25    1    3    3    0    0  0.94659638240E+02  0.84633909333E+00 -0.30935330621E+03  0.34685463752E+03  0.12509000000E+03 0.  0.
<mgrwt>
<rscale>  2 0.44015180E+03</rscale>
<asrwt>0</asrwt>
<pdfrwt beam="1">  1       21 0.92490551E-02 0.44015180E+03</pdfrwt>
<pdfrwt beam="2">  1       21 0.11324780E+00 0.44015180E+03</pdfrwt>
<totfact> 0.52009989E+04</totfact>
</mgrwt>
</event>
<event>
 7    0  0.4793433E-002  0.4608638E+03  0.7546771E-02  0.1024531E+00
         21   -1    0    0  502  501  0.00000000000E+00  0.00000000000E+00  0.20382884356E+03  0.20382884356E+03  0.00000000000E+00 0.  1.
         21   -1    0    0  501  502 -0.00000000000E+00 -0.00000000000E+00 -0.26050714849E+03  0.26050714849E+03  0.00000000000E+00 0.  1.
      99926    2    1    2    0    0  0.00000000000E+00  0.00000000000E+00 -0.56678304928E+02  0.46433599205E+03  0.46086384460E+03 0.  0.
      99925    2    3    3    0    0  0.65781250661E+02  0.46249906904E+02  0.52307290451E+02  0.27996789576E+03  0.26302042353E+03 0.  0.
         25    1    4    4    0    0  0.23341233985E+02 -0.17355112133E+02  0.24930909457E+02  0.13082458281E+03  0.12509000000E+03 0.  0.
         25    1    3    3    0    0 -0.65781250661E+02 -0.46249906904E+02 -0.10898559538E+03  0.18436809628E+03  0.12509000000E+03 0.  0.
         25    1    4    4    0    0  0.42440016676E+02  0.63605019037E+02  0.27376380993E+02  0.14914331295E+03  0.12509000000E+03 0.  0.
<mgrwt>
<rscale>  2 0.46086384E+03</rscale>
<asrwt>0</asrwt>
<pdfrwt beam="1">  1       21 0.29974830E-01 0.46086384E+03</pdfrwt>
<pdfrwt beam="2">  1       21 0.38309874E-01 0.46086384E+03</pdfrwt>
<totfact> 0.64782780E+04</totfact>
</mgrwt>
</event>
<event>
 7    0  0.4793433E-002  0.4616063E+03  0.7546771E-02  0.1024316E+00
         21   -1    0    0  502  501  0.00000000000E+00  0.00000000000E+00  0.12159603746E+04  0.12159603746E+04  0.00000000000E+00 0. -1.
         21   -1    0    0  501  502 -0.00000000000E+00 -0.00000000000E+00 -0.43809072330E+02  0.43809072330E+02  0.00000000000E+00 0. -1.
      99926    2    1    2    0    0  0.00000000000E+00 -0.71054273576E-14  0.11721513023E+04  0.12597694469E+04  0.46160630845E+03 0.  0.
      99925    2    3    3    0    0  0.86905213871E+02 -0.41656651522E+02  0.54143500081E+03  0.60958612367E+03  0.26297450306E+03 0.  0.
         25    1    3    3    0    0 -0.86905213871E+02  0.41656651522E+02  0.63071630146E+03  0.65018332326E+03  0.12509000000E+03 0.  0.
         25    1    4    4    0    0  0.62542668648E+02  0.87845679627E+01  0.31731118640E+03  0.34687555571E+03  0.12509000000E+03 0.  0.
         25    1    4    4    0    0  0.24362545223E+02 -0.50441219485E+02  0.22412381441E+03  0.26271056796E+03  0.12509000000E+03 0.  0.
<mgrwt>
<rscale>  2 0.46160631E+03</rscale>
<asrwt>0</asrwt>
<pdfrwt beam="1">  1       21 0.17881768E+00 0.46160631E+03</pdfrwt>
<pdfrwt beam="2">  1       21 0.64425114E-02 0.46160631E+03</pdfrwt>
<totfact> 0.28796316E+04</totfact>
</mgrwt>
</event>
<event>
 7    0  0.4793433E-002  0.4290146E+03  0.7546771E-02  0.1034172E+00
         21   -1    0    0  502  501  0.00000000000E+00  0.00000000000E+00  0.78464942100E+02  0.78464942100E+02  0.00000000000E+00 0. -1.
         21   -1    0    0  501  502 -0.00000000000E+00 -0.00000000000E+00 -0.58641953879E+03  0.58641953879E+03  0.00000000000E+00 0. -1.
      99926    2    1    2    0    0  0.00000000000E+00  0.00000000000E+00 -0.50795459669E+03  0.66488448089E+03  0.42901456925E+03 0.  0.
      99925    2    3    3    0    0  0.13157558516E+02  0.44430859588E+02 -0.44127945749E+03  0.51575264352E+03  0.26291825168E+03 0.  0.
         25    1    4    4    0    0  0.10682119729E+02 -0.92074149889E+01 -0.26177360626E+03  0.29046826541E+03  0.12509000000E+03 0.  0.
         25    1    4    4    0    0  0.24754387866E+01  0.53638274577E+02 -0.17950585123E+03  0.22528437811E+03  0.12509000000E+03 0.  0.
         25    1    3    3    0    0 -0.13157558516E+02 -0.44430859588E+02 -0.66675139199E+02  0.14913183737E+03  0.12509000000E+03 0.  0.
<mgrwt>
<rscale>  2 0.42901457E+03</rscale>
<asrwt>0</asrwt>
<pdfrwt beam="1">  1       21 0.11538963E-01 0.42901457E+03</pdfrwt>
<pdfrwt beam="2">  1       21 0.86238164E-01 0.42901457E+03</pdfrwt>
<totfact> 0.67678039E+04</totfact>
</mgrwt>
</event>
<event>
 7    0  0.4793433E-002  0.4501014E+03  0.7546771E-02  0.1027692E+00
         21   -1    0    0  502  501  0.00000000000E+00  0.00000000000E+00  0.70438266924E+02  0.70438266924E+02  0.00000000000E+00 0.  1.
         21   -1    0    0  501  502 -0.00000000000E+00 -0.00000000000E+00 -0.71903852134E+03  0.71903852134E+03  0.00000000000E+00 0.  1.
      99926    2    1    2    0    0  0.00000000000E+00  0.00000000000E+00 -0.64860025442E+03  0.78947678827E+03  0.45010144321E+03 0.  0.
      99925    2    3    3    0    0  0.36335259562E+02 -0.47612150746E+02 -0.56861845712E+03  0.62937755658E+03  0.26306271300E+03 0.  0.
         25    1    3    3    0    0 -0.36335259562E+02  0.47612150746E+02 -0.79981797302E+02  0.16009923168E+03  0.12509000000E+03 0.  0.
         25    1    4    4    0    0 -0.44246494878E+01 -0.19328231245E+02 -0.35489933863E+03  0.37682118665E+03  0.12509000000E+03 0.  0.
         25    1    4    4    0    0  0.40759909049E+02 -0.28283919501E+02 -0.21371911849E+03  0.25255636994E+03  0.12509000000E+03 0.  0.
<mgrwt>
<rscale>  2 0.45010144E+03</rscale>
<asrwt>0</asrwt>
<pdfrwt beam="1">  1       21 0.10358569E-01 0.45010144E+03</pdfrwt>
<pdfrwt beam="2">  1       21 0.10574096E+00 0.45010144E+03</pdfrwt>
<totfact> 0.50179633E+04</totfact>
</mgrwt>
</event>
<event>
 7    0  0.4793433E-002  0.4494883E+03  0.7546771E-02  0.1027875E+00
         21   -1    0    0  502  501  0.00000000000E+00  0.00000000000E+00  0.55428358277E+03  0.55428358277E+03  0.00000000000E+00 0.  1.
         21   -1    0    0  501  502 -0.00000000000E+00 -0.00000000000E+00 -0.91126530673E+02  0.91126530673E+02  0.00000000000E+00 0.  1.
      99926    2    1    2    0    0  0.00000000000E+00 -0.35527136788E-14  0.46315705209E+03  0.64541011344E+03  0.44948833091E+03 0.  0.
      99925    2    3    3    0    0  0.34958341931E+02 -0.18869155109E+02  0.14919346422E+03  0.30511792532E+03  0.26317318993E+03 0.  0.
         25    1    4    4    0    0  0.41014740903E+02 -0.38265592656E+02  0.97618762383E+02  0.16829555972E+03  0.12509000000E+03 0.  0.
         25    1    3    3    0    0 -0.34958341931E+02  0.18869155109E+02  0.31396358788E+03  0.34029218812E+03  0.12509000000E+03 0.  0.
         25    1    4    4    0    0 -0.60563989719E+01  0.19396437547E+02  0.51574701834E+02  0.13682236560E+03  0.12509000000E+03 0.  0.
<mgrwt>
<rscale>  2 0.44948833E+03</rscale>
<asrwt>0</asrwt>
<pdfrwt beam="1">  1       21 0.81512290E-01 0.44948833E+03</pdfrwt>
<pdfrwt beam="2">  1       21 0.13400961E-01 0.44948833E+03</pdfrwt>
<totfact> 0.58468043E+04</totfact>
</mgrwt>
</event>
<event>
 7    0  0.4793433E-002  0.4436829E+03  0.7546771E-02  0.1029623E+00
         21   -1    0    0  502  501  0.00000000000E+00  0.00000000000E+00  0.93781496303E+02  0.93781496303E+02  0.00000000000E+00 0.  1.
         21   -1    0    0  501  502 -0.00000000000E+00 -0.00000000000E+00 -0.52476905746E+03  0.52476905746E+03  0.00000000000E+00 0.  1.
      99926    2    1    2    0    0 -0.35527136788E-14  0.00000000000E+00 -0.43098756116E+03  0.61855055377E+03  0.44368289317E+03 0.  0.
      99925    2    3    3    0    0  0.21635645718E+02  0.80759975059E+02 -0.35602315955E+03  0.45045104649E+03  0.26298931616E+03 0.  0.
         25    1    4    4    0    0  0.40149603891E+02  0.52025659828E+02 -0.22793888786E+03  0.26818334153E+03  0.12509000000E+03 0.  0.
         25    1    4    4    0    0 -0.18513958173E+02  0.28734315230E+02 -0.12808427169E+03  0.18226770497E+03  0.12509000000E+03 0.  0.
         25    1    3    3    0    0 -0.21635645718E+02 -0.80759975059E+02 -0.74964401611E+02  0.16809950727E+03  0.12509000000E+03 0.  0.
<mgrwt>
<rscale>  2 0.44368289E+03</rscale>
<asrwt>0</asrwt>
<pdfrwt beam="1">  1       21 0.13791397E-01 0.44368289E+03</pdfrwt>
<pdfrwt beam="2">  1       21 0.77171919E-01 0.44368289E+03</pdfrwt>
<totfact> 0.62994163E+04</totfact>
</mgrwt>
</event>
<event>
 7    0  0.4793433E-002  0.4552262E+03  0.7546771E-02  0.1026175E+00
         21   -1    0    0  502  501  0.00000000000E+00  0.00000000000E+00  0.31739292431E+03  0.31739292431E+03  0.00000000000E+00 0.  1.
         21   -1    0    0  501  502 -0.00000000000E+00 -0.00000000000E+00 -0.16322901262E+03  0.16322901262E+03  0.00000000000E+00 0.  1.
      99926    2    1    2    0    0  0.00000000000E+00  0.00000000000E+00  0.15416391169E+03  0.48062193693E+03  0.45522624550E+03 0.  0.
      99925    2    3    3    0    0 -0.32498498299E+02 -0.10861418141E+03  0.10060901269E+03  0.30350946391E+03  0.26294985919E+03 0.  0.
         25    1    4    4    0    0  0.53396618964E+01 -0.52905552226E+02  0.12862639493E+02  0.13653008841E+03  0.12509000000E+03 0.  0.
         25    1    4    4    0    0 -0.37838160195E+02 -0.55708629183E+02  0.87746373200E+02  0.16697937550E+03  0.12509000000E+03 0.  0.
         25    1    3    3    0    0  0.32498498299E+02  0.10861418141E+03  0.53554899000E+02  0.17711247303E+03  0.12509000000E+03 0.  0.
<mgrwt>
<rscale>  2 0.45522625E+03</rscale>
<asrwt>0</asrwt>
<pdfrwt beam="1">  1       21 0.46675430E-01 0.45522625E+03</pdfrwt>
<pdfrwt beam="2">  1       21 0.24004267E-01 0.45522625E+03</pdfrwt>
<totfact> 0.66535287E+04</totfact>
</mgrwt>
</event>
<event>
 7    0  0.4793433E-002  0.4543102E+03  0.7546771E-02  0.1026444E+00
         21   -1    0    0  502  501  0.00000000000E+00  0.00000000000E+00  0.28829370422E+03  0.28829370422E+03  0.00000000000E+00 0.  1.
         21   -1    0    0  501  502 -0.00000000000E+00 -0.00000000000E+00 -0.17898217005E+03  0.17898217005E+03  0.00000000000E+00 0.  1.
      99926    2    1    2    0    0 -0.14210854715E-13 -0.35527136788E-14  0.10931153417E+03  0.46727587427E+03  0.45431017067E+03 0.  0.
      99925    2    3    3    0    0 -0.88848261455E+02  0.17332310609E+02  0.11345973126E+00  0.27815646724E+03  0.26301441945E+03 0.  0.
         25    1    4    4    0    0 -0.80743680681E+02 -0.11808686577E+02  0.39237588325E+01  0.14940512385E+03  0.12509000000E+03 0.  0.
         25    1    3    3    0    0  0.88848261455E+02 -0.17332310609E+02  0.10919807444E+03  0.18911940703E+03  0.12509000000E+03 0.  0.
         25    1    4    4    0    0 -0.81045807745E+01  0.29140997186E+02 -0.38102991013E+01  0.12875134339E+03  0.12509000000E+03 0.  0.
<mgrwt>
<rscale>  2 0.45431017E+03</rscale>
<asrwt>0</asrwt>
<pdfrwt beam="1">  1       21 0.42396133E-01 0.45431017E+03</pdfrwt>
<pdfrwt beam="2">  1       21 0.26320907E-01 0.45431017E+03</pdfrwt>
<totfact> 0.68010385E+04</totfact>
</mgrwt>
</event>
<event>
 7    0  0.4793433E-002  0.4558569E+03  0.7546771E-02  0.1025990E+00
         21   -1    0    0  502  501  0.00000000000E+00  0.00000000000E+00  0.10447061116E+03  0.10447061116E+03  0.00000000000E+00 0.  1.
         21   -1    0    0  501  502 -0.00000000000E+00 -0.00000000000E+00 -0.49728223317E+03  0.49728223317E+03  0.00000000000E+00 0.  1.
      99926    2    1    2    0    0  0.00000000000E+00  0.71054273576E-14 -0.39281162201E+03  0.60175284433E+03  0.45585690219E+03 0.  0.
      99925    2    3    3    0    0 -0.96844687633E+02  0.59688133044E+02 -0.23789137598E+03  0.37242914848E+03  0.26300113521E+03 0.  0.
         25    1    4    4    0    0 -0.63982754148E+02  0.65418732879E+02 -0.15188890486E+03  0.21700495607E+03  0.12509000000E+03 0.  0.
         25    1    4    4    0    0 -0.32861933485E+02 -0.57305998346E+01 -0.86002471128E+02  0.15542419241E+03  0.12509000000E+03 0.  0.
         25    1    3    3    0    0  0.96844687633E+02 -0.59688133044E+02 -0.15492024603E+03  0.22932369585E+03  0.12509000000E+03 0.  0.
<mgrwt>
<rscale>  2 0.45585690E+03</rscale>
<asrwt>0</asrwt>
<pdfrwt beam="1">  1       21 0.15363325E-01 0.45585690E+03</pdfrwt>
<pdfrwt beam="2">  1       21 0.73129741E-01 0.45585690E+03</pdfrwt>
<totfact> 0.58175637E+04</totfact>
</mgrwt>
</event>
<event>
 7    0  0.4793433E-002  0.4473598E+03  0.7546771E-02  0.1028512E+00
         21   -1    0    0  502  501  0.00000000000E+00  0.00000000000E+00  0.21313330097E+03  0.21313330097E+03  0.00000000000E+00 0. -1.
         21   -1    0    0  501  502 -0.00000000000E+00 -0.00000000000E+00 -0.23474840613E+03  0.23474840613E+03  0.00000000000E+00 0. -1.
      99926    2    1    2    0    0  0.00000000000E+00  0.00000000000E+00 -0.21615105163E+02  0.44788170709E+03  0.44735982249E+03 0.  0.
      99925    2    3    3    0    0  0.71868946753E+02 -0.77540314649E+02 -0.84340398187E+01  0.28356830385E+03  0.26298707956E+03 0.  0.
         25    1    3    3    0    0 -0.71868946753E+02  0.77540314649E+02 -0.13181065345E+02  0.16431340325E+03  0.12509000000E+03 0.  0.
         25    1    4    4    0    0  0.29603144584E+01 -0.53469748580E+02 -0.23030403492E+02  0.13800610515E+03  0.12509000000E+03 0.  0.
         25    1    4    4    0    0  0.68908632295E+02 -0.24070566069E+02  0.14596363673E+02  0.14556219869E+03  0.12509000000E+03 0.  0.
<mgrwt>
<rscale>  2 0.44735982E+03</rscale>
<asrwt>0</asrwt>
<pdfrwt beam="1">  1       21 0.31343133E-01 0.44735982E+03</pdfrwt>
<pdfrwt beam="2">  1       21 0.34521824E-01 0.44735982E+03</pdfrwt>
<totfact> 0.73446703E+04</totfact>
</mgrwt>
</event>
<event>
 7    0  0.4793433E-002  0.4575023E+03  0.7546771E-02  0.1025508E+00
         21   -1    0    0  502  501  0.00000000000E+00  0.00000000000E+00  0.57645916245E+03  0.57645916245E+03  0.00000000000E+00 0. -1.
         21   -1    0    0  501  502 -0.00000000000E+00 -0.00000000000E+00 -0.90773284608E+02  0.90773284608E+02  0.00000000000E+00 0. -1.
      99926    2    1    2    0    0 -0.14210854715E-13 -0.14210854715E-13  0.48568587784E+03  0.66723244706E+03  0.45750231308E+03 0.  0.
      99925    2    3    3    0    0 -0.92871475970E+02 -0.66399705850E+02  0.33136579157E+03  0.43811189121E+03  0.26287774613E+03 0.  0.
         25    1    4    4    0    0 -0.68072525240E+02 -0.35842478151E+02  0.12128643031E+03  0.19046379763E+03  0.12509000000E+03 0.  0.
         25    1    3    3    0    0  0.92871475970E+02  0.66399705850E+02  0.15432008627E+03  0.22912055585E+03  0.12509000000E+03 0.  0.
         25    1    4    4    0    0 -0.24798950730E+02 -0.30557227699E+02  0.21007936126E+03  0.24764809357E+03  0.12509000000E+03 0.  0.
<mgrwt>
<rscale>  2 0.45750231E+03</rscale>
<asrwt>0</asrwt>
<pdfrwt beam="1">  1       21 0.84773405E-01 0.45750231E+03</pdfrwt>
<pdfrwt beam="2">  1       21 0.13349013E-01 0.45750231E+03</pdfrwt>
<totfact> 0.53652003E+04</totfact>
</mgrwt>
</event>
<event>
 7    0  0.4793433E-002  0.4536895E+03  0.7546771E-02  0.1026627E+00
         21   -1    0    0  502  501  0.00000000000E+00  0.00000000000E+00  0.17990041907E+03  0.17990041907E+03  0.00000000000E+00 0. -1.
         21   -1    0    0  501  502 -0.00000000000E+00 -0.00000000000E+00 -0.28603907867E+03  0.28603907867E+03  0.00000000000E+00 0. -1.
      99926    2    1    2    0    0  0.00000000000E+00  0.00000000000E+00 -0.10613865960E+03  0.46593949774E+03  0.45368954197E+03 0.  0.
      99925    2    3    3    0    0  0.64046427169E+02  0.91528351132E+01  0.26902110420E+02  0.27220495304E+03  0.26303249550E+03 0.  0.
         25    1    3    3    0    0 -0.64046427169E+02 -0.91528351132E+01 -0.13304077002E+03  0.19373454470E+03  0.12509000000E+03 0.  0.
         25    1    4    4    0    0  0.67117527202E+01 -0.26887946940E+02  0.44635182414E+01  0.12820078163E+03  0.12509000000E+03 0.  0.
         25    1    4    4    0    0  0.57334674449E+02  0.36040782053E+02  0.22438592179E+02  0.14400417141E+03  0.12509000000E+03 0.  0.
<mgrwt>
<rscale>  2 0.45368954E+03</rscale>
<asrwt>0</asrwt>
<pdfrwt beam="1">  1       21 0.26455944E-01 0.45368954E+03</pdfrwt>
<pdfrwt beam="2">  1       21 0.42064570E-01 0.45368954E+03</pdfrwt>
<totfact> 0.68447884E+04</totfact>
</mgrwt>
</event>
<event>
 7    0  0.4793433E-002  0.4578318E+03  0.7546771E-02  0.1025412E+00
         21   -1    0    0  502  501  0.00000000000E+00  0.00000000000E+00  0.50918856911E+03  0.50918856911E+03  0.00000000000E+00 0.  1.
         21   -1    0    0  501  502 -0.00000000000E+00 -0.00000000000E+00 -0.10291372186E+03  0.10291372186E+03  0.00000000000E+00 0.  1.
      99926    2    1    2    0    0  0.00000000000E+00  0.00000000000E+00  0.40627484725E+03  0.61210229096E+03  0.45783180656E+03 0.  0.
      99925    2    3    3    0    0  0.52928813239E+02  0.38125175810E+02  0.38339175783E+03  0.46918227073E+03  0.26246480697E+03 0.  0.
         25    1    3    3    0    0 -0.52928813239E+02 -0.38125175810E+02  0.22883089423E+02  0.14292002023E+03  0.12509000000E+03 0.  0.
         25    1    4    4    0    0  0.29606378013E+02  0.57428122736E+02  0.18053611822E+03  0.22894393414E+03  0.12509000000E+03 0.  0.
         25    1    4    4    0    0  0.23322435226E+02 -0.19302946926E+02  0.20285563961E+03  0.24023833659E+03  0.12509000000E+03 0.  0.
<mgrwt>
<rscale>  2 0.45783181E+03</rscale>
<asrwt>0</asrwt>
<pdfrwt beam="1">  1       21 0.74880671E-01 0.45783181E+03</pdfrwt>
<pdfrwt beam="2">  1       21 0.15134371E-01 0.45783181E+03</pdfrwt>
<totfact> 0.56661427E+04</totfact>
</mgrwt>
</event>
<event>
 7    0  0.4793433E-002  0.4534601E+03  0.7546771E-02  0.1026695E+00
         21   -1    0    0  502  501  0.00000000000E+00  0.00000000000E+00  0.23255719971E+03  0.23255719971E+03  0.00000000000E+00 0. -1.
         21   -1    0    0  501  502 -0.00000000000E+00 -0.00000000000E+00 -0.22104895736E+03  0.22104895736E+03  0.00000000000E+00 0. -1.
      99926    2    1    2    0    0  0.00000000000E+00  0.00000000000E+00  0.11508242353E+02  0.45360615708E+03  0.45346014830E+03 0.  0.
      99925    2    3    3    0    0  0.10360674512E+03  0.41499694113E+02  0.13012329762E+02  0.28595666372E+03  0.26295495917E+03 0.  0.
         25    1    4    4    0    0  0.20681101486E+02  0.46512165913E+02 -0.18117099816E+01  0.13506250379E+03  0.12509000000E+03 0.  0.
         25    1    3    3    0    0 -0.10360674512E+03 -0.41499694113E+02 -0.15040874093E+01  0.16764949336E+03  0.12509000000E+03 0.  0.
         25    1    4    4    0    0  0.82925643633E+02 -0.50124718004E+01  0.14824039743E+02  0.15089415993E+03  0.12509000000E+03 0.  0.
<mgrwt>
<rscale>  2 0.45346015E+03</rscale>
<asrwt>0</asrwt>
<pdfrwt beam="1">  1       21 0.34199588E-01 0.45346015E+03</pdfrwt>
<pdfrwt beam="2">  1       21 0.32507199E-01 0.45346015E+03</pdfrwt>
<totfact> 0.69497993E+04</totfact>
</mgrwt>
</event>
<event>
 7    0  0.4793433E-002  0.4469850E+03  0.7546771E-02  0.1028625E+00
         21   -1    0    0  502  501  0.00000000000E+00  0.00000000000E+00  0.23713332021E+03  0.23713332021E+03  0.00000000000E+00 0.  1.
         21   -1    0    0  501  502 -0.00000000000E+00 -0.00000000000E+00 -0.21063631501E+03  0.21063631501E+03  0.00000000000E+00 0.  1.
      99926    2    1    2    0    0  0.00000000000E+00  0.17763568394E-14  0.26497005207E+02  0.44776963522E+03  0.44698496053E+03 0.  0.
      99925    2    3    3    0    0  0.72742427078E+02  0.10007959451E+02 -0.59058583915E+02  0.27936866467E+03  0.26299679564E+03 0.  0.
         25    1    4    4    0    0  0.44454532527E+02  0.28151775376E+02 -0.63365781647E+02  0.14977135341E+03  0.12509000000E+03 0.  0.
         25    1    3    3    0    0 -0.72742427078E+02 -0.10007959451E+02  0.85555589122E+02  0.16840097054E+03  0.12509000000E+03 0.  0.
         25    1    4    4    0    0  0.28287894550E+02 -0.18143815925E+02  0.43071977317E+01  0.12959731126E+03  0.12509000000E+03 0.  0.
<mgrwt>
<rscale>  2 0.44698496E+03</rscale>
<asrwt>0</asrwt>
<pdfrwt beam="1">  1       21 0.34872547E-01 0.44698496E+03</pdfrwt>
<pdfrwt beam="2">  1       21 0.30975929E-01 0.44698496E+03</pdfrwt>
<totfact> 0.73679073E+04</totfact>
</mgrwt>
</event>
<event>
 7    0  0.4793433E-002  0.4496424E+03  0.7546771E-02  0.1027829E+00
         21   -1    0    0  502  501  0.00000000000E+00  0.00000000000E+00  0.19143422866E+04  0.19143422866E+04  0.00000000000E+00 0.  1.
         21   -1    0    0  501  502 -0.00000000000E+00 -0.00000000000E+00 -0.26403097493E+02  0.26403097493E+02  0.00000000000E+00 0.  1.
      99926    2    1    2    0    0  0.00000000000E+00  0.88817841970E-15  0.18879391891E+04  0.19407453841E+04  0.44964237356E+03 0.  0.
      99925    2    3    3    0    0 -0.52996245543E+01  0.26555374688E+01  0.16597867475E+04  0.16804836262E+04  0.26286504696E+03 0.  0.
         25    1    4    4    0    0 -0.10842489078E+02 -0.43802199776E+01  0.58079354966E+03  0.59422672552E+03  0.12509000000E+03 0.  0.
         25    1    4    4    0    0  0.55428645240E+01  0.70357574464E+01  0.10789931978E+04  0.10862569007E+04  0.12509000000E+03 0.  0.
         25    1    3    3    0    0  0.52996245543E+01 -0.26555374688E+01  0.22815244161E+03  0.26026175787E+03  0.12509000000E+03 0.  0.
<mgrwt>
<rscale>  2 0.44964237E+03</rscale>
<asrwt>0</asrwt>
<pdfrwt beam="1">  1       21 0.28152083E+00 0.44964237E+03</pdfrwt>
<pdfrwt beam="2">  1       21 0.38828098E-02 0.44964237E+03</pdfrwt>
<totfact> 0.15329138E+04</totfact>
</mgrwt>
</event>
<event>
 7    0  0.4793433E-002  0.4548419E+03  0.7546771E-02  0.1026288E+00
         21   -1    0    0  502  501  0.00000000000E+00  0.00000000000E+00  0.16900438717E+03  0.16900438717E+03  0.00000000000E+00 0.  1.
         21   -1    0    0  501  502 -0.00000000000E+00 -0.00000000000E+00 -0.30602921619E+03  0.30602921619E+03  0.00000000000E+00 0.  1.
      99926    2    1    2    0    0  0.00000000000E+00  0.00000000000E+00 -0.13702482902E+03  0.47503360336E+03  0.45484186323E+03 0.  0.
      99925    2    3    3    0    0 -0.10342746405E+03 -0.37234120749E+02 -0.11261577497E+03  0.30672754260E+03  0.26327903933E+03 0.  0.
         25    1    3    3    0    0  0.10342746405E+03  0.37234120749E+02 -0.24409054051E+02  0.16830606076E+03  0.12509000000E+03 0.  0.
         25    1    4    4    0    0 -0.86961174357E+02 -0.34833137322E+02 -0.40740539943E+02  0.16150199069E+03  0.12509000000E+03 0.  0.
         25    1    4    4    0    0 -0.16466289694E+02 -0.24009834269E+01 -0.71875235025E+02  0.14522555191E+03  0.12509000000E+03 0.  0.
<mgrwt>
<rscale>  2 0.45484186E+03</rscale>
<asrwt>0</asrwt>
<pdfrwt beam="1">  1       21 0.24853587E-01 0.45484186E+03</pdfrwt>
<pdfrwt beam="2">  1       21 0.45004296E-01 0.45484186E+03</pdfrwt>
<totfact> 0.67147665E+04</totfact>
</mgrwt>
</event>
<event>
 7    0  0.4793433E-002  0.4512410E+03  0.7546771E-02  0.1027353E+00
         21   -1    0    0  502  501  0.00000000000E+00  0.00000000000E+00  0.10925617104E+04  0.10925617104E+04  0.00000000000E+00 0.  1.
         21   -1    0    0  501  502 -0.00000000000E+00 -0.00000000000E+00 -0.46591970387E+02  0.46591970387E+02  0.00000000000E+00 0.  1.
      99926    2    1    2    0    0  0.00000000000E+00  0.00000000000E+00  0.10459697400E+04  0.11391536808E+04  0.45124096825E+03 0.  0.
      99925    2    3    3    0    0 -0.64550471765E+02  0.49590560138E+02  0.47543284581E+03  0.54941997579E+03  0.26305879925E+03 0.  0.
         25    1    4    4    0    0 -0.85298994252E+01  0.45054295041E+02  0.28650669241E+03  0.31596873513E+03  0.12509000000E+03 0.  0.
         25    1    4    4    0    0 -0.56020572340E+02  0.45362650961E+01  0.18892615340E+03  0.23345124065E+03  0.12509000000E+03 0.  0.
         25    1    3    3    0    0  0.64550471765E+02 -0.49590560138E+02  0.57053689418E+03  0.58973370497E+03  0.12509000000E+03 0.  0.
<mgrwt>
<rscale>  2 0.45124097E+03</rscale>
<asrwt>0</asrwt>
<pdfrwt beam="1">  1       21 0.16067082E+00 0.45124097E+03</pdfrwt>
<pdfrwt beam="2">  1       21 0.68517611E-02 0.45124097E+03</pdfrwt>
<totfact> 0.35165685E+04</totfact>
</mgrwt>
</event>
<event>
 7    0  0.4793433E-002  0.4561421E+03  0.7546771E-02  0.1025906E+00
         21   -1    0    0  502  501  0.00000000000E+00  0.00000000000E+00  0.13842760900E+03  0.13842760900E+03  0.00000000000E+00 0. -1.
         21   -1    0    0  501  502 -0.00000000000E+00 -0.00000000000E+00 -0.37576616111E+03  0.37576616111E+03  0.00000000000E+00 0. -1.
      99926    2    1    2    0    0 -0.35527136788E-14 -0.14210854715E-13 -0.23733855212E+03  0.51419377011E+03  0.45614213234E+03 0.  0.
      99925    2    3    3    0    0  0.25447738544E+02  0.10247802131E+03 -0.10022908208E+03  0.30066192910E+03  0.26306347992E+03 0.  0.
         25    1    3    3    0    0 -0.25447738544E+02 -0.10247802131E+03 -0.13710947004E+03  0.21353184100E+03  0.12509000000E+03 0.  0.
         25    1    4    4    0    0  0.49580212360E+02  0.61636327542E+02 -0.36300328630E+02  0.15238916067E+03  0.12509000000E+03 0.  0.
         25    1    4    4    0    0 -0.24132473815E+02  0.40841693765E+02 -0.63928753445E+02  0.14827276843E+03  0.12509000000E+03 0.  0.
<mgrwt>
<rscale>  2 0.45614213E+03</rscale>
<asrwt>0</asrwt>
<pdfrwt beam="1">  1       21 0.20357001E-01 0.45614213E+03</pdfrwt>
<pdfrwt beam="2">  1       21 0.55259729E-01 0.45614213E+03</pdfrwt>
<totfact> 0.63705231E+04</totfact>
</mgrwt>
</event>
<event>
 7    0  0.4793433E-002  0.4337536E+03  0.7546771E-02  0.1032681E+00
         21   -1    0    0  502  501  0.00000000000E+00  0.00000000000E+00  0.31118423362E+03  0.31118423362E+03  0.00000000000E+00 0.  1.
         21   -1    0    0  501  502 -0.00000000000E+00 -0.00000000000E+00 -0.15115015410E+03  0.15115015410E+03  0.00000000000E+00 0.  1.
      99926    2    1    2    0    0  0.71054273576E-14  0.71054273576E-14  0.16003407952E+03  0.46233438773E+03  0.43375359303E+03 0.  0.
      99925    2    3    3    0    0  0.55173168621E+02  0.49184838536E+02  0.16104535148E+03  0.31703553141E+03  0.26289293650E+03 0.  0.
         25    1    4    4    0    0  0.84443982544E+01  0.63481012515E+01  0.39913701162E+02  0.13172781746E+03  0.12509000000E+03 0.  0.
         25    1    3    3    0    0 -0.55173168621E+02 -0.49184838536E+02 -0.10112719572E+01  0.14529885632E+03  0.12509000000E+03 0.  0.
         25    1    4    4    0    0  0.46728770367E+02  0.42836737285E+02  0.12113165032E+03  0.18530771395E+03  0.12509000000E+03 0.  0.
<mgrwt>
<rscale>  2 0.43375359E+03</rscale>
<asrwt>0</asrwt>
<pdfrwt beam="1">  1       21 0.45762387E-01 0.43375359E+03</pdfrwt>
<pdfrwt beam="2">  1       21 0.22227964E-01 0.43375359E+03</pdfrwt>
<totfact> 0.80797265E+04</totfact>
</mgrwt>
</event>
<event>
 7    0  0.4793433E-002  0.4559403E+03  0.7546771E-02  0.1025965E+00
         21   -1    0    0  502  501  0.00000000000E+00  0.00000000000E+00  0.59620256724E+02  0.59620256724E+02  0.00000000000E+00 0. -1.
         21   -1    0    0  501  502 -0.00000000000E+00 -0.00000000000E+00 -0.87169020320E+03  0.87169020320E+03  0.00000000000E+00 0. -1.
      99926    2    1    2    0    0  0.00000000000E+00  0.00000000000E+00 -0.81206994648E+03  0.93131045992E+03  0.45594031933E+03 0.  0.
      99925    2    3    3    0    0 -0.37345910756E+02  0.21180809436E+02 -0.29450767231E+03  0.39711802317E+03  0.26291559775E+03 0.  0.
         25    1    4    4    0    0  0.16789917097E+02  0.30194517727E+02 -0.14621154311E+03  0.19549663336E+03  0.12509000000E+03 0.  0.
         25    1    4    4    0    0 -0.54135827853E+02 -0.90137082913E+01 -0.14829612920E+03  0.20162138981E+03  0.12509000000E+03 0.  0.
         25    1    3    3    0    0  0.37345910756E+02 -0.21180809436E+02 -0.51756227417E+03  0.53419243675E+03  0.12509000000E+03 0.  0.
<mgrwt>
<rscale>  2 0.45594032E+03</rscale>
<asrwt>0</asrwt>
<pdfrwt beam="1">  1       21 0.87676848E-02 0.45594032E+03</pdfrwt>
<pdfrwt beam="2">  1       21 0.12818974E+00 0.45594032E+03</pdfrwt>
<totfact> 0.41600234E+04</totfact>
</mgrwt>
</event>
<event>
 7    0  0.4793433E-002  0.4723969E+03  0.7546771E-02  0.1021246E+00
         21   -1    0    0  502  501  0.00000000000E+00  0.00000000000E+00  0.64436840356E+03  0.64436840356E+03  0.00000000000E+00 0.  1.
         21   -1    0    0  501  502 -0.00000000000E+00 -0.00000000000E+00 -0.86580460095E+02  0.86580460095E+02  0.00000000000E+00 0.  1.
      99926    2    1    2    0    0  0.14210854715E-13  0.88817841970E-15  0.55778794347E+03  0.73094886366E+03  0.47239692146E+03 0.  0.
      99925    2    3    3    0    0  0.12468558219E+03 -0.17990180331E+01  0.39592786307E+03  0.49137439799E+03  0.26294523265E+03 0.  0.
         25    1    3    3    0    0 -0.12468558219E+03  0.17990180331E+01  0.16186008040E+03  0.23957446567E+03  0.12509000000E+03 0.  0.
         25    1    4    4    0    0  0.53341770265E+02  0.36055363801E+02  0.16808126782E+03  0.21918976802E+03  0.12509000000E+03 0.  0.
         25    1    4    4    0    0  0.71343811927E+02 -0.37854381834E+02  0.22784659525E+03  0.27218462997E+03  0.12509000000E+03 0.  0.
<mgrwt>
<rscale>  2 0.47239692E+03</rscale>
<asrwt>0</asrwt>
<pdfrwt beam="1">  1       21 0.94760056E-01 0.47239692E+03</pdfrwt>
<pdfrwt beam="2">  1       21 0.12732421E-01 0.47239692E+03</pdfrwt>
<totfact> 0.44803444E+04</totfact>
</mgrwt>
</event>
<event>
 7    0  0.4793433E-002  0.4587629E+03  0.7546771E-02  0.1025141E+00
         21   -1    0    0  502  501  0.00000000000E+00  0.00000000000E+00  0.37860314277E+03  0.37860314277E+03  0.00000000000E+00 0. -1.
         21   -1    0    0  501  502 -0.00000000000E+00 -0.00000000000E+00 -0.13897362369E+03  0.13897362369E+03  0.00000000000E+00 0. -1.
      99926    2    1    2    0    0  0.00000000000E+00  0.00000000000E+00  0.23962951907E+03  0.51757676646E+03  0.45876290474E+03 0.  0.
      99925    2    3    3    0    0 -0.83812687021E+02 -0.95505528549E+01  0.59217639456E+02  0.28239229849E+03  0.26291234634E+03 0.  0.
         25    1    4    4    0    0 -0.73104875410E+02  0.22251605319E+02  0.29899158424E+02  0.14960255520E+03  0.12509000000E+03 0.  0.
         25    1    4    4    0    0 -0.10707811612E+02 -0.31802158174E+02  0.29318481032E+02  0.13278974329E+03  0.12509000000E+03 0.  0.
         25    1    3    3    0    0  0.83812687021E+02  0.95505528549E+01  0.18041187962E+03  0.23518446796E+03  0.12509000000E+03 0.  0.
<mgrwt>
<rscale>  2 0.45876290E+03</rscale>
<asrwt>0</asrwt>
<pdfrwt beam="1">  1       21 0.55676933E-01 0.45876290E+03</pdfrwt>
<pdfrwt beam="2">  1       21 0.20437298E-01 0.45876290E+03</pdfrwt>
<totfact> 0.62175358E+04</totfact>
</mgrwt>
</event>
<event>
 7    0  0.4793433E-002  0.4558427E+03  0.7546771E-02  0.1025994E+00
         21   -1    0    0  502  501  0.00000000000E+00  0.00000000000E+00  0.13278500184E+03  0.13278500184E+03  0.00000000000E+00 0.  1.
         21   -1    0    0  501  502 -0.00000000000E+00 -0.00000000000E+00 -0.39121994349E+03  0.39121994349E+03  0.00000000000E+00 0.  1.
      99926    2    1    2    0    0  0.00000000000E+00  0.00000000000E+00 -0.25843494165E+03  0.52400494533E+03  0.45584269619E+03 0.  0.
      99925    2    3    3    0    0 -0.68382296416E+02  0.11681805740E+02 -0.26642430717E+03  0.38074315311E+03  0.26300348694E+03 0.  0.
         25    1    3    3    0    0  0.68382296416E+02 -0.11681805740E+02  0.79893655194E+01  0.14326179222E+03  0.12509000000E+03 0.  0.
         25    1    4    4    0    0 -0.44083624421E+02  0.33639875921E+02 -0.17611444705E+03  0.22302200285E+03  0.12509000000E+03 0.  0.
         25    1    4    4    0    0 -0.24298671994E+02 -0.21958070181E+02 -0.90309860113E+02  0.15772115026E+03  0.12509000000E+03 0.  0.
<mgrwt>
<rscale>  2 0.45584270E+03</rscale>
<asrwt>0</asrwt>
<pdfrwt beam="1">  1       21 0.19527207E-01 0.45584270E+03</pdfrwt>
<pdfrwt beam="2">  1       21 0.57532344E-01 0.45584270E+03</pdfrwt>
<totfact> 0.63190938E+04</totfact>
</mgrwt>
</event>
<event>
 7    0  0.4793433E-002  0.4640297E+03  0.7546771E-02  0.1023619E+00
         21   -1    0    0  502  501  0.00000000000E+00  0.00000000000E+00  0.15772889781E+03  0.15772889781E+03  0.00000000000E+00 0.  1.
         21   -1    0    0  501  502 -0.00000000000E+00 -0.00000000000E+00 -0.34128749006E+03  0.34128749006E+03  0.00000000000E+00 0.  1.
      99926    2    1    2    0    0  0.00000000000E+00  0.71054273576E-14 -0.18355859224E+03  0.49901638787E+03  0.46402973889E+03 0.  0.
      99925    2    3    3    0    0  0.22783972788E+02 -0.62108072682E+02 -0.49648579824E+01  0.27115732589E+03  0.26291657130E+03 0.  0.
         25    1    3    3    0    0 -0.22783972788E+02  0.62108072682E+02 -0.17859373426E+03  0.22785906198E+03  0.12509000000E+03 0.  0.
         25    1    4    4    0    0  0.45732838173E+02 -0.19905311960E+02  0.15688553651E+02  0.13557784755E+03  0.12509000000E+03 0.  0.
         25    1    4    4    0    0 -0.22948865385E+02 -0.42202760722E+02 -0.20653411633E+02  0.13557947834E+03  0.12509000000E+03 0.  0.
<mgrwt>
<rscale>  2 0.46402974E+03</rscale>
<asrwt>0</asrwt>
<pdfrwt beam="1">  1       21 0.23195427E-01 0.46402974E+03</pdfrwt>
<pdfrwt beam="2">  1       21 0.50189336E-01 0.46402974E+03</pdfrwt>
<totfact> 0.60858870E+04</totfact>
</mgrwt>
</event>
<event>
 7    0  0.4793433E-002  0.4554199E+03  0.7546771E-02  0.1026118E+00
         21   -1    0    0  502  501  0.00000000000E+00  0.00000000000E+00  0.81947313880E+02  0.81947313880E+02  0.00000000000E+00 0. -1.
         21   -1    0    0  501  502 -0.00000000000E+00 -0.00000000000E+00 -0.63274572906E+03  0.63274572906E+03  0.00000000000E+00 0. -1.
      99926    2    1    2    0    0  0.17763568394E-14  0.00000000000E+00 -0.55079841518E+03  0.71469304294E+03  0.45541986283E+03 0.  0.
      99925    2    3    3    0    0  0.12067251134E+02  0.33084820160E+02 -0.17691765889E+03  0.31887167932E+03  0.26294308504E+03 0.  0.
         25    1    4    4    0    0  0.31733516670E+02  0.32177926622E+02 -0.57796810346E+02  0.14501866924E+03  0.12509000000E+03 0.  0.
         25    1    4    4    0    0 -0.19666265536E+02  0.90689353743E+00 -0.11912084854E+03  0.17385301008E+03  0.12509000000E+03 0.  0.
         25    1    3    3    0    0 -0.12067251134E+02 -0.33084820160E+02 -0.37388075629E+03  0.39582136362E+03  0.12509000000E+03 0.  0.
<mgrwt>
<rscale>  2 0.45541986E+03</rscale>
<asrwt>0</asrwt>
<pdfrwt beam="1">  1       21 0.12051076E-01 0.45541986E+03</pdfrwt>
<pdfrwt beam="2">  1       21 0.93050841E-01 0.45541986E+03</pdfrwt>
<totfact> 0.51940728E+04</totfact>
</mgrwt>
</event>
<event>
 6    0  0.4793433E-002  0.4542920E+03  0.7546771E-02  0.1026450E+00
         21   -1    0    0  502  501  0.00000000000E+00  0.00000000000E+00  0.20482550001E+03  0.20482550001E+03  0.00000000000E+00 0. -1.
         21   -1    0    0  501  502 -0.00000000000E+00 -0.00000000000E+00 -0.25189886028E+03  0.25189886028E+03  0.00000000000E+00 0. -1.
      99926    2    1    2    0    0 -0.71054273576E-14  0.00000000000E+00 -0.47073360271E+02  0.45672436029E+03  0.45429202066E+03 0.  0.
         25    1    3    3    0    0  0.53865250392E+02 -0.19085278230E+02  0.69734875570E+02  0.15419524641E+03  0.12509000000E+03 0.  0.
         25    1    3    3    0    0 -0.49731577227E+02  0.78458093060E+01 -0.11441884131E+03  0.17684446795E+03  0.12509000000E+03 0.  0.
         25    1    3    3    0    0 -0.41336731656E+01  0.11239468924E+02 -0.23893945291E+01  0.12568464593E+03  0.12509000000E+03 0.  0.
<mgrwt>
<rscale>  2 0.45429202E+03</rscale>
<asrwt>0</asrwt>
<pdfrwt beam="1">  1       21 0.30121397E-01 0.45429202E+03</pdfrwt>
<pdfrwt beam="2">  1       21 0.37043950E-01 0.45429202E+03</pdfrwt>
<totfact> 0.68807476E+04</totfact>
</mgrwt>
</event>
<event>
 7    0  0.4793433E-002  0.4566064E+03  0.7546771E-02  0.1025770E+00
         21   -1    0    0  502  501  0.00000000000E+00  0.00000000000E+00  0.12789561797E+03  0.12789561797E+03  0.00000000000E+00 0.  1.
         21   -1    0    0  501  502 -0.00000000000E+00 -0.00000000000E+00 -0.40753826408E+03  0.40753826408E+03  0.00000000000E+00 0.  1.
      99926    2    1    2    0    0  0.00000000000E+00  0.00000000000E+00 -0.27964264611E+03  0.53543388204E+03  0.45660643066E+03 0.  0.
      99925    2    3    3    0    0 -0.67994025503E+02 -0.47787029893E+02 -0.26832381863E+03  0.38482707049E+03  0.26303500682E+03 0.  0.
         25    1    4    4    0    0 -0.36651803837E+00 -0.44710534168E+02 -0.14403157034E+03  0.19593817279E+03  0.12509000000E+03 0.  0.
         25    1    3    3    0    0  0.67994025503E+02  0.47787029893E+02 -0.11318827485E+02  0.15060681155E+03  0.12509000000E+03 0.  0.
         25    1    4    4    0    0 -0.67627507464E+02 -0.30764957251E+01 -0.12429224828E+03  0.18888889770E+03  0.12509000000E+03 0.  0.
<mgrwt>
<rscale>  2 0.45660643E+03</rscale>
<asrwt>0</asrwt>
<pdfrwt beam="1">  1       21 0.18808179E-01 0.45660643E+03</pdfrwt>
<pdfrwt beam="2">  1       21 0.59932097E-01 0.45660643E+03</pdfrwt>
<totfact> 0.62046409E+04</totfact>
</mgrwt>
</event>
<event>
 6    0  0.4793433E-002  0.4579085E+03  0.7546771E-02  0.1025390E+00
         21   -1    0    0  502  501  0.00000000000E+00  0.00000000000E+00  0.41643640537E+03  0.41643640537E+03  0.00000000000E+00 0. -1.
         21   -1    0    0  501  502 -0.00000000000E+00 -0.00000000000E+00 -0.12587767895E+03  0.12587767895E+03  0.00000000000E+00 0. -1.
      99926    2    1    2    0    0  0.35527136788E-14  0.00000000000E+00  0.29055872642E+03  0.54231408432E+03  0.45790849801E+03 0.  0.
         25    1    3    3    0    0  0.26817460604E+02 -0.15439447417E+02  0.24440528242E+03  0.27629513732E+03  0.12509000000E+03 0.  0.
         25    1    3    3    0    0  0.36604036851E+01  0.35633940594E+02  0.86436193915E+01  0.13040474122E+03  0.12509000000E+03 0.  0.
         25    1    3    3    0    0 -0.30477864289E+02 -0.20194493177E+02  0.37509824606E+02  0.13561420578E+03  0.12509000000E+03 0.  0.
<mgrwt>
<rscale>  2 0.45790850E+03</rscale>
<asrwt>0</asrwt>
<pdfrwt beam="1">  1       21 0.61240648E-01 0.45790850E+03</pdfrwt>
<pdfrwt beam="2">  1       21 0.18511423E-01 0.45790850E+03</pdfrwt>
<totfact> 0.60961988E+04</totfact>
</mgrwt>
</event>
<event>
 7    0  0.4793433E-002  0.4204929E+03  0.7546771E-02  0.1036906E+00
         21   -1    0    0  502  501  0.00000000000E+00  0.00000000000E+00  0.19260169465E+02  0.19260169465E+02  0.00000000000E+00 0.  1.
         21   -1    0    0  501  502 -0.00000000000E+00 -0.00000000000E+00 -0.22950769453E+04  0.22950769453E+04  0.00000000000E+00 0.  1.
      99926    2    1    2    0    0  0.35527136788E-14  0.00000000000E+00 -0.22758167759E+04  0.23143371148E+04  0.42049290554E+03 0.  0.
      99925    2    3    3    0    0  0.20438213217E+02  0.35403242328E+02 -0.11263008358E+04  0.11573126921E+04  0.26296004349E+03 0.  0.
         25    1    4    4    0    0 -0.24312007887E+02  0.38803035663E+02 -0.56971368077E+03  0.58507942662E+03  0.12509000000E+03 0.  0.
         25    1    3    3    0    0 -0.20438213217E+02 -0.35403242328E+02 -0.11495159400E+04  0.11570244227E+04  0.12509000000E+03 0.  0.
         25    1    4    4    0    0  0.44750221104E+02 -0.33997933352E+01 -0.55658715506E+03  0.57223326552E+03  0.12509000000E+03 0.  0.
<mgrwt>
<rscale>  2 0.42049291E+03</rscale>
<asrwt>0</asrwt>
<pdfrwt beam="1">  1       21 0.28323780E-02 0.42049291E+03</pdfrwt>
<pdfrwt beam="2">  1       21 0.33751130E+00 0.42049291E+03</pdfrwt>
<totfact> 0.12174820E+04</totfact>
</mgrwt>
</event>
<event>
 7    0  0.4793433E-002  0.4438660E+03  0.7546771E-02  0.1029567E+00
         21   -1    0    0  502  501  0.00000000000E+00  0.00000000000E+00  0.25089560277E+03  0.25089560277E+03  0.00000000000E+00 0. -1.
         21   -1    0    0  501  502 -0.00000000000E+00 -0.00000000000E+00 -0.19631371708E+03  0.19631371708E+03  0.00000000000E+00 0. -1.
      99926    2    1    2    0    0  0.00000000000E+00  0.00000000000E+00  0.54581885691E+02  0.44720931984E+03  0.44386596345E+03 0.  0.
      99925    2    3    3    0    0  0.84063816216E+02 -0.60068273514E+02  0.41242951794E+02  0.28442001449E+03  0.26176103776E+03 0.  0.
         25    1    4    4    0    0  0.69287629660E+02 -0.45477016259E+02 -0.31038402267E+01  0.15008689668E+03  0.12509000000E+03 0.  0.
         25    1    3    3    0    0 -0.84063816216E+02  0.60068273514E+02  0.13338933897E+02  0.16278930535E+03  0.12509000000E+03 0.  0.
         25    1    4    4    0    0  0.14776186555E+02 -0.14591257255E+02  0.44346792021E+02  0.13433311781E+03  0.12509000000E+03 0.  0.
<mgrwt>
<rscale>  2 0.44386596E+03</rscale>
<asrwt>0</asrwt>
<pdfrwt beam="1">  1       21 0.36896412E-01 0.44386596E+03</pdfrwt>
<pdfrwt beam="2">  1       21 0.28869664E-01 0.44386596E+03</pdfrwt>
<totfact> 0.75617421E+04</totfact>
</mgrwt>
</event>
<event>
 7    0  0.4793433E-002  0.4419307E+03  0.7546771E-02  0.1030156E+00
         21   -1    0    0  502  501  0.00000000000E+00  0.00000000000E+00  0.18686128088E+03  0.18686128088E+03  0.00000000000E+00 0.  1.
         21   -1    0    0  501  502 -0.00000000000E+00 -0.00000000000E+00 -0.26129371537E+03  0.26129371537E+03  0.00000000000E+00 0.  1.
      99926    2    1    2    0    0 -0.35527136788E-14  0.00000000000E+00 -0.74432434488E+02  0.44815499625E+03  0.44193066579E+03 0.  0.
      99925    2    3    3    0    0 -0.25912657895E+02 -0.47323211109E+02  0.38474962586E+02  0.27121845236E+03  0.26299842967E+03 0.  0.
         25    1    4    4    0    0 -0.53480891992E+02 -0.20222796872E+02  0.18518366158E+02  0.13877898006E+03  0.12509000000E+03 0.  0.
         25    1    3    3    0    0  0.25912657895E+02  0.47323211109E+02 -0.11290739707E+03  0.17693654389E+03  0.12509000000E+03 0.  0.
         25    1    4    4    0    0  0.27568234097E+02 -0.27100414237E+02  0.19956596429E+02  0.13243947230E+03  0.12509000000E+03 0.  0.
<mgrwt>
<rscale>  2 0.44193067E+03</rscale>
<asrwt>0</asrwt>
<pdfrwt beam="1">  1       21 0.27479600E-01 0.44193067E+03</pdfrwt>
<pdfrwt beam="2">  1       21 0.38425546E-01 0.44193067E+03</pdfrwt>
<totfact> 0.76744273E+04</totfact>
</mgrwt>
</event>
<event>
 7    0  0.4793433E-002  0.4571107E+03  0.7546771E-02  0.1025623E+00
         21   -1    0    0  502  501  0.00000000000E+00  0.00000000000E+00  0.11451497550E+03  0.11451497550E+03  0.00000000000E+00 0. -1.
         21   -1    0    0  501  502 -0.00000000000E+00 -0.00000000000E+00 -0.45616353599E+03  0.45616353599E+03  0.00000000000E+00 0. -1.
      99926    2    1    2    0    0  0.00000000000E+00  0.35527136788E-14 -0.34164856049E+03  0.57067851149E+03  0.45711073559E+03 0.  0.
      99925    2    3    3    0    0  0.64570098472E+02 -0.25225143256E+02 -0.99802569030E+02  0.28971125868E+03  0.26299516184E+03 0.  0.
         25    1    4    4    0    0  0.14528408196E+02 -0.48838468877E+02 -0.45166483400E+02  0.14242117121E+03  0.12509000000E+03 0.  0.
         25    1    3    3    0    0 -0.64570098472E+02  0.25225143256E+02 -0.24184599146E+03  0.28096725281E+03  0.12509000000E+03 0.  0.
         25    1    4    4    0    0  0.50041690276E+02  0.23613325621E+02 -0.54636085630E+02  0.14729008747E+03  0.12509000000E+03 0.  0.
<mgrwt>
<rscale>  2 0.45711074E+03</rscale>
<asrwt>0</asrwt>
<pdfrwt beam="1">  1       21 0.16840438E-01 0.45711074E+03</pdfrwt>
<pdfrwt beam="2">  1       21 0.67082872E-01 0.45711074E+03</pdfrwt>
<totfact> 0.59520680E+04</totfact>
</mgrwt>
</event>
<event>
 7    0  0.4793433E-002  0.4485101E+03  0.7546771E-02  0.1028167E+00
         21   -1    0    0  502  501  0.00000000000E+00  0.00000000000E+00  0.20012826936E+02  0.20012826936E+02  0.00000000000E+00 0.  1.
         21   -1    0    0  501  502 -0.00000000000E+00 -0.00000000000E+00 -0.25129045927E+04  0.25129045927E+04  0.00000000000E+00 0.  1.
      99926    2    1    2    0    0  0.00000000000E+00 -0.71054273576E-14 -0.24928917657E+04  0.25329174196E+04  0.44851008783E+03 0.  0.
      99925    2    3    3    0    0 -0.95457439135E+02  0.34206363806E+02 -0.13916451695E+04  0.14199602004E+04  0.26330304757E+03 0.  0.
         25    1    4    4    0    0 -0.59347971249E+02  0.20753855694E+01 -0.88963647347E+03  0.90034829480E+03  0.12509000000E+03 0.  0.
         25    1    4    4    0    0 -0.36109467886E+02  0.32130978237E+02 -0.50200869603E+03  0.51961190558E+03  0.12509000000E+03 0.  0.
         25    1    3    3    0    0  0.95457439135E+02 -0.34206363806E+02 -0.11012465962E+04  0.11129572192E+04  0.12509000000E+03 0.  0.
<mgrwt>
<rscale>  2 0.44851009E+03</rscale>
<asrwt>0</asrwt>
<pdfrwt beam="1">  1       21 0.29430640E-02 0.44851009E+03</pdfrwt>
<pdfrwt beam="2">  1       21 0.36954464E+00 0.44851009E+03</pdfrwt>
<totfact> 0.71551329E+03</totfact>
</mgrwt>
</event>
<event>
 6    0  0.4793433E-002  0.4588429E+03  0.7546771E-02  0.1025117E+00
         21   -1    0    0  502  501  0.00000000000E+00  0.00000000000E+00  0.34926731694E+02  0.34926731694E+02  0.00000000000E+00 0. -1.
         21   -1    0    0  501  502 -0.00000000000E+00 -0.00000000000E+00 -0.15069889102E+04  0.15069889102E+04  0.00000000000E+00 0. -1.
      99926    2    1    2    0    0  0.71054273576E-14  0.00000000000E+00 -0.14720621785E+04  0.15419156419E+04  0.45884288087E+03 0.  0.
         25    1    3    3    0    0 -0.38390856636E+02 -0.67588619215E+02 -0.30721766288E+03  0.34069382120E+03  0.12509000000E+03 0.  0.
         25    1    3    3    0    0  0.60250326582E+02  0.20502498096E+01 -0.40737789751E+03  0.43039350001E+03  0.12509000000E+03 0.  0.
         25    1    3    3    0    0 -0.21859469947E+02  0.65538369405E+02 -0.75746661810E+03  0.77082832066E+03  0.12509000000E+03 0.  0.
<mgrwt>
<rscale>  2 0.45884288E+03</rscale>
<asrwt>0</asrwt>
<pdfrwt beam="1">  1       21 0.51362849E-02 0.45884288E+03</pdfrwt>
<pdfrwt beam="2">  1       21 0.22161598E+00 0.45884288E+03</pdfrwt>
<totfact> 0.22103226E+04</totfact>
</mgrwt>
</event>
<event>
 7    0  0.4793433E-002  0.4514406E+03  0.7546771E-02  0.1027293E+00
         21   -1    0    0  502  501  0.00000000000E+00  0.00000000000E+00  0.43387227809E+03  0.43387227809E+03  0.00000000000E+00 0. -1.
         21   -1    0    0  501  502 -0.00000000000E+00 -0.00000000000E+00 -0.11743009431E+03  0.11743009431E+03  0.00000000000E+00 0. -1.
      99926    2    1    2    0    0 -0.22204460493E-14  0.00000000000E+00  0.31644218378E+03  0.55130237241E+03  0.45144063856E+03 0.  0.
      99925    2    3    3    0    0 -0.31191107878E+01  0.10888021475E+03  0.21443737805E+03  0.35657918809E+03  0.26325025786E+03 0.  0.
         25    1    4    4    0    0  0.37015878423E+02  0.69130005924E+02  0.11003249493E+03  0.18412982109E+03  0.12509000000E+03 0.  0.
         25    1    3    3    0    0  0.31191107878E+01 -0.10888021475E+03  0.10200480573E+03  0.19472318431E+03  0.12509000000E+03 0.  0.
         25    1    4    4    0    0 -0.40134989210E+02  0.39750208828E+02  0.10440488312E+03  0.17244936700E+03  0.12509000000E+03 0.  0.
<mgrwt>
<rscale>  2 0.45144064E+03</rscale>
<asrwt>0</asrwt>
<pdfrwt beam="1">  1       21 0.63804746E-01 0.45144064E+03</pdfrwt>
<pdfrwt beam="2">  1       21 0.17269132E-01 0.45144064E+03</pdfrwt>
<totfact> 0.63551332E+04</totfact>
</mgrwt>
</event>
<event>
 7    0  0.4793433E-002  0.4545028E+03  0.7546771E-02  0.1026388E+00
         21   -1    0    0  502  501  0.00000000000E+00  0.00000000000E+00  0.84072999877E+02  0.84072999877E+02  0.00000000000E+00 0. -1.
         21   -1    0    0  501  502 -0.00000000000E+00 -0.00000000000E+00 -0.61426617194E+03  0.61426617194E+03  0.00000000000E+00 0. -1.
      99926    2    1    2    0    0 -0.14210854715E-13 -0.35527136788E-14 -0.53019317207E+03  0.69833917182E+03  0.45450280438E+03 0.  0.
      99925    2    3    3    0    0  0.10963814199E+03 -0.25033553088E+02 -0.34250270434E+03  0.44630262540E+03  0.26311733123E+03 0.  0.
         25    1    4    4    0    0  0.45865642665E+02 -0.43926976201E+02 -0.13242462841E+03  0.19291714990E+03  0.12509000000E+03 0.  0.
         25    1    4    4    0    0  0.63772499321E+02  0.18893423113E+02 -0.21007807593E+03  0.25338547550E+03  0.12509000000E+03 0.  0.
         25    1    3    3    0    0 -0.10963814199E+03  0.25033553088E+02 -0.18769046773E+03  0.25203654643E+03  0.12509000000E+03 0.  0.
<mgrwt>
<rscale>  2 0.45450280E+03</rscale>
<asrwt>0</asrwt>
<pdfrwt beam="1">  1       21 0.12363676E-01 0.45450280E+03</pdfrwt>
<pdfrwt beam="2">  1       21 0.90333262E-01 0.45450280E+03</pdfrwt>
<totfact> 0.53201098E+04</totfact>
</mgrwt>
</event>
<event>
 7    0  0.4793433E-002  0.4524803E+03  0.7546771E-02  0.1026985E+00
         21   -1    0    0  502  501  0.00000000000E+00  0.00000000000E+00  0.83274283816E+03  0.83274283816E+03  0.00000000000E+00 0. -1.
         21   -1    0    0  501  502 -0.00000000000E+00 -0.00000000000E+00 -0.61465068108E+02  0.61465068108E+02  0.00000000000E+00 0. -1.
      99926    2    1    2    0    0 -0.71054273576E-14  0.00000000000E+00  0.77127777005E+03  0.89420790627E+03  0.45248025488E+03 0.  0.
      99925    2    3    3    0    0 -0.60066004847E+02  0.66598220731E+02  0.35741955723E+03  0.45265453875E+03  0.26287666998E+03 0.  0.
         25    1    4    4    0    0 -0.63145625192E+01  0.19507342412E+02  0.21800301572E+03  0.25217698759E+03  0.12509000000E+03 0.  0.
         25    1    4    4    0    0 -0.53751442328E+02  0.47090878319E+02  0.13941654151E+03  0.20047755116E+03  0.12509000000E+03 0.  0.
         25    1    3    3    0    0  0.60066004847E+02 -0.66598220731E+02  0.41385821282E+03  0.44155336752E+03  0.12509000000E+03 0.  0.
<mgrwt>
<rscale>  2 0.45248025E+03</rscale>
<asrwt>0</asrwt>
<pdfrwt beam="1">  1       21 0.12246218E+00 0.45248025E+03</pdfrwt>
<pdfrwt beam="2">  1       21 0.90389811E-02 0.45248025E+03</pdfrwt>
<totfact> 0.44353702E+04</totfact>
</mgrwt>
</event>
<event>
 7    0  0.4793433E-002  0.4355648E+03  0.7546771E-02  0.1032116E+00
         21   -1    0    0  502  501  0.00000000000E+00  0.00000000000E+00  0.34248040550E+03  0.34248040550E+03  0.00000000000E+00 0. -1.
         21   -1    0    0  501  502 -0.00000000000E+00 -0.00000000000E+00 -0.13848725326E+03  0.13848725326E+03  0.00000000000E+00 0. -1.
      99926    2    1    2    0    0 -0.71054273576E-14  0.14210854715E-13  0.20399315224E+03  0.48096765875E+03  0.43556478577E+03 0.  0.
      99925    2    3    3    0    0 -0.59382549968E+02  0.72163608830E+02  0.14086883537E+03  0.31254538837E+03  0.26288156522E+03 0.  0.
         25    1    4    4    0    0  0.74969691646E+01  0.52194714653E+02  0.69427214713E+02  0.15247340433E+03  0.12509000000E+03 0.  0.
         25    1    4    4    0    0 -0.66879519132E+02  0.19968894178E+02  0.71441620653E+02  0.16007198404E+03  0.12509000000E+03 0.  0.
         25    1    3    3    0    0  0.59382549968E+02 -0.72163608830E+02  0.63124316873E+02  0.16842227038E+03  0.12509000000E+03 0.  0.
<mgrwt>
<rscale>  2 0.43556479E+03</rscale>
<asrwt>0</asrwt>
<pdfrwt beam="1">  1       21 0.50364765E-01 0.43556479E+03</pdfrwt>
<pdfrwt beam="2">  1       21 0.20365773E-01 0.43556479E+03</pdfrwt>
<totfact> 0.77984852E+04</totfact>
</mgrwt>
</event>
<event>
 7    0  0.4793433E-002  0.4586351E+03  0.7546771E-02  0.1025178E+00
         21   -1    0    0  502  501  0.00000000000E+00  0.00000000000E+00  0.67396859367E+03  0.67396859367E+03  0.00000000000E+00 0. -1.
         21   -1    0    0  501  502 -0.00000000000E+00 -0.00000000000E+00 -0.78025206293E+02  0.78025206293E+02  0.00000000000E+00 0. -1.
      99926    2    1    2    0    0  0.00000000000E+00 -0.35527136788E-14  0.59594338738E+03  0.75199379996E+03  0.45863509921E+03 0.  0.
      99925    2    3    3    0    0  0.15604456730E+02 -0.27242752728E+02  0.18989245726E+03  0.32595327067E+03  0.26306030239E+03 0.  0.
         25    1    4    4    0    0 -0.78498476955E+01 -0.33655949767E+02  0.56707495041E+02  0.14162482536E+03  0.12509000000E+03 0.  0.
         25    1    4    4    0    0  0.23454304425E+02  0.64131970388E+01  0.13318496222E+03  0.18432844532E+03  0.12509000000E+03 0.  0.
         25    1    3    3    0    0 -0.15604456730E+02  0.27242752728E+02  0.40605093012E+03  0.42604052929E+03  0.12509000000E+03 0.  0.
<mgrwt>
<rscale>  2 0.45863510E+03</rscale>
<asrwt>0</asrwt>
<pdfrwt beam="1">  1       21 0.99113025E-01 0.45863510E+03</pdfrwt>
<pdfrwt beam="2">  1       21 0.11474295E-01 0.45863510E+03</pdfrwt>
<totfact> 0.48761241E+04</totfact>
</mgrwt>
</event>
<event>
 7    0  0.4793433E-002  0.4573492E+03  0.7546771E-02  0.1025553E+00
         21   -1    0    0  502  501  0.00000000000E+00  0.00000000000E+00  0.17030429969E+03  0.17030429969E+03  0.00000000000E+00 0. -1.
         21   -1    0    0  501  502 -0.00000000000E+00 -0.00000000000E+00 -0.30705078276E+03  0.30705078276E+03  0.00000000000E+00 0. -1.
      99926    2    1    2    0    0  0.00000000000E+00 -0.17763568394E-14 -0.13674648307E+03  0.47735508245E+03  0.45734918182E+03 0.  0.
      99925    2    3    3    0    0 -0.96586773690E+02  0.11426389690E+02 -0.21069500707E+02  0.28117088436E+03  0.26297067349E+03 0.  0.
         25    1    4    4    0    0 -0.83045829633E+02 -0.72431647654E+01 -0.31356698088E+02  0.15355723321E+03  0.12509000000E+03 0.  0.
         25    1    3    3    0    0  0.96586773690E+02 -0.11426389690E+02 -0.11567698237E+03  0.19618419810E+03  0.12509000000E+03 0.  0.
         25    1    4    4    0    0 -0.13540944057E+02  0.18669554456E+02  0.10287197381E+02  0.12761365115E+03  0.12509000000E+03 0.  0.
<mgrwt>
<rscale>  2 0.45734918E+03</rscale>
<asrwt>0</asrwt>
<pdfrwt beam="1">  1       21 0.25044750E-01 0.45734918E+03</pdfrwt>
<pdfrwt beam="2">  1       21 0.45154526E-01 0.45734918E+03</pdfrwt>
<totfact> 0.65660429E+04</totfact>
</mgrwt>
</event>
<event>
 7    0  0.4793433E-002  0.4550301E+03  0.7546771E-02  0.1026233E+00
         21   -1    0    0  502  501  0.00000000000E+00  0.00000000000E+00  0.30004524028E+04  0.30004524028E+04  0.00000000000E+00 0. -1.
         21   -1    0    0  501  502 -0.00000000000E+00 -0.00000000000E+00 -0.17251763365E+02  0.17251763365E+02  0.00000000000E+00 0. -1.
      99926    2    1    2    0    0  0.14210854715E-13 -0.35527136788E-14  0.29832006394E+04  0.30177041662E+04  0.45503008622E+03 0.  0.
      99925    2    3    3    0    0 -0.10975803885E+03  0.25062155789E+02  0.19549450364E+04  0.19757674925E+04  0.26300598883E+03 0.  0.
         25    1    4    4    0    0 -0.49106987137E+02  0.17482627955E+02  0.12407598305E+04  0.12481384553E+04  0.12509000000E+03 0.  0.
         25    1    3    3    0    0  0.10975803885E+03 -0.25062155789E+02  0.10282556030E+04  0.10419366737E+04  0.12509000000E+03 0.  0.
         25    1    4    4    0    0 -0.60651051717E+02  0.75795278332E+01  0.71418520587E+03  0.72762903715E+03  0.12509000000E+03 0.  0.
<mgrwt>
<rscale>  2 0.45503009E+03</rscale>
<asrwt>0</asrwt>
<pdfrwt beam="1">  1       21 0.44124264E+00 0.45503009E+03</pdfrwt>
<pdfrwt beam="2">  1       21 0.25370261E-02 0.45503009E+03</pdfrwt>
<totfact> 0.31492754E+03</totfact>
</mgrwt>
</event>
<event>
 7    0  0.4793433E-002  0.4564717E+03  0.7546771E-02  0.1025810E+00
         21   -1    0    0  502  501  0.00000000000E+00  0.00000000000E+00  0.13581685609E+03  0.13581685609E+03  0.00000000000E+00 0. -1.
         21   -1    0    0  501  502 -0.00000000000E+00 -0.00000000000E+00 -0.38354303395E+03  0.38354303395E+03  0.00000000000E+00 0. -1.
      99926    2    1    2    0    0  0.35527136788E-14  0.00000000000E+00 -0.24772617786E+03  0.51935989004E+03  0.45647172550E+03 0.  0.
      99925    2    3    3    0    0 -0.24818345655E+02  0.97876555164E+02 -0.21717559487E+03  0.35572426875E+03  0.26301852795E+03 0.  0.
         25    1    4    4    0    0  0.68459303182E+01  0.53056345596E+02 -0.15319334960E+03  0.20488424300E+03  0.12509000000E+03 0.  0.
         25    1    4    4    0    0 -0.31664275973E+02  0.44820209568E+02 -0.63982245266E+02  0.15084002575E+03  0.12509000000E+03 0.  0.
         25    1    3    3    0    0  0.24818345655E+02 -0.97876555164E+02 -0.30550582990E+02  0.16363562128E+03  0.12509000000E+03 0.  0.
<mgrwt>
<rscale>  2 0.45647173E+03</rscale>
<asrwt>0</asrwt>
<pdfrwt beam="1">  1       21 0.19973067E-01 0.45647173E+03</pdfrwt>
<pdfrwt beam="2">  1       21 0.56403388E-01 0.45647173E+03</pdfrwt>
<totfact> 0.63189811E+04</totfact>
</mgrwt>
</event>
<event>
 7    0  0.4793433E-002  0.5293706E+03  0.7546771E-02  0.1006385E+00
         21   -1    0    0  502  501  0.00000000000E+00  0.00000000000E+00  0.19721211703E+03  0.19721211703E+03  0.00000000000E+00 0.  1.
         21   -1    0    0  501  502 -0.00000000000E+00 -0.00000000000E+00 -0.35524346055E+03  0.35524346055E+03  0.00000000000E+00 0.  1.
      99926    2    1    2    0    0  0.00000000000E+00  0.35527136788E-14 -0.15803134353E+03  0.55245557758E+03  0.52937062599E+03 0.  0.
      99925    2    3    3    0    0 -0.17094925897E+03 -0.26742561294E+02 -0.77543250468E+02  0.32427877124E+03  0.26306834104E+03 0.  0.
         25    1    3    3    0    0  0.17094925897E+03  0.26742561294E+02 -0.80488093057E+02  0.22817680634E+03  0.12509000000E+03 0.  0.
         25    1    4    4    0    0 -0.47229874506E+02 -0.12263247186E+02 -0.59379689892E+02  0.14681452227E+03  0.12509000000E+03 0.  0.
         25    1    4    4    0    0 -0.12371938447E+03 -0.14479314108E+02 -0.18163560576E+02  0.17746424897E+03  0.12509000000E+03 0.  0.
<mgrwt>
<rscale>  2 0.52937063E+03</rscale>
<asrwt>0</asrwt>
<pdfrwt beam="1">  1       21 0.29001782E-01 0.52937063E+03</pdfrwt>
<pdfrwt beam="2">  1       21 0.52241685E-01 0.52937063E+03</pdfrwt>
<totfact> 0.35600711E+04</totfact>
</mgrwt>
</event>
<event>
 7    0  0.4793433E-002  0.4547080E+03  0.7546771E-02  0.1026327E+00
         21   -1    0    0  502  501  0.00000000000E+00  0.00000000000E+00  0.10841693773E+04  0.10841693773E+04  0.00000000000E+00 0. -1.
         21   -1    0    0  501  502 -0.00000000000E+00 -0.00000000000E+00 -0.47676909848E+02  0.47676909848E+02  0.00000000000E+00 0. -1.
      99926    2    1    2    0    0  0.00000000000E+00  0.00000000000E+00  0.10364924674E+04  0.11318462871E+04  0.45470801911E+03 0.  0.
      99925    2    3    3    0    0  0.16618192089E+02 -0.11066077616E+03  0.68913477896E+03  0.74606546395E+03  0.26303034282E+03 0.  0.
         25    1    4    4    0    0  0.21884576584E+02 -0.75335592341E+02  0.45315319094E+03  0.47660225422E+03  0.12509000000E+03 0.  0.
         25    1    3    3    0    0 -0.16618192089E+02  0.11066077616E+03  0.34735768848E+03  0.38578082319E+03  0.12509000000E+03 0.  0.
         25    1    4    4    0    0 -0.52663844951E+01 -0.35325183819E+02  0.23598158802E+03  0.26946320973E+03  0.12509000000E+03 0.  0.
<mgrwt>
<rscale>  2 0.45470802E+03</rscale>
<asrwt>0</asrwt>
<pdfrwt beam="1">  1       21 0.15943666E+00 0.45470802E+03</pdfrwt>
<pdfrwt beam="2">  1       21 0.70113109E-02 0.45470802E+03</pdfrwt>
<totfact> 0.34472694E+04</totfact>
</mgrwt>
</event>
<event>
 7    0  0.4793433E-002  0.4474810E+03  0.7546771E-02  0.1028476E+00
         21   -1    0    0  502  501  0.00000000000E+00  0.00000000000E+00  0.40271428005E+02  0.40271428005E+02  0.00000000000E+00 0. -1.
         21   -1    0    0  501  502 -0.00000000000E+00 -0.00000000000E+00 -0.12430601229E+04  0.12430601229E+04  0.00000000000E+00 0. -1.
      99926    2    1    2    0    0  0.00000000000E+00  0.14210854715E-13 -0.12027886949E+04  0.12833315509E+04  0.44748097723E+03 0.  0.
      99925    2    3    3    0    0 -0.35961729685E+01  0.86153936386E+02 -0.58684594879E+03  0.64892757252E+03  0.26321738838E+03 0.  0.
         25    1    4    4    0    0 -0.47432485794E+01  0.60787075434E+01 -0.31755421327E+03  0.34139073736E+03  0.12509000000E+03 0.  0.
         25    1    4    4    0    0  0.11470756109E+01  0.80075228842E+02 -0.26929173552E+03  0.30753683516E+03  0.12509000000E+03 0.  0.
         25    1    3    3    0    0  0.35961729685E+01 -0.86153936386E+02 -0.61594274611E+03  0.63440397839E+03  0.12509000000E+03 0.  0.
<mgrwt>
<rscale>  2 0.44748098E+03</rscale>
<asrwt>0</asrwt>
<pdfrwt beam="1">  1       21 0.59222694E-02 0.44748098E+03</pdfrwt>
<pdfrwt beam="2">  1       21 0.18280294E+00 0.44748098E+03</pdfrwt>
<totfact> 0.31399309E+04</totfact>
</mgrwt>
</event>
<event>
 7    0  0.4793433E-002  0.4553357E+03  0.7546771E-02  0.1026143E+00
         21   -1    0    0  502  501  0.00000000000E+00  0.00000000000E+00  0.15829008829E+02  0.15829008829E+02  0.00000000000E+00 0.  1.
         21   -1    0    0  501  502 -0.00000000000E+00 -0.00000000000E+00 -0.32745347186E+04  0.32745347186E+04  0.00000000000E+00 0.  1.
      99926    2    1    2    0    0  0.00000000000E+00  0.00000000000E+00 -0.32587057097E+04  0.32903637274E+04  0.45533565190E+03 0.  0.
      99925    2    3    3    0    0 -0.56742799727E+02 -0.19398240859E+02 -0.13618787453E+04  0.13884709654E+04  0.26370792129E+03 0.  0.
         25    1    3    3    0    0  0.56742799727E+02  0.19398240859E+02 -0.18968269644E+04  0.19018927620E+04  0.12509000000E+03 0.  0.
         25    1    4    4    0    0 -0.48981856064E+02  0.22947643401E+02 -0.77231019140E+03  0.78424253672E+03  0.12509000000E+03 0.  0.
         25    1    4    4    0    0 -0.77609436629E+01 -0.42345884261E+02 -0.58956855390E+03  0.60422842867E+03  0.12509000000E+03 0.  0.
<mgrwt>
<rscale>  2 0.45533565E+03</rscale>
<asrwt>0</asrwt>
<pdfrwt beam="1">  1       21 0.23277950E-02 0.45533565E+03</pdfrwt>
<pdfrwt beam="2">  1       21 0.48154931E+00 0.45533565E+03</pdfrwt>
<totfact> 0.19240461E+03</totfact>
</mgrwt>
</event>
<event>
 7    0  0.4793433E-002  0.4481074E+03  0.7546771E-02  0.1028288E+00
         21   -1    0    0  502  501  0.00000000000E+00  0.00000000000E+00  0.12616505897E+04  0.12616505897E+04  0.00000000000E+00 0.  1.
         21   -1    0    0  501  502 -0.00000000000E+00 -0.00000000000E+00 -0.39789199935E+02  0.39789199935E+02  0.00000000000E+00 0.  1.
      99926    2    1    2    0    0  0.00000000000E+00  0.00000000000E+00  0.12218613898E+04  0.13014397896E+04  0.44810743159E+03 0.  0.
      99925    2    3    3    0    0  0.97421671586E+02 -0.11590833900E+02  0.65356181964E+03  0.71132349684E+03  0.26308313426E+03 0.  0.
         25    1    3    3    0    0 -0.97421671586E+02  0.11590833900E+02  0.56829957011E+03  0.59011629279E+03  0.12509000000E+03 0.  0.
         25    1    4    4    0    0  0.54854680545E+02  0.11383705274E+02  0.23788182633E+03  0.27454306788E+03  0.12509000000E+03 0.  0.
         25    1    4    4    0    0  0.42566991041E+02 -0.22974539174E+02  0.41567999332E+03  0.43678042896E+03  0.12509000000E+03 0.  0.
<mgrwt>
<rscale>  2 0.44810743E+03</rscale>
<asrwt>0</asrwt>
<pdfrwt beam="1">  1       21 0.18553683E+00 0.44810743E+03</pdfrwt>
<pdfrwt beam="2">  1       21 0.58513538E-02 0.44810743E+03</pdfrwt>
<totfact> 0.30685055E+04</totfact>
</mgrwt>
</event>
<event>
 7    0  0.4793433E-002  0.4540884E+03  0.7546771E-02  0.1026510E+00
         21   -1    0    0  502  501  0.00000000000E+00  0.00000000000E+00  0.23247163751E+03  0.23247163751E+03  0.00000000000E+00 0.  1.
         21   -1    0    0  501  502 -0.00000000000E+00 -0.00000000000E+00 -0.22174346444E+03  0.22174346444E+03  0.00000000000E+00 0.  1.
      99926    2    1    2    0    0  0.00000000000E+00  0.00000000000E+00  0.10728173069E+02  0.45421510196E+03  0.45408838914E+03 0.  0.
      99925    2    3    3    0    0 -0.52798555290E+02 -0.43118688777E+02  0.96093455042E+02  0.28813786622E+03  0.26294974631E+03 0.  0.
         25    1    4    4    0    0 -0.48556592426E+02  0.80020117859E+01  0.30369378343E+02  0.13780994921E+03  0.12509000000E+03 0.  0.
         25    1    3    3    0    0  0.52798555290E+02  0.43118688777E+02 -0.85365281973E+02  0.16607723573E+03  0.12509000000E+03 0.  0.
         25    1    4    4    0    0 -0.42419628637E+01 -0.51120700563E+02  0.65724076699E+02  0.15032791701E+03  0.12509000000E+03 0.  0.
<mgrwt>
<rscale>  2 0.45408839E+03</rscale>
<asrwt>0</asrwt>
<pdfrwt beam="1">  1       21 0.34187006E-01 0.45408839E+03</pdfrwt>
<pdfrwt beam="2">  1       21 0.32609333E-01 0.45408839E+03</pdfrwt>
<totfact> 0.69104616E+04</totfact>
</mgrwt>
</event>
<event>
 7    0  0.4793433E-002  0.4338856E+03  0.7546771E-02  0.1032640E+00
         21   -1    0    0  502  501  0.00000000000E+00  0.00000000000E+00  0.58813963629E+03  0.58813963629E+03  0.00000000000E+00 0.  1.
         21   -1    0    0  501  502 -0.00000000000E+00 -0.00000000000E+00 -0.80022103654E+02  0.80022103654E+02  0.00000000000E+00 0.  1.
      99926    2    1    2    0    0 -0.35527136788E-14  0.00000000000E+00  0.50811753263E+03  0.66816173994E+03  0.43388556527E+03 0.  0.
      99925    2    3    3    0    0  0.26248841801E+02 -0.79456915468E+02  0.38514712270E+03  0.47381248491E+03  0.26297825314E+03 0.  0.
         25    1    4    4    0    0 -0.61295033057E+00 -0.71919146246E+02  0.24131243848E+03  0.28116176904E+03  0.12509000000E+03 0.  0.
         25    1    3    3    0    0 -0.26248841801E+02  0.79456915468E+02  0.12297040993E+03  0.19434925503E+03  0.12509000000E+03 0.  0.
         25    1    4    4    0    0  0.26861792131E+02 -0.75377692215E+01  0.14383468422E+03  0.19265071587E+03  0.12509000000E+03 0.  0.
<mgrwt>
<rscale>  2 0.43388557E+03</rscale>
<asrwt>0</asrwt>
<pdfrwt beam="1">  1       21 0.86491121E-01 0.43388557E+03</pdfrwt>
<pdfrwt beam="2">  1       21 0.11767957E-01 0.43388557E+03</pdfrwt>
<totfact> 0.64788004E+04</totfact>
</mgrwt>
</event>
<event>
 7    0  0.4793433E-002  0.4578164E+03  0.7546771E-02  0.1025416E+00
         21   -1    0    0  502  501  0.00000000000E+00  0.00000000000E+00  0.14857474835E+04  0.14857474835E+04  0.00000000000E+00 0. -1.
         21   -1    0    0  501  502 -0.00000000000E+00 -0.00000000000E+00 -0.35267745681E+02  0.35267745681E+02  0.00000000000E+00 0. -1.
      99926    2    1    2    0    0  0.00000000000E+00  0.00000000000E+00  0.14504797379E+04  0.15210152292E+04  0.45781640161E+03 0.  0.
      99925    2    3    3    0    0 -0.10187342061E+03  0.57791929276E+01  0.72892871245E+03  0.78162697988E+03  0.26304386506E+03 0.  0.
         25    1    4    4    0    0 -0.54664913501E+02 -0.86348011883E+01  0.47480694609E+03  0.49411735116E+03  0.12509000000E+03 0.  0.
         25    1    3    3    0    0  0.10187342061E+03 -0.57791929276E+01  0.72155102541E+03  0.73938824935E+03  0.12509000000E+03 0.  0.
         25    1    4    4    0    0 -0.47208507106E+02  0.14413994116E+02  0.25412176636E+03  0.28750962873E+03  0.12509000000E+03 0.  0.
<mgrwt>
<rscale>  2 0.45781640E+03</rscale>
<asrwt>0</asrwt>
<pdfrwt beam="1">  1       21 0.21849224E+00 0.45781640E+03</pdfrwt>
<pdfrwt beam="2">  1       21 0.51864342E-02 0.45781640E+03</pdfrwt>
<totfact> 0.22766647E+04</totfact>
</mgrwt>
</event>
<event>
 7    0  0.4793433E-002  0.4517082E+03  0.7546771E-02  0.1027214E+00
         21   -1    0    0  502  501  0.00000000000E+00  0.00000000000E+00  0.36548140291E+03  0.36548140291E+03  0.00000000000E+00 0.  1.
         21   -1    0    0  501  502 -0.00000000000E+00 -0.00000000000E+00 -0.13956956226E+03  0.13956956226E+03  0.00000000000E+00 0.  1.
      99926    2    1    2    0    0  0.00000000000E+00 -0.55511151231E-15  0.22591184065E+03  0.50505096517E+03  0.45170822183E+03 0.  0.
      99925    2    3    3    0    0  0.64021945989E+02 -0.48396104588E+00  0.42546958935E+02  0.27403314825E+03  0.26303018617E+03 0.  0.
         25    1    3    3    0    0 -0.64021945989E+02  0.48396104588E+00  0.18336488172E+03  0.23101781692E+03  0.12509000000E+03 0.  0.
         25    1    4    4    0    0  0.80349442447E+01  0.15846439221E+02  0.49847048681E+02  0.13582306994E+03  0.12509000000E+03 0.  0.
         25    1    4    4    0    0  0.55987001744E+02 -0.16330400267E+02 -0.73000897453E+01  0.13821007831E+03  0.12509000000E+03 0.  0.
<mgrwt>
<rscale>  2 0.45170822E+03</rscale>
<asrwt>0</asrwt>
<pdfrwt beam="1">  1       21 0.53747265E-01 0.45170822E+03</pdfrwt>
<pdfrwt beam="2">  1       21 0.20524936E-01 0.45170822E+03</pdfrwt>
<totfact> 0.66641421E+04</totfact>
</mgrwt>
</event>
<event>
 7    0  0.4793433E-002  0.4595115E+03  0.7546771E-02  0.1024923E+00
         21   -1    0    0  502  501  0.00000000000E+00  0.00000000000E+00  0.11541181762E+03  0.11541181762E+03  0.00000000000E+00 0. -1.
         21   -1    0    0  501  502 -0.00000000000E+00 -0.00000000000E+00 -0.45738554625E+03  0.45738554625E+03  0.00000000000E+00 0. -1.
      99926    2    1    2    0    0  0.00000000000E+00  0.14210854715E-13 -0.34197372864E+03  0.57279736387E+03  0.45951146773E+03 0.  0.
      99925    2    3    3    0    0 -0.92151292309E+02  0.71387876725E+02 -0.23052402570E+03  0.36869779502E+03  0.26307536565E+03 0.  0.
         25    1    3    3    0    0  0.92151292309E+02 -0.71387876725E+02 -0.11144970294E+03  0.20409956885E+03  0.12509000000E+03 0.  0.
         25    1    4    4    0    0 -0.20457845046E+02  0.11261135295E+02 -0.72317955470E+02  0.14636506200E+03  0.12509000000E+03 0.  0.
         25    1    4    4    0    0 -0.71693447263E+02  0.60126741430E+02 -0.15820607023E+03  0.22233273302E+03  0.12509000000E+03 0.  0.
<mgrwt>
<rscale>  2 0.45951147E+03</rscale>
<asrwt>0</asrwt>
<pdfrwt beam="1">  1       21 0.16972327E-01 0.45951147E+03</pdfrwt>
<pdfrwt beam="2">  1       21 0.67262579E-01 0.45951147E+03</pdfrwt>
<totfact> 0.58277728E+04</totfact>
</mgrwt>
</event>
<event>
 7    0  0.4793433E-002  0.4492730E+03  0.7546771E-02  0.1027939E+00
         21   -1    0    0  502  501  0.00000000000E+00  0.00000000000E+00  0.29151812151E+03  0.29151812151E+03  0.00000000000E+00 0.  1.
         21   -1    0    0  501  502 -0.00000000000E+00 -0.00000000000E+00 -0.17309924025E+03  0.17309924025E+03  0.00000000000E+00 0.  1.
      99926    2    1    2    0    0  0.00000000000E+00  0.00000000000E+00  0.11841888126E+03  0.46461736176E+03  0.44927303659E+03 0.  0.
      99925    2    3    3    0    0  0.43721916347E+02 -0.72741089321E+02  0.14345498444E+03  0.31139469174E+03  0.26302936991E+03 0.  0.
         25    1    3    3    0    0 -0.43721916347E+02  0.72741089321E+02 -0.25036103183E+02  0.15322267002E+03  0.12509000000E+03 0.  0.
         25    1    4    4    0    0 -0.17297454209E+02 -0.43238194527E+02  0.58923002711E+02  0.14590466660E+03  0.12509000000E+03 0.  0.
         25    1    4    4    0    0  0.61019370556E+02 -0.29502894794E+02  0.84531981731E+02  0.16549002514E+03  0.12509000000E+03 0.  0.
<mgrwt>
<rscale>  2 0.44927304E+03</rscale>
<asrwt>0</asrwt>
<pdfrwt beam="1">  1       21 0.42870312E-01 0.44927304E+03</pdfrwt>
<pdfrwt beam="2">  1       21 0.25455771E-01 0.44927304E+03</pdfrwt>
<totfact> 0.71009756E+04</totfact>
</mgrwt>
</event>
<event>
 7    0  0.4793433E-002  0.4539693E+03  0.7546771E-02  0.1026545E+00
         21   -1    0    0  502  501  0.00000000000E+00  0.00000000000E+00  0.28448232575E+03  0.28448232575E+03  0.00000000000E+00 0. -1.
         21   -1    0    0  501  502 -0.00000000000E+00 -0.00000000000E+00 -0.18110806082E+03  0.18110806082E+03  0.00000000000E+00 0. -1.
      99926    2    1    2    0    0  0.14210854715E-13  0.71054273576E-14  0.10337426493E+03  0.46559038656E+03  0.45396934854E+03 0.  0.
      99925    2    3    3    0    0  0.10498197815E+03  0.24595378729E+02  0.97079249683E+02  0.30032307670E+03  0.26295136678E+03 0.  0.
         25    1    4    4    0    0  0.68158130220E+02  0.48075334354E+02  0.66207802054E+02  0.16427948637E+03  0.12509000000E+03 0.  0.
         25    1    3    3    0    0 -0.10498197815E+03 -0.24595378729E+02  0.62950152471E+01  0.16526730986E+03  0.12509000000E+03 0.  0.
         25    1    4    4    0    0  0.36823847933E+02 -0.23479955625E+02  0.30871447628E+02  0.13604359034E+03  0.12509000000E+03 0.  0.
<mgrwt>
<rscale>  2 0.45396935E+03</rscale>
<asrwt>0</asrwt>
<pdfrwt beam="1">  1       21 0.41835636E-01 0.45396935E+03</pdfrwt>
<pdfrwt beam="2">  1       21 0.26633538E-01 0.45396935E+03</pdfrwt>
<totfact> 0.68322266E+04</totfact>
</mgrwt>
</event>
<event>
 7    0  0.4793433E-002  0.4624308E+03  0.7546771E-02  0.1024079E+00
         21   -1    0    0  502  501  0.00000000000E+00  0.00000000000E+00  0.48397670612E+03  0.48397670612E+03  0.00000000000E+00 0. -1.
         21   -1    0    0  501  502 -0.00000000000E+00 -0.00000000000E+00 -0.11046099859E+03  0.11046099859E+03  0.00000000000E+00 0. -1.
      99926    2    1    2    0    0  0.00000000000E+00 -0.71054273576E-14  0.37351570753E+03  0.59443770471E+03  0.46243075267E+03 0.  0.
      99925    2    3    3    0    0 -0.71304549672E+02 -0.59648016638E+02  0.33104443922E+03  0.43290275052E+03  0.26300598089E+03 0.  0.
         25    1    4    4    0    0 -0.73820828580E+02 -0.37646672074E+02  0.20401863625E+03  0.25325461237E+03  0.12509000000E+03 0.  0.
         25    1    3    3    0    0  0.71304549672E+02  0.59648016638E+02  0.42471268312E+02  0.16153495419E+03  0.12509000000E+03 0.  0.
         25    1    4    4    0    0  0.25162789080E+01 -0.22001344564E+02  0.12702580297E+03  0.17964813815E+03  0.12509000000E+03 0.  0.
<mgrwt>
<rscale>  2 0.46243075E+03</rscale>
<asrwt>0</asrwt>
<pdfrwt beam="1">  1       21 0.71173044E-01 0.46243075E+03</pdfrwt>
<pdfrwt beam="2">  1       21 0.16244265E-01 0.46243075E+03</pdfrwt>
<totfact> 0.55679500E+04</totfact>
</mgrwt>
</event>
<event>
 7    0  0.4793433E-002  0.4793320E+03  0.7546771E-02  0.1019319E+00
         21   -1    0    0  502  501  0.00000000000E+00  0.00000000000E+00  0.12007585523E+03  0.12007585523E+03  0.00000000000E+00 0. -1.
         21   -1    0    0  501  502 -0.00000000000E+00 -0.00000000000E+00 -0.47836258568E+03  0.47836258568E+03  0.00000000000E+00 0. -1.
      99926    2    1    2    0    0  0.17763568394E-14  0.00000000000E+00 -0.35828673046E+03  0.59843844091E+03  0.47933202099E+03 0.  0.
      99925    2    3    3    0    0  0.85817008665E+01  0.45634271343E+02 -0.63013900554E+02  0.27441732356E+03  0.26301707834E+03 0.  0.
         25    1    3    3    0    0 -0.85817008665E+01 -0.45634271343E+02 -0.29527282990E+03  0.32402111735E+03  0.12509000000E+03 0.  0.
         25    1    4    4    0    0 -0.87925803082E+01  0.60623731948E+02 -0.42289319220E+02  0.14556249848E+03  0.12509000000E+03 0.  0.
         25    1    4    4    0    0  0.17374281175E+02 -0.14989460605E+02 -0.20724581333E+02  0.12885482508E+03  0.12509000000E+03 0.  0.
<mgrwt>
<rscale>  2 0.47933202E+03</rscale>
<asrwt>0</asrwt>
<pdfrwt beam="1">  1       21 0.17658214E-01 0.47933202E+03</pdfrwt>
<pdfrwt beam="2">  1       21 0.70347439E-01 0.47933202E+03</pdfrwt>
<totfact> 0.48710390E+04</totfact>
</mgrwt>
</event>
<event>
 7    0  0.4793433E-002  0.4527318E+03  0.7546771E-02  0.1026911E+00
         21   -1    0    0  502  501  0.00000000000E+00  0.00000000000E+00  0.14407087329E+03  0.14407087329E+03  0.00000000000E+00 0. -1.
         21   -1    0    0  501  502 -0.00000000000E+00 -0.00000000000E+00 -0.35566877235E+03  0.35566877235E+03  0.00000000000E+00 0. -1.
      99926    2    1    2    0    0  0.48849813084E-14  0.00000000000E+00 -0.21159789906E+03  0.49973964565E+03  0.45273175561E+03 0.  0.
      99925    2    3    3    0    0  0.31377936465E+01 -0.84899883967E+02 -0.21232690880E+03  0.34852497836E+03  0.26300020589E+03 0.  0.
         25    1    3    3    0    0 -0.31377936465E+01  0.84899883967E+02  0.72900973419E+00  0.15121466728E+03  0.12509000000E+03 0.  0.
         25    1    4    4    0    0 -0.33121312766E+02 -0.53302846346E+02 -0.85437575970E+02  0.16396738174E+03  0.12509000000E+03 0.  0.
         25    1    4    4    0    0  0.36259106413E+02 -0.31597037620E+02 -0.12688933283E+03  0.18455759662E+03  0.12509000000E+03 0.  0.
<mgrwt>
<rscale>  2 0.45273176E+03</rscale>
<asrwt>0</asrwt>
<pdfrwt beam="1">  1       21 0.21186893E-01 0.45273176E+03</pdfrwt>
<pdfrwt beam="2">  1       21 0.52304231E-01 0.45273176E+03</pdfrwt>
<totfact> 0.66477859E+04</totfact>
</mgrwt>
</event>
<event>
 7    0  0.4793433E-002  0.4547684E+03  0.7546771E-02  0.1026310E+00
         21   -1    0    0  502  501  0.00000000000E+00  0.00000000000E+00  0.21993643860E+03  0.21993643860E+03  0.00000000000E+00 0. -1.
         21   -1    0    0  501  502 -0.00000000000E+00 -0.00000000000E+00 -0.23508411772E+03  0.23508411772E+03  0.00000000000E+00 0. -1.
      99926    2    1    2    0    0  0.71054273576E-14  0.00000000000E+00 -0.15147679120E+02  0.45502055632E+03  0.45476835256E+03 0.  0.
      99925    2    3    3    0    0 -0.56086835183E+02  0.93306914136E+02  0.19938534401E+02  0.28551992569E+03  0.26319606666E+03 0.  0.
         25    1    4    4    0    0 -0.52719198639E+02  0.14776391620E+02  0.18355985232E+02  0.13777556368E+03  0.12509000000E+03 0.  0.
         25    1    4    4    0    0 -0.33676365438E+01  0.78530522515E+02  0.15825491688E+01  0.14774436201E+03  0.12509000000E+03 0.  0.
         25    1    3    3    0    0  0.56086835183E+02 -0.93306914136E+02 -0.35086213521E+02  0.16950063063E+03  0.12509000000E+03 0.  0.
<mgrwt>
<rscale>  2 0.45476835E+03</rscale>
<asrwt>0</asrwt>
<pdfrwt beam="1">  1       21 0.32343594E-01 0.45476835E+03</pdfrwt>
<pdfrwt beam="2">  1       21 0.34571194E-01 0.45476835E+03</pdfrwt>
<totfact> 0.68671136E+04</totfact>
</mgrwt>
</event>
<event>
 7    0  0.4793433E-002  0.4431658E+03  0.7546771E-02  0.1029780E+00
         21   -1    0    0  502  501  0.00000000000E+00  0.00000000000E+00  0.15755742429E+03  0.15755742429E+03  0.00000000000E+00 0. -1.
         21   -1    0    0  501  502 -0.00000000000E+00 -0.00000000000E+00 -0.31162597778E+03  0.31162597778E+03  0.00000000000E+00 0. -1.
      99926    2    1    2    0    0  0.00000000000E+00  0.00000000000E+00 -0.15406855348E+03  0.46918340207E+03  0.44316582179E+03 0.  0.
      99925    2    3    3    0    0 -0.68200564950E+02 -0.75302679811E+02 -0.92427098463E+02  0.29664648508E+03  0.26293451263E+03 0.  0.
         25    1    4    4    0    0 -0.37021573855E+01 -0.48561430854E+02 -0.70808592261E+02  0.15176720125E+03  0.12509000000E+03 0.  0.
         25    1    3    3    0    0  0.68200564950E+02  0.75302679811E+02 -0.61641455021E+02  0.17253691699E+03  0.12509000000E+03 0.  0.
         25    1    4    4    0    0 -0.64498407564E+02 -0.26741248957E+02 -0.21618506202E+02  0.14487928383E+03  0.12509000000E+03 0.  0.
<mgrwt>
<rscale>  2 0.44316582E+03</rscale>
<asrwt>0</asrwt>
<pdfrwt beam="1">  1       21 0.23170210E-01 0.44316582E+03</pdfrwt>
<pdfrwt beam="2">  1       21 0.45827349E-01 0.44316582E+03</pdfrwt>
<totfact> 0.74226335E+04</totfact>
</mgrwt>
</event>
<event>
 7    0  0.4793433E-002  0.4635974E+03  0.7546771E-02  0.1023743E+00
         21   -1    0    0  502  501  0.00000000000E+00  0.00000000000E+00  0.59452654122E+03  0.59452654122E+03  0.00000000000E+00 0.  1.
         21   -1    0    0  501  502 -0.00000000000E+00 -0.00000000000E+00 -0.90375511376E+02  0.90375511376E+02  0.00000000000E+00 0.  1.
      99926    2    1    2    0    0  0.14210854715E-13  0.00000000000E+00  0.50415102985E+03  0.68490205260E+03  0.46359741237E+03 0.  0.
      99925    2    3    3    0    0 -0.11832178162E+03 -0.72829107191E+01  0.35087147621E+03  0.45426117492E+03  0.26303866146E+03 0.  0.
         25    1    4    4    0    0 -0.64985287949E+02 -0.12165600064E+02  0.11661502009E+03  0.18335119439E+03  0.12509000000E+03 0.  0.
         25    1    4    4    0    0 -0.53336493674E+02  0.48826893449E+01  0.23425645612E+03  0.27090998052E+03  0.12509000000E+03 0.  0.
         25    1    3    3    0    0  0.11832178162E+03  0.72829107191E+01  0.15327955363E+03  0.23064087768E+03  0.12509000000E+03 0.  0.
<mgrwt>
<rscale>  2 0.46359741E+03</rscale>
<asrwt>0</asrwt>
<pdfrwt beam="1">  1       21 0.87430372E-01 0.46359741E+03</pdfrwt>
<pdfrwt beam="2">  1       21 0.13290517E-01 0.46359741E+03</pdfrwt>
<totfact> 0.50240478E+04</totfact>
</mgrwt>
</event>
<event>
 7    0  0.4793433E-002  0.3972741E+03  0.7546771E-02  0.1044728E+00
         21   -1    0    0  502  501  0.00000000000E+00  0.00000000000E+00  0.49790241104E+03  0.49790241104E+03  0.00000000000E+00 0. -1.
         21   -1    0    0  501  502 -0.00000000000E+00 -0.00000000000E+00 -0.79245816578E+02  0.79245816578E+02  0.00000000000E+00 0. -1.
      99926    2    1    2    0    0  0.00000000000E+00  0.00000000000E+00  0.41865659447E+03  0.57714822762E+03  0.39727412772E+03 0.  0.
      99925    2    3    3    0    0  0.27584341032E+02  0.22282719248E+02  0.25431692311E+03  0.36759524833E+03  0.26304325456E+03 0.  0.
         25    1    4    4    0    0 -0.13338779236E+02 -0.80081244817E+01  0.89931549345E+02  0.15484587420E+03  0.12509000000E+03 0.  0.
         25    1    3    3    0    0 -0.27584341032E+02 -0.22282719248E+02  0.16433967135E+03  0.20955297929E+03  0.12509000000E+03 0.  0.
         25    1    4    4    0    0  0.40923120267E+02  0.30290843730E+02  0.16438537377E+03  0.21274937413E+03  0.12509000000E+03 0.  0.
<mgrwt>
<rscale>  2 0.39727413E+03</rscale>
<asrwt>0</asrwt>
<pdfrwt beam="1">  1       21 0.73220941E-01 0.39727413E+03</pdfrwt>
<pdfrwt beam="2">  1       21 0.11653797E-01 0.39727413E+03</pdfrwt>
<totfact> 0.97568318E+04</totfact>
</mgrwt>
</event>
<event>
 7    0  0.4793433E-002  0.4438985E+03  0.7546771E-02  0.1029557E+00
         21   -1    0    0  502  501  0.00000000000E+00  0.00000000000E+00  0.10759701193E+03  0.10759701193E+03  0.00000000000E+00 0. -1.
         21   -1    0    0  501  502 -0.00000000000E+00 -0.00000000000E+00 -0.45783316054E+03  0.45783316054E+03  0.00000000000E+00 0. -1.
      99926    2    1    2    0    0  0.00000000000E+00  0.00000000000E+00 -0.35023614861E+03  0.56543017247E+03  0.44389854714E+03 0.  0.
      99925    2    3    3    0    0 -0.20226192096E+02 -0.14452275637E+02 -0.96184828348E+02  0.28116348687E+03  0.26302740927E+03 0.  0.
         25    1    3    3    0    0  0.20226192096E+02  0.14452275637E+02 -0.25405132026E+03  0.28426668560E+03  0.12509000000E+03 0.  0.
         25    1    4    4    0    0 -0.35655171883E+02 -0.36883711336E+02 -0.61490328762E+02  0.14852699443E+03  0.12509000000E+03 0.  0.
         25    1    4    4    0    0  0.15428979787E+02  0.22431435699E+02 -0.34694499586E+02  0.13263649244E+03  0.12509000000E+03 0.  0.
<mgrwt>
<rscale>  2 0.44389855E+03</rscale>
<asrwt>0</asrwt>
<pdfrwt beam="1">  1       21 0.15823090E-01 0.44389855E+03</pdfrwt>
<pdfrwt beam="2">  1       21 0.67328406E-01 0.44389855E+03</pdfrwt>
<totfact> 0.66507900E+04</totfact>
</mgrwt>
</event>
<event>
 7    0  0.4793433E-002  0.4536006E+03  0.7546771E-02  0.1026654E+00
         21   -1    0    0  502  501  0.00000000000E+00  0.00000000000E+00  0.28970400901E+02  0.28970400901E+02  0.00000000000E+00 0.  1.
         21   -1    0    0  501  502 -0.00000000000E+00 -0.00000000000E+00 -0.17755496586E+04  0.17755496586E+04  0.00000000000E+00 0.  1.
      99926    2    1    2    0    0  0.00000000000E+00  0.00000000000E+00 -0.17465792577E+04  0.18045200595E+04  0.45360064122E+03 0.  0.
      99925    2    3    3    0    0  0.68965458873E+02 -0.85947106936E+02 -0.11752674620E+04  0.12093832553E+04  0.26308004725E+03 0.  0.
         25    1    3    3    0    0 -0.68965458873E+02  0.85947106936E+02 -0.57131179571E+03  0.59513680421E+03  0.12509000000E+03 0.  0.
         25    1    4    4    0    0  0.47526704552E+01 -0.61146778911E+02 -0.66992795763E+03  0.68426054464E+03  0.12509000000E+03 0.  0.
         25    1    4    4    0    0  0.64212788418E+02 -0.24800328025E+02 -0.50533950434E+03  0.52512271062E+03  0.12509000000E+03 0.  0.
<mgrwt>
<rscale>  2 0.45360064E+03</rscale>
<asrwt>0</asrwt>
<pdfrwt beam="1">  1       21 0.42603506E-02 0.45360064E+03</pdfrwt>
<pdfrwt beam="2">  1       21 0.26111039E+00 0.45360064E+03</pdfrwt>
<totfact> 0.17360587E+04</totfact>
</mgrwt>
</event>
<event>
 7    0  0.4793433E-002  0.4530014E+03  0.7546771E-02  0.1026831E+00
         21   -1    0    0  502  501  0.00000000000E+00  0.00000000000E+00  0.44524806606E+02  0.44524806606E+02  0.00000000000E+00 0. -1.
         21   -1    0    0  501  502 -0.00000000000E+00 -0.00000000000E+00 -0.11522241453E+04  0.11522241453E+04  0.00000000000E+00 0. -1.
      99926    2    1    2    0    0  0.00000000000E+00  0.00000000000E+00 -0.11076993387E+04  0.11967489519E+04  0.45300135644E+03 0.  0.
      99925    2    3    3    0    0  0.11743038891E+02 -0.54233386014E+02 -0.95309716604E+03  0.99028224996E+03  0.26303149536E+03 0.  0.
         25    1    4    4    0    0  0.47803558487E+01 -0.19733943893E+02 -0.61824574140E+03  0.63110029726E+03  0.12509000000E+03 0.  0.
         25    1    3    3    0    0 -0.11743038891E+02  0.54233386014E+02 -0.15460217264E+03  0.20646670193E+03  0.12509000000E+03 0.  0.
         25    1    4    4    0    0  0.69626830423E+01 -0.34499442120E+02 -0.33485142463E+03  0.35918195269E+03  0.12509000000E+03 0.  0.
<mgrwt>
<rscale>  2 0.45300136E+03</rscale>
<asrwt>0</asrwt>
<pdfrwt beam="1">  1       21 0.65477667E-02 0.45300136E+03</pdfrwt>
<pdfrwt beam="2">  1       21 0.16944470E+00 0.45300136E+03</pdfrwt>
<totfact> 0.32766357E+04</totfact>
</mgrwt>
</event>
<event>
 7    0  0.4793433E-002  0.4581994E+03  0.7546771E-02  0.1025305E+00
         21   -1    0    0  502  501  0.00000000000E+00  0.00000000000E+00  0.18186073464E+02  0.18186073464E+02  0.00000000000E+00 0.  1.
         21   -1    0    0  501  502 -0.00000000000E+00 -0.00000000000E+00 -0.28860920080E+04  0.28860920080E+04  0.00000000000E+00 0.  1.
      99926    2    1    2    0    0  0.00000000000E+00  0.00000000000E+00 -0.28679059345E+04  0.29042780815E+04  0.45819943816E+03 0.  0.
      99925    2    3    3    0    0 -0.70197747516E+02 -0.76750802245E+02 -0.14689429779E+04  0.14958877692E+04  0.26280855478E+03 0.  0.
         25    1    3    3    0    0  0.70197747516E+02  0.76750802245E+02 -0.13989629566E+04  0.14083903122E+04  0.12509000000E+03 0.  0.
         25    1    4    4    0    0 -0.95997304468E+01 -0.65675552817E+02 -0.81951545527E+03  0.83166010039E+03  0.12509000000E+03 0.  0.
         25    1    4    4    0    0 -0.60598017069E+02 -0.11075249428E+02 -0.64942752262E+03  0.66422766885E+03  0.12509000000E+03 0.  0.
<mgrwt>
<rscale>  2 0.45819944E+03</rscale>
<asrwt>0</asrwt>
<pdfrwt beam="1">  1       21 0.26744214E-02 0.45819944E+03</pdfrwt>
<pdfrwt beam="2">  1       21 0.42442548E+00 0.45819944E+03</pdfrwt>
<totfact> 0.37229052E+03</totfact>
</mgrwt>
</event>
<event>
 7    0  0.4793433E-002  0.4292857E+03  0.7546771E-02  0.1034086E+00
         21   -1    0    0  502  501  0.00000000000E+00  0.00000000000E+00  0.56196034030E+02  0.56196034030E+02  0.00000000000E+00 0. -1.
         21   -1    0    0  501  502 -0.00000000000E+00 -0.00000000000E+00 -0.81983621071E+03  0.81983621071E+03  0.00000000000E+00 0. -1.
      99926    2    1    2    0    0 -0.17763568394E-14  0.00000000000E+00 -0.76364017668E+03  0.87603224474E+03  0.42928565593E+03 0.  0.
      99925    2    3    3    0    0  0.11193079153E+02 -0.83398528516E+02 -0.53657463337E+03  0.60347606954E+03  0.26304073782E+03 0.  0.
         25    1    3    3    0    0 -0.11193079153E+02  0.83398528516E+02 -0.22706554331E+03  0.27255617519E+03  0.12509000000E+03 0.  0.
         25    1    4    4    0    0  0.34828350219E+02 -0.22869568135E+02 -0.21260882173E+03  0.25017204141E+03  0.12509000000E+03 0.  0.
         25    1    4    4    0    0 -0.23635271066E+02 -0.60528960381E+02 -0.32396581163E+03  0.35330402813E+03  0.12509000000E+03 0.  0.
<mgrwt>
<rscale>  2 0.42928566E+03</rscale>
<asrwt>0</asrwt>
<pdfrwt beam="1">  1       21 0.82641223E-02 0.42928566E+03</pdfrwt>
<pdfrwt beam="2">  1       21 0.12056415E+00 0.42928566E+03</pdfrwt>
<totfact> 0.54448484E+04</totfact>
</mgrwt>
</event>
<event>
 7    0  0.4793433E-002  0.4577007E+03  0.7546771E-02  0.1025450E+00
         21   -1    0    0  502  501  0.00000000000E+00  0.00000000000E+00  0.18853601450E+03  0.18853601450E+03  0.00000000000E+00 0.  1.
         21   -1    0    0  501  502 -0.00000000000E+00 -0.00000000000E+00 -0.27778498849E+03  0.27778498849E+03  0.00000000000E+00 0.  1.
      99926    2    1    2    0    0  0.14210854715E-13  0.00000000000E+00 -0.89248973985E+02  0.46632100299E+03  0.45770066471E+03 0.  0.
      99925    2    3    3    0    0  0.69903215017E+02  0.35819929289E+02  0.30470628313E+02  0.27618994798E+03  0.26302642714E+03 0.  0.
         25    1    4    4    0    0  0.39293641096E+02  0.57759003012E+02  0.25000512073E+02  0.14543942507E+03  0.12509000000E+03 0.  0.
         25    1    4    4    0    0  0.30609573921E+02 -0.21939073723E+02  0.54701162409E+01  0.13075052292E+03  0.12509000000E+03 0.  0.
         25    1    3    3    0    0 -0.69903215017E+02 -0.35819929289E+02 -0.11971960230E+03  0.19013105501E+03  0.12509000000E+03 0.  0.
<mgrwt>
<rscale>  2 0.45770066E+03</rscale>
<asrwt>0</asrwt>
<pdfrwt beam="1">  1       21 0.27725885E-01 0.45770066E+03</pdfrwt>
<pdfrwt beam="2">  1       21 0.40850733E-01 0.45770066E+03</pdfrwt>
<totfact> 0.66277920E+04</totfact>
</mgrwt>
</event>
<event>
 7    0  0.4793433E-002  0.4656252E+03  0.7546771E-02  0.1023162E+00
         21   -1    0    0  502  501  0.00000000000E+00  0.00000000000E+00  0.21307906814E+03  0.21307906814E+03  0.00000000000E+00 0. -1.
         21   -1    0    0  501  502 -0.00000000000E+00 -0.00000000000E+00 -0.25437370120E+03  0.25437370120E+03  0.00000000000E+00 0. -1.
      99926    2    1    2    0    0  0.00000000000E+00  0.00000000000E+00 -0.41294633051E+02  0.46745276934E+03  0.46562521930E+03 0.  0.
      99925    2    3    3    0    0 -0.12272568548E+03 -0.12118251082E+01 -0.29000773555E+02  0.29177775837E+03  0.26311623481E+03 0.  0.
         25    1    4    4    0    0 -0.21627356577E+02 -0.18238242256E+02 -0.57325107632E+01  0.12837735709E+03  0.12509000000E+03 0.  0.
         25    1    4    4    0    0 -0.10109832890E+03  0.17026417148E+02 -0.23268262792E+02  0.16340040129E+03  0.12509000000E+03 0.  0.
         25    1    3    3    0    0  0.12272568548E+03  0.12118251082E+01 -0.12293859496E+02  0.17567501096E+03  0.12509000000E+03 0.  0.
<mgrwt>
<rscale>  2 0.46562522E+03</rscale>
<asrwt>0</asrwt>
<pdfrwt beam="1">  1       21 0.31335157E-01 0.46562522E+03</pdfrwt>
<pdfrwt beam="2">  1       21 0.37407897E-01 0.46562522E+03</pdfrwt>
<totfact> 0.62200337E+04</totfact>
</mgrwt>
</event>
<event>
 7    0  0.4793433E-002  0.4505179E+03  0.7546771E-02  0.1027568E+00
         21   -1    0    0  502  501  0.00000000000E+00  0.00000000000E+00  0.54901682994E+03  0.54901682994E+03  0.00000000000E+00 0.  1.
         21   -1    0    0  501  502 -0.00000000000E+00 -0.00000000000E+00 -0.92422644814E+02  0.92422644814E+02  0.00000000000E+00 0.  1.
      99926    2    1    2    0    0  0.14210854715E-13  0.71054273576E-14  0.45659418512E+03  0.64143947475E+03  0.45051786855E+03 0.  0.
      99925    2    3    3    0    0 -0.71665691460E+02 -0.36093956718E+02  0.39339200513E+03  0.47994406088E+03  0.26296442123E+03 0.  0.
         25    1    4    4    0    0 -0.30326269925E+02 -0.93309713970E+01  0.12449054365E+03  0.17931021508E+03  0.12509000000E+03 0.  0.
         25    1    3    3    0    0  0.71665691460E+02  0.36093956718E+02  0.63202179997E+02  0.16149541387E+03  0.12509000000E+03 0.  0.
         25    1    4    4    0    0 -0.41339421535E+02 -0.26762985321E+02  0.26890146148E+03  0.30063384580E+03  0.12509000000E+03 0.  0.
<mgrwt>
<rscale>  2 0.45051787E+03</rscale>
<asrwt>0</asrwt>
<pdfrwt beam="1">  1       21 0.80737768E-01 0.45051787E+03</pdfrwt>
<pdfrwt beam="2">  1       21 0.13591566E-01 0.45051787E+03</pdfrwt>
<totfact> 0.58229672E+04</totfact>
</mgrwt>
</event>
<event>
 7    0  0.4793433E-002  0.4562828E+03  0.7546771E-02  0.1025865E+00
         21   -1    0    0  502  501  0.00000000000E+00  0.00000000000E+00  0.17550700746E+03  0.17550700746E+03  0.00000000000E+00 0. -1.
         21   -1    0    0  501  502 -0.00000000000E+00 -0.00000000000E+00 -0.29656081699E+03  0.29656081699E+03  0.00000000000E+00 0. -1.
      99926    2    1    2    0    0  0.00000000000E+00  0.44408920985E-14 -0.12105380953E+03  0.47206782445E+03  0.45628281370E+03 0.  0.
      99925    2    3    3    0    0 -0.58389799847E+02 -0.66631019914E+01 -0.17747411771E+03  0.32278780258E+03  0.26313710757E+03 0.  0.
         25    1    3    3    0    0  0.58389799847E+02  0.66631019914E+01  0.56420308177E+02  0.14928002187E+03  0.12509000000E+03 0.  0.
         25    1    4    4    0    0 -0.18578154244E+02 -0.42582360605E+02 -0.83855251668E+02  0.15759954499E+03  0.12509000000E+03 0.  0.
         25    1    4    4    0    0 -0.39811645603E+02  0.35919258614E+02 -0.93618866040E+02  0.16518825758E+03  0.12509000000E+03 0.  0.
<mgrwt>
<rscale>  2 0.45628281E+03</rscale>
<asrwt>0</asrwt>
<pdfrwt beam="1">  1       21 0.25809854E-01 0.45628281E+03</pdfrwt>
<pdfrwt beam="2">  1       21 0.43611884E-01 0.45628281E+03</pdfrwt>
<totfact> 0.66601835E+04</totfact>
</mgrwt>
</event>
<event>
 7    0  0.4793433E-002  0.4462790E+03  0.7546771E-02  0.1028838E+00
         21   -1    0    0  502  501  0.00000000000E+00  0.00000000000E+00  0.16854291909E+04  0.16854291909E+04  0.00000000000E+00 0. -1.
         21   -1    0    0  501  502 -0.00000000000E+00 -0.00000000000E+00 -0.29542175100E+02  0.29542175100E+02  0.00000000000E+00 0. -1.
      99926    2    1    2    0    0 -0.14210854715E-13 -0.35527136788E-14  0.16558870158E+04  0.17149713660E+04  0.44627903504E+03 0.  0.
      99925    2    3    3    0    0 -0.98736458221E+02 -0.29819027032E+02  0.98288106491E+03  0.10227123245E+04  0.26314871898E+03 0.  0.
         25    1    4    4    0    0 -0.78491584142E+02 -0.18235200748E+02  0.63754445795E+03  0.65467846710E+03  0.12509000000E+03 0.  0.
         25    1    4    4    0    0 -0.20244874079E+02 -0.11583826284E+02  0.34533660697E+03  0.36803385737E+03  0.12509000000E+03 0.  0.
         25    1    3    3    0    0  0.98736458221E+02  0.29819027032E+02  0.67300595093E+03  0.69225904157E+03  0.12509000000E+03 0.  0.
<mgrwt>
<rscale>  2 0.44627904E+03</rscale>
<asrwt>0</asrwt>
<pdfrwt beam="1">  1       21 0.24785717E+00 0.44627904E+03</pdfrwt>
<pdfrwt beam="2">  1       21 0.43444387E-02 0.44627904E+03</pdfrwt>
<totfact> 0.20291408E+04</totfact>
</mgrwt>
</event>
<event>
 6    0  0.4793433E-002  0.6241603E+03  0.7546771E-02  0.9856511E-01
         21   -1    0    0  502  501  0.00000000000E+00  0.00000000000E+00  0.39290857194E+03  0.39290857194E+03  0.00000000000E+00 0. -1.
         21   -1    0    0  501  502 -0.00000000000E+00 -0.00000000000E+00 -0.24787960550E+03  0.24787960550E+03  0.00000000000E+00 0. -1.
      99925    2    1    2    0    0 -0.90038224270E+02 -0.21174758008E+03  0.20035931361E+02  0.35059050960E+03  0.26375812286E+03 0.  0.
         25    1    3    3    0    0 -0.27034013373E+02 -0.13620271233E+03 -0.15498821614E+02  0.18753596534E+03  0.12509000000E+03 0.  0.
         25    1    1    2    0    0  0.90038224270E+02  0.21174758008E+03  0.12499303508E+03  0.29019766784E+03  0.12509000000E+03 0.  0.
         25    1    3    3    0    0 -0.63004210896E+02 -0.75544867754E+02  0.35534752975E+02  0.16305454426E+03  0.12509000000E+03 0.  0.
<mgrwt>
<rscale>  2 0.62416031E+03</rscale>
<asrwt>0</asrwt>
<pdfrwt beam="1">  1       21 0.57780672E-01 0.62416031E+03</pdfrwt>
<pdfrwt beam="2">  1       21 0.36452883E-01 0.62416031E+03</pdfrwt>
<totfact> 0.17714098E+04</totfact>
</mgrwt>
</event>
<event>
 7    0  0.4793433E-002  0.4544895E+03  0.7546771E-02  0.1026392E+00
         21   -1    0    0  502  501  0.00000000000E+00  0.00000000000E+00  0.53958110167E+02  0.53958110167E+02  0.00000000000E+00 0. -1.
         21   -1    0    0  501  502 -0.00000000000E+00 -0.00000000000E+00 -0.95704203453E+03  0.95704203453E+03  0.00000000000E+00 0. -1.
      99926    2    1    2    0    0  0.00000000000E+00  0.00000000000E+00 -0.90308392436E+03  0.10110001447E+04  0.45448951378E+03 0.  0.
      99925    2    3    3    0    0  0.37038770600E+02  0.88075800626E+02 -0.70132463356E+03  0.75510263258E+03  0.26304852576E+03 0.  0.
         25    1    4    4    0    0  0.20825033205E+02  0.36761658648E+02 -0.23787217467E+03  0.27205841494E+03  0.12509000000E+03 0.  0.
         25    1    3    3    0    0 -0.37038770600E+02 -0.88075800626E+02 -0.20175929080E+03  0.25589751212E+03  0.12509000000E+03 0.  0.
         25    1    4    4    0    0  0.16213737395E+02  0.51314141978E+02 -0.46345245889E+03  0.48304421764E+03  0.12509000000E+03 0.  0.
<mgrwt>
<rscale>  2 0.45448951E+03</rscale>
<asrwt>0</asrwt>
<pdfrwt beam="1">  1       21 0.79350170E-02 0.45448951E+03</pdfrwt>
<pdfrwt beam="2">  1       21 0.14074146E+00 0.45448951E+03</pdfrwt>
<totfact> 0.38896453E+04</totfact>
</mgrwt>
</event>
<event>
 7    0  0.4793433E-002  0.4357989E+03  0.7546771E-02  0.1032044E+00
         21   -1    0    0  502  501  0.00000000000E+00  0.00000000000E+00  0.17235520549E+03  0.17235520549E+03  0.00000000000E+00 0.  1.
         21   -1    0    0  501  502 -0.00000000000E+00 -0.00000000000E+00 -0.27547861879E+03  0.27547861879E+03  0.00000000000E+00 0.  1.
      99926    2    1    2    0    0 -0.35527136788E-14  0.00000000000E+00 -0.10312341330E+03  0.44783382427E+03  0.43579891670E+03 0.  0.
      99925    2    3    3    0    0  0.16820505018E+02  0.49107906733E+02 -0.14679366751E+03  0.30553443884E+03  0.26288475917E+03 0.  0.
         25    1    4    4    0    0  0.33665906747E+02 -0.22063019127E+01 -0.90883373620E+02  0.15825788052E+03  0.12509000000E+03 0.  0.
         25    1    4    4    0    0 -0.16845401729E+02  0.51314208645E+02 -0.55910293887E+02  0.14727655832E+03  0.12509000000E+03 0.  0.
         25    1    3    3    0    0 -0.16820505018E+02 -0.49107906733E+02  0.43670254210E+02  0.14229938544E+03  0.12509000000E+03 0.  0.
<mgrwt>
<rscale>  2 0.43579892E+03</rscale>
<asrwt>0</asrwt>
<pdfrwt beam="1">  1       21 0.25346354E-01 0.43579892E+03</pdfrwt>
<pdfrwt beam="2">  1       21 0.40511561E-01 0.43579892E+03</pdfrwt>
<totfact> 0.80732911E+04</totfact>
</mgrwt>
</event>
<event>
 7    0  0.4793433E-002  0.4585474E+03  0.7546771E-02  0.1025203E+00
         21   -1    0    0  502  501  0.00000000000E+00  0.00000000000E+00  0.20334075899E+03  0.20334075899E+03  0.00000000000E+00 0.  1.
         21   -1    0    0  501  502 -0.00000000000E+00 -0.00000000000E+00 -0.25851395769E+03  0.25851395769E+03  0.00000000000E+00 0.  1.
      99926    2    1    2    0    0  0.00000000000E+00  0.00000000000E+00 -0.55173198706E+02  0.46185471668E+03  0.45854737756E+03 0.  0.
      99925    2    3    3    0    0 -0.10392981921E+03 -0.43733058012E+02 -0.49847500110E+01  0.28612658528E+03  0.26292506040E+03 0.  0.
         25    1    4    4    0    0 -0.52757476207E+02 -0.54228488955E+02  0.22206656394E+02  0.14786725127E+03  0.12509000000E+03 0.  0.
         25    1    4    4    0    0 -0.51172343000E+02  0.10495430942E+02 -0.27191406405E+02  0.13825933401E+03  0.12509000000E+03 0.  0.
         25    1    3    3    0    0  0.10392981921E+03  0.43733058012E+02 -0.50188448695E+02  0.17572813140E+03  0.12509000000E+03 0.  0.
<mgrwt>
<rscale>  2 0.45854738E+03</rscale>
<asrwt>0</asrwt>
<pdfrwt beam="1">  1       21 0.29903053E-01 0.45854738E+03</pdfrwt>
<pdfrwt beam="2">  1       21 0.38016758E-01 0.45854738E+03</pdfrwt>
<totfact> 0.66154149E+04</totfact>
</mgrwt>
</event>
<event>
 7    0  0.4793433E-002  0.4533145E+03  0.7546771E-02  0.1026738E+00
         21   -1    0    0  502  501  0.00000000000E+00  0.00000000000E+00  0.17658149035E+03  0.17658149035E+03  0.00000000000E+00 0. -1.
         21   -1    0    0  501  502 -0.00000000000E+00 -0.00000000000E+00 -0.29093368923E+03  0.29093368923E+03  0.00000000000E+00 0. -1.
      99926    2    1    2    0    0  0.00000000000E+00  0.00000000000E+00 -0.11435219888E+03  0.46751517958E+03  0.45331447997E+03 0.  0.
      99925    2    3    3    0    0  0.84608491203E+02 -0.27934980091E+02 -0.14123488108E+03  0.31160127193E+03  0.26307622686E+03 0.  0.
         25    1    4    4    0    0  0.18108523842E+02  0.20378855016E+02 -0.68046738163E+02  0.14498649262E+03  0.12509000000E+03 0.  0.
         25    1    3    3    0    0 -0.84608491203E+02  0.27934980091E+02  0.26882682197E+02  0.15591390765E+03  0.12509000000E+03 0.  0.
         25    1    4    4    0    0  0.66499967362E+02 -0.48313835108E+02 -0.73188142912E+02  0.16661477931E+03  0.12509000000E+03 0.  0.
<mgrwt>
<rscale>  2 0.45331448E+03</rscale>
<asrwt>0</asrwt>
<pdfrwt beam="1">  1       21 0.25967866E-01 0.45331448E+03</pdfrwt>
<pdfrwt beam="2">  1       21 0.42784366E-01 0.45331448E+03</pdfrwt>
<totfact> 0.68532768E+04</totfact>
</mgrwt>
</event>
<event>
 7    0  0.4793433E-002  0.4417626E+03  0.7546771E-02  0.1030207E+00
         21   -1    0    0  502  501  0.00000000000E+00  0.00000000000E+00  0.11720731737E+03  0.11720731737E+03  0.00000000000E+00 0. -1.
         21   -1    0    0  501  502 -0.00000000000E+00 -0.00000000000E+00 -0.41625855228E+03  0.41625855228E+03  0.00000000000E+00 0. -1.
      99926    2    1    2    0    0 -0.14210854715E-13  0.00000000000E+00 -0.29905123491E+03  0.53346586965E+03  0.44176259799E+03 0.  0.
      99925    2    3    3    0    0  0.89333954063E+02  0.42000421299E+02 -0.17061747745E+03  0.32880192829E+03  0.26316495530E+03 0.  0.
         25    1    4    4    0    0  0.63901581133E+02 -0.96610218558E+01 -0.64082669779E+02  0.15469597306E+03  0.12509000000E+03 0.  0.
         25    1    4    4    0    0  0.25432372931E+02  0.51661443155E+02 -0.10653480767E+03  0.17410595523E+03  0.12509000000E+03 0.  0.
         25    1    3    3    0    0 -0.89333954063E+02 -0.42000421299E+02 -0.12843375746E+03  0.20466394136E+03  0.12509000000E+03 0.  0.
<mgrwt>
<rscale>  2 0.44176260E+03</rscale>
<asrwt>0</asrwt>
<pdfrwt beam="1">  1       21 0.17236370E-01 0.44176260E+03</pdfrwt>
<pdfrwt beam="2">  1       21 0.61214494E-01 0.44176260E+03</pdfrwt>
<totfact> 0.70026137E+04</totfact>
</mgrwt>
</event>
<event>
 7    0  0.4793433E-002  0.4481256E+03  0.7546771E-02  0.1028282E+00
         21   -1    0    0  502  501  0.00000000000E+00  0.00000000000E+00  0.22569125157E+03  0.22569125157E+03  0.00000000000E+00 0.  1.
         21   -1    0    0  501  502 -0.00000000000E+00 -0.00000000000E+00 -0.22244610650E+03  0.22244610650E+03  0.00000000000E+00 0.  1.
      99926    2    1    2    0    0  0.00000000000E+00  0.00000000000E+00  0.32451450764E+01  0.44813735807E+03  0.44812560821E+03 0.  0.
      99925    2    3    3    0    0  0.10094921031E+03 -0.34101081490E+02  0.25170195638E+01  0.28381552419E+03  0.26304237218E+03 0.  0.
         25    1    4    4    0    0  0.22881625961E+02 -0.12356926791E+02 -0.30053848700E+02  0.13125168330E+03  0.12509000000E+03 0.  0.
         25    1    4    4    0    0  0.78067584350E+02 -0.21744154699E+02  0.32570868264E+02  0.15256384090E+03  0.12509000000E+03 0.  0.
         25    1    3    3    0    0 -0.10094921031E+03  0.34101081490E+02  0.72812551253E+00  0.16432183387E+03  0.12509000000E+03 0.  0.
<mgrwt>
<rscale>  2 0.44812561E+03</rscale>
<asrwt>0</asrwt>
<pdfrwt beam="1">  1       21 0.33189890E-01 0.44812561E+03</pdfrwt>
<pdfrwt beam="2">  1       21 0.32712663E-01 0.44812561E+03</pdfrwt>
<totfact> 0.72972693E+04</totfact>
</mgrwt>
</event>
<event>
 7    0  0.4793433E-002  0.4551471E+03  0.7546771E-02  0.1026198E+00
         21   -1    0    0  502  501  0.00000000000E+00  0.00000000000E+00  0.24181133671E+03  0.24181133671E+03  0.00000000000E+00 0.  1.
         21   -1    0    0  501  502 -0.00000000000E+00 -0.00000000000E+00 -0.21417408782E+03  0.21417408782E+03  0.00000000000E+00 0.  1.
      99926    2    1    2    0    0  0.00000000000E+00  0.00000000000E+00  0.27637248893E+02  0.45598542453E+03  0.45514710793E+03 0.  0.
      99925    2    3    3    0    0  0.10955576661E+03  0.99026912132E+01  0.44527037545E+02  0.28855393899E+03  0.26302127165E+03 0.  0.
         25    1    4    4    0    0  0.80190274905E+02 -0.21813600234E+01 -0.89128700495E+01  0.14886969427E+03  0.12509000000E+03 0.  0.
         25    1    4    4    0    0  0.29365491701E+02  0.12084051237E+02  0.53439907595E+02  0.13968424471E+03  0.12509000000E+03 0.  0.
         25    1    3    3    0    0 -0.10955576661E+03 -0.99026912132E+01 -0.16889788652E+02  0.16743148554E+03  0.12509000000E+03 0.  0.
<mgrwt>
<rscale>  2 0.45514711E+03</rscale>
<asrwt>0</asrwt>
<pdfrwt beam="1">  1       21 0.35560491E-01 0.45514711E+03</pdfrwt>
<pdfrwt beam="2">  1       21 0.31496189E-01 0.45514711E+03</pdfrwt>
<totfact> 0.68393384E+04</totfact>
</mgrwt>
</event>
<event>
 7    0  0.4793433E-002  0.4250935E+03  0.7546771E-02  0.1035421E+00
         21   -1    0    0  502  501  0.00000000000E+00  0.00000000000E+00  0.86555238264E+02  0.86555238264E+02  0.00000000000E+00 0.  1.
         21   -1    0    0  501  502 -0.00000000000E+00 -0.00000000000E+00 -0.52193396342E+03  0.52193396342E+03  0.00000000000E+00 0.  1.
      99926    2    1    2    0    0  0.00000000000E+00  0.22204460493E-15 -0.43537872516E+03  0.60848920168E+03  0.42509348883E+03 0.  0.
      99925    2    3    3    0    0 -0.23750252570E+02  0.11915010786E+01 -0.39443283806E+03  0.47473731219E+03  0.26312118440E+03 0.  0.
         25    1    4    4    0    0  0.26793039029E+02  0.13590637450E+02 -0.18694755332E+03  0.22693494257E+03  0.12509000000E+03 0.  0.
         25    1    4    4    0    0 -0.50543291600E+02 -0.12399136371E+02 -0.20748528474E+03  0.24780236962E+03  0.12509000000E+03 0.  0.
         25    1    3    3    0    0  0.23750252570E+02 -0.11915010786E+01 -0.40945887099E+02  0.13375188949E+03  0.12509000000E+03 0.  0.
<mgrwt>
<rscale>  2 0.42509349E+03</rscale>
<asrwt>0</asrwt>
<pdfrwt beam="1">  1       21 0.12728712E-01 0.42509349E+03</pdfrwt>
<pdfrwt beam="2">  1       21 0.76754992E-01 0.42509349E+03</pdfrwt>
<totfact> 0.74188771E+04</totfact>
</mgrwt>
</event>
<event>
 7    0  0.4793433E-002  0.4392158E+03  0.7546771E-02  0.1030988E+00
         21   -1    0    0  502  501  0.00000000000E+00  0.00000000000E+00  0.19803021673E+03  0.19803021673E+03  0.00000000000E+00 0.  1.
         21   -1    0    0  501  502 -0.00000000000E+00 -0.00000000000E+00 -0.24353676913E+03  0.24353676913E+03  0.00000000000E+00 0.  1.
      99926    2    1    2    0    0 -0.71054273576E-14  0.14210854715E-13 -0.45506552407E+02  0.44156698586E+03  0.43921584294E+03 0.  0.
      99925    2    3    3    0    0 -0.32656246519E+02  0.82600010091E+02  0.11806814524E+02  0.27779420963E+03  0.26294681959E+03 0.  0.
         25    1    3    3    0    0  0.32656246519E+02 -0.82600010091E+02 -0.57313366932E+02  0.16377277623E+03  0.12509000000E+03 0.  0.
         25    1    4    4    0    0  0.37670267116E+01  0.31291506704E+02 -0.28447432447E+02  0.13209887734E+03  0.12509000000E+03 0.  0.
         25    1    4    4    0    0 -0.36423273230E+02  0.51308503387E+02  0.40254246971E+02  0.14569533229E+03  0.12509000000E+03 0.  0.
<mgrwt>
<rscale>  2 0.43921584E+03</rscale>
<asrwt>0</asrwt>
<pdfrwt beam="1">  1       21 0.29122091E-01 0.43921584E+03</pdfrwt>
<pdfrwt beam="2">  1       21 0.35814230E-01 0.43921584E+03</pdfrwt>
<totfact> 0.79035329E+04</totfact>
</mgrwt>
</event>
<event>
 7    0  0.4793433E-002  0.4579911E+03  0.7546771E-02  0.1025365E+00
         21   -1    0    0  502  501  0.00000000000E+00  0.00000000000E+00  0.16299548453E+03  0.16299548453E+03  0.00000000000E+00 0.  1.
         21   -1    0    0  501  502 -0.00000000000E+00 -0.00000000000E+00 -0.32172027394E+03  0.32172027394E+03  0.00000000000E+00 0.  1.
      99926    2    1    2    0    0  0.00000000000E+00  0.00000000000E+00 -0.15872478940E+03  0.48471575847E+03  0.45799105640E+03 0.  0.
      99925    2    3    3    0    0 -0.85192464425E+02 -0.51994047898E+02 -0.16209659205E+03  0.32465322643E+03  0.26298911624E+03 0.  0.
         25    1    4    4    0    0 -0.62778561400E+02 -0.46416097406E+02 -0.51799414758E+02  0.15628912099E+03  0.12509000000E+03 0.  0.
         25    1    4    4    0    0 -0.22413903024E+02 -0.55779504927E+01 -0.11029717730E+03  0.16836410544E+03  0.12509000000E+03 0.  0.
         25    1    3    3    0    0  0.85192464425E+02  0.51994047898E+02  0.33718026490E+01  0.16006253205E+03  0.12509000000E+03 0.  0.
<mgrwt>
<rscale>  2 0.45799106E+03</rscale>
<asrwt>0</asrwt>
<pdfrwt beam="1">  1       21 0.23969924E-01 0.45799106E+03</pdfrwt>
<pdfrwt beam="2">  1       21 0.47311804E-01 0.45799106E+03</pdfrwt>
<totfact> 0.64805977E+04</totfact>
</mgrwt>
</event>
<event>
 7    0  0.4793433E-002  0.4530646E+03  0.7546771E-02  0.1026812E+00
         21   -1    0    0  502  501  0.00000000000E+00  0.00000000000E+00  0.97710015891E+03  0.97710015891E+03  0.00000000000E+00 0.  1.
         21   -1    0    0  501  502 -0.00000000000E+00 -0.00000000000E+00 -0.52519562384E+02  0.52519562384E+02  0.00000000000E+00 0.  1.
      99926    2    1    2    0    0  0.00000000000E+00 -0.35527136788E-14  0.92458059652E+03  0.10296197213E+04  0.45306455501E+03 0.  0.
      99925    2    3    3    0    0 -0.10608108097E+03  0.18542703514E+02  0.64710025323E+03  0.70675771267E+03  0.26300323021E+03 0.  0.
         25    1    4    4    0    0 -0.32656082712E+02  0.39363517880E+02  0.26377552729E+03  0.29637972801E+03  0.12509000000E+03 0.  0.
         25    1    4    4    0    0 -0.73424998262E+02 -0.20820814365E+02  0.38332472593E+03  0.41037798466E+03  0.12509000000E+03 0.  0.
         25    1    3    3    0    0  0.10608108097E+03 -0.18542703514E+02  0.27748034330E+03  0.32286200862E+03  0.12509000000E+03 0.  0.
<mgrwt>
<rscale>  2 0.45306456E+03</rscale>
<asrwt>0</asrwt>
<pdfrwt beam="1">  1       21 0.14369119E+00 0.45306456E+03</pdfrwt>
<pdfrwt beam="2">  1       21 0.77234657E-02 0.45306456E+03</pdfrwt>
<totfact> 0.38614382E+04</totfact>
</mgrwt>
</event>
<event>
 7    0  0.4793433E-002  0.4518192E+03  0.7546771E-02  0.1027181E+00
         21   -1    0    0  502  501  0.00000000000E+00  0.00000000000E+00  0.20305120673E+04  0.20305120673E+04  0.00000000000E+00 0. -1.
         21   -1    0    0  501  502 -0.00000000000E+00 -0.00000000000E+00 -0.25134123163E+02  0.25134123163E+02  0.00000000000E+00 0. -1.
      99926    2    1    2    0    0  0.00000000000E+00  0.00000000000E+00  0.20053779442E+04  0.20556461905E+04  0.45181916907E+03 0.  0.
      99925    2    3    3    0    0  0.76514388925E+02 -0.39336498971E+02  0.95402024231E+03  0.99338335239E+03  0.26316164273E+03 0.  0.
         25    1    3    3    0    0 -0.76514388925E+02  0.39336498971E+02  0.10513577019E+04  0.10622628381E+04  0.12509000000E+03 0.  0.
         25    1    4    4    0    0  0.37291727097E+02  0.15503855243E+02  0.38227937529E+03  0.40424753717E+03  0.12509000000E+03 0.  0.
         25    1    4    4    0    0  0.39222661828E+02 -0.54840354214E+02  0.57174086702E+03  0.58913581522E+03  0.12509000000E+03 0.  0.
<mgrwt>
<rscale>  2 0.45181917E+03</rscale>
<asrwt>0</asrwt>
<pdfrwt beam="1">  1       21 0.29860460E+00 0.45181917E+03</pdfrwt>
<pdfrwt beam="2">  1       21 0.36961960E-02 0.45181917E+03</pdfrwt>
<totfact> 0.13144054E+04</totfact>
</mgrwt>
</event>
<event>
 7    0  0.4793433E-002  0.4259030E+03  0.7546771E-02  0.1035162E+00
         21   -1    0    0  502  501  0.00000000000E+00  0.00000000000E+00  0.16777435043E+03  0.16777435043E+03  0.00000000000E+00 0. -1.
         21   -1    0    0  501  502 -0.00000000000E+00 -0.00000000000E+00 -0.27029365599E+03  0.27029365599E+03  0.00000000000E+00 0. -1.
      99926    2    1    2    0    0  0.71054273576E-14 -0.14210854715E-13 -0.10251930555E+03  0.43806800642E+03  0.42590300567E+03 0.  0.
      99925    2    3    3    0    0  0.32576087845E+02 -0.75917862477E+02 -0.62859917669E+02  0.28300318614E+03  0.26327687094E+03 0.  0.
         25    1    4    4    0    0  0.25653839762E+02 -0.13405461217E+02  0.26528502712E+01  0.12842262885E+03  0.12509000000E+03 0.  0.
         25    1    4    4    0    0  0.69222480824E+01 -0.62512401259E+02 -0.65512767940E+02  0.15458055729E+03  0.12509000000E+03 0.  0.
         25    1    3    3    0    0 -0.32576087845E+02  0.75917862477E+02 -0.39659387883E+02  0.15506482028E+03  0.12509000000E+03 0.  0.
<mgrwt>
<rscale>  2 0.42590301E+03</rscale>
<asrwt>0</asrwt>
<pdfrwt beam="1">  1       21 0.24672699E-01 0.42590301E+03</pdfrwt>
<pdfrwt beam="2">  1       21 0.39749067E-01 0.42590301E+03</pdfrwt>
<totfact> 0.88644350E+04</totfact>
</mgrwt>
</event>
<event>
 7    0  0.4793433E-002  0.4487214E+03  0.7546771E-02  0.1028104E+00
         21   -1    0    0  502  501  0.00000000000E+00  0.00000000000E+00  0.36103863151E+03  0.36103863151E+03  0.00000000000E+00 0.  1.
         21   -1    0    0  501  502 -0.00000000000E+00 -0.00000000000E+00 -0.13942478284E+03  0.13942478284E+03  0.00000000000E+00 0.  1.
      99926    2    1    2    0    0  0.00000000000E+00  0.14210854715E-13  0.22161384867E+03  0.50046341435E+03  0.44872144052E+03 0.  0.
      99925    2    3    3    0    0  0.47061360307E+02 -0.81989344332E+02  0.19669347997E+03  0.34170083345E+03  0.26293366140E+03 0.  0.
         25    1    4    4    0    0  0.22399606765E+02 -0.71146545850E+02  0.13904246968E+03  0.20135513364E+03  0.12509000000E+03 0.  0.
         25    1    4    4    0    0  0.24661753542E+02 -0.10842798482E+02  0.57651010287E+02  0.14034569981E+03  0.12509000000E+03 0.  0.
         25    1    3    3    0    0 -0.47061360307E+02  0.81989344332E+02  0.24920368705E+02  0.15876258090E+03  0.12509000000E+03 0.  0.
<mgrwt>
<rscale>  2 0.44872144E+03</rscale>
<asrwt>0</asrwt>
<pdfrwt beam="1">  1       21 0.53093916E-01 0.44872144E+03</pdfrwt>
<pdfrwt beam="2">  1       21 0.20503645E-01 0.44872144E+03</pdfrwt>
<totfact> 0.68593300E+04</totfact>
</mgrwt>
</event>
<event>
 7    0  0.4793433E-002  0.4550318E+03  0.7546771E-02  0.1026232E+00
         21   -1    0    0  502  501  0.00000000000E+00  0.00000000000E+00  0.71666963280E+02  0.71666963280E+02  0.00000000000E+00 0. -1.
         21   -1    0    0  501  502 -0.00000000000E+00 -0.00000000000E+00 -0.72227811002E+03  0.72227811002E+03  0.00000000000E+00 0. -1.
      99926    2    1    2    0    0  0.00000000000E+00  0.71054273576E-14 -0.65061114674E+03  0.79394507330E+03  0.45503177379E+03 0.  0.
      99925    2    3    3    0    0 -0.60052855164E+02 -0.47058636435E+02 -0.55528376889E+03  0.61914324910E+03  0.26301604178E+03 0.  0.
         25    1    3    3    0    0  0.60052855164E+02  0.47058636435E+02 -0.95327377850E+02  0.17480182420E+03  0.12509000000E+03 0.  0.
         25    1    4    4    0    0 -0.25194271129E+02 -0.17711497638E+02 -0.18320631976E+03  0.22396542623E+03  0.12509000000E+03 0.  0.
         25    1    4    4    0    0 -0.34858584035E+02 -0.29347138796E+02 -0.37207744913E+03  0.39517782287E+03  0.12509000000E+03 0.  0.
<mgrwt>
<rscale>  2 0.45503177E+03</rscale>
<asrwt>0</asrwt>
<pdfrwt beam="1">  1       21 0.10539260E-01 0.45503177E+03</pdfrwt>
<pdfrwt beam="2">  1       21 0.10621736E+00 0.45503177E+03</pdfrwt>
<totfact> 0.48047101E+04</totfact>
</mgrwt>
</event>
<event>
 7    0  0.4793433E-002  0.4554573E+03  0.7546771E-02  0.1026107E+00
         21   -1    0    0  502  501  0.00000000000E+00  0.00000000000E+00  0.28075484628E+03  0.28075484628E+03  0.00000000000E+00 0. -1.
         21   -1    0    0  501  502 -0.00000000000E+00 -0.00000000000E+00 -0.18471750260E+03  0.18471750260E+03  0.00000000000E+00 0. -1.
      99926    2    1    2    0    0 -0.14210854715E-13  0.00000000000E+00  0.96037343676E+02  0.46547234888E+03  0.45545728251E+03 0.  0.
      99925    2    3    3    0    0  0.92629830078E+02  0.65242746779E+02  0.52135997836E+02  0.29108273424E+03  0.26300968514E+03 0.  0.
         25    1    4    4    0    0  0.50561985555E+02  0.63085512741E+02  0.55769003413E+02  0.15904083168E+03  0.12509000000E+03 0.  0.
         25    1    3    3    0    0 -0.92629830078E+02 -0.65242746779E+02  0.43901345840E+02  0.17438961464E+03  0.12509000000E+03 0.  0.
         25    1    4    4    0    0  0.42067844523E+02  0.21572340376E+01 -0.36330055766E+01  0.13204190256E+03  0.12509000000E+03 0.  0.
<mgrwt>
<rscale>  2 0.45545728E+03</rscale>
<asrwt>0</asrwt>
<pdfrwt beam="1">  1       21 0.41287478E-01 0.45545728E+03</pdfrwt>
<pdfrwt beam="2">  1       21 0.27164339E-01 0.45545728E+03</pdfrwt>
<totfact> 0.67529368E+04</totfact>
</mgrwt>
</event>
<event>
 7    0  0.4793433E-002  0.4544673E+03  0.7546771E-02  0.1026398E+00
         21   -1    0    0  502  501  0.00000000000E+00  0.00000000000E+00  0.12094842648E+03  0.12094842648E+03  0.00000000000E+00 0. -1.
         21   -1    0    0  501  502 -0.00000000000E+00 -0.00000000000E+00 -0.42691862352E+03  0.42691862352E+03  0.00000000000E+00 0. -1.
      99926    2    1    2    0    0  0.17763568394E-14  0.00000000000E+00 -0.30597019704E+03  0.54786705000E+03  0.45446731786E+03 0.  0.
      99925    2    3    3    0    0  0.11242970555E+02 -0.11208985097E+03 -0.19521124729E+03  0.34635875706E+03  0.26299509205E+03 0.  0.
         25    1    3    3    0    0 -0.11242970555E+02  0.11208985097E+03 -0.11075894975E+03  0.20150829295E+03  0.12509000000E+03 0.  0.
         25    1    4    4    0    0 -0.23605582140E+02 -0.38341709082E+02 -0.12026890829E+03  0.17927472930E+03  0.12509000000E+03 0.  0.
         25    1    4    4    0    0  0.34848552695E+02 -0.73748141890E+02 -0.74942339004E+02  0.16708402776E+03  0.12509000000E+03 0.  0.
<mgrwt>
<rscale>  2 0.45446732E+03</rscale>
<asrwt>0</asrwt>
<pdfrwt beam="1">  1       21 0.17786534E-01 0.45446732E+03</pdfrwt>
<pdfrwt beam="2">  1       21 0.62782150E-01 0.45446732E+03</pdfrwt>
<totfact> 0.62269716E+04</totfact>
</mgrwt>
</event>
<event>
 7    0  0.4793433E-002  0.4557437E+03  0.7546771E-02  0.1026023E+00
         21   -1    0    0  502  501  0.00000000000E+00  0.00000000000E+00  0.17322076547E+04  0.17322076547E+04  0.00000000000E+00 0.  1.
         21   -1    0    0  501  502 -0.00000000000E+00 -0.00000000000E+00 -0.29976527199E+02  0.29976527199E+02  0.00000000000E+00 0.  1.
      99926    2    1    2    0    0  0.00000000000E+00  0.00000000000E+00  0.17022311275E+04  0.17621841819E+04  0.45574365547E+03 0.  0.
      99925    2    3    3    0    0  0.62737341198E+02 -0.94141293242E+02  0.11206385035E+04  0.11566298528E+04  0.26298936069E+03 0.  0.
         25    1    4    4    0    0  0.67301749260E+02 -0.32305451383E+02  0.52378083484E+03  0.54366077538E+03  0.12509000000E+03 0.  0.
         25    1    3    3    0    0 -0.62737341198E+02  0.94141293242E+02  0.58159262403E+03  0.60555432911E+03  0.12509000000E+03 0.  0.
         25    1    4    4    0    0 -0.45644080623E+01 -0.61835841859E+02  0.59685766864E+03  0.61296907742E+03  0.12509000000E+03 0.  0.
<mgrwt>
<rscale>  2 0.45574366E+03</rscale>
<asrwt>0</asrwt>
<pdfrwt beam="1">  1       21 0.25473635E+00 0.45574366E+03</pdfrwt>
<pdfrwt beam="2">  1       21 0.44083140E-02 0.45574366E+03</pdfrwt>
<totfact> 0.17893999E+04</totfact>
</mgrwt>
</event>
<event>
 7    0  0.4793433E-002  0.4535079E+03  0.7546771E-02  0.1026681E+00
         21   -1    0    0  502  501  0.00000000000E+00  0.00000000000E+00  0.20561443129E+03  0.20561443129E+03  0.00000000000E+00 0.  1.
         21   -1    0    0  501  502 -0.00000000000E+00 -0.00000000000E+00 -0.25006688772E+03  0.25006688772E+03  0.00000000000E+00 0.  1.
      99926    2    1    2    0    0  0.13322676296E-14  0.00000000000E+00 -0.44452456428E+02  0.45568131902E+03  0.45350793115E+03 0.  0.
      99925    2    3    3    0    0  0.25261381981E+01 -0.76657753044E+02 -0.10969456357E+03  0.29509852691E+03  0.26299705480E+03 0.  0.
         25    1    4    4    0    0  0.30041963666E+02 -0.21128735444E+02 -0.78080291119E+02  0.15196375556E+03  0.12509000000E+03 0.  0.
         25    1    4    4    0    0 -0.27515825468E+02 -0.55529017601E+02 -0.31614272455E+02  0.14313477135E+03  0.12509000000E+03 0.  0.
         25    1    3    3    0    0 -0.25261381981E+01  0.76657753044E+02  0.65242107145E+02  0.16058279211E+03  0.12509000000E+03 0.  0.
<mgrwt>
<rscale>  2 0.45350793E+03</rscale>
<asrwt>0</asrwt>
<pdfrwt beam="1">  1       21 0.30237416E-01 0.45350793E+03</pdfrwt>
<pdfrwt beam="2">  1       21 0.36774542E-01 0.45350793E+03</pdfrwt>
<totfact> 0.69317433E+04</totfact>
</mgrwt>
</event>
<event>
 7    0  0.4793433E-002  0.4487652E+03  0.7546771E-02  0.1028091E+00
         21   -1    0    0  502  501  0.00000000000E+00  0.00000000000E+00  0.63213697357E+03  0.63213697357E+03  0.00000000000E+00 0. -1.
         21   -1    0    0  501  502 -0.00000000000E+00 -0.00000000000E+00 -0.79646586748E+02  0.79646586748E+02  0.00000000000E+00 0. -1.
      99926    2    1    2    0    0  0.00000000000E+00  0.44408920985E-14  0.55249038682E+03  0.71178356032E+03  0.44876520499E+03 0.  0.
      99925    2    3    3    0    0 -0.94225761268E+02 -0.78999338260E+01  0.42927936179E+03  0.51236097426E+03  0.26323391583E+03 0.  0.
         25    1    3    3    0    0  0.94225761268E+02  0.78999338260E+01  0.12321102504E+03  0.19942258606E+03  0.12509000000E+03 0.  0.
         25    1    4    4    0    0 -0.65863381977E+02 -0.32277404881E+02  0.18174639932E+03  0.23250608103E+03  0.12509000000E+03 0.  0.
         25    1    4    4    0    0 -0.28362379292E+02  0.24377471055E+02  0.24753296247E+03  0.27985489323E+03  0.12509000000E+03 0.  0.
<mgrwt>
<rscale>  2 0.44876520E+03</rscale>
<asrwt>0</asrwt>
<pdfrwt beam="1">  1       21 0.92961317E-01 0.44876520E+03</pdfrwt>
<pdfrwt beam="2">  1       21 0.11712734E-01 0.44876520E+03</pdfrwt>
<totfact> 0.54912170E+04</totfact>
</mgrwt>
</event>
<event>
 7    0  0.4793433E-002  0.4529740E+03  0.7546771E-02  0.1026839E+00
         21   -1    0    0  502  501  0.00000000000E+00  0.00000000000E+00  0.88146321743E+02  0.88146321743E+02  0.00000000000E+00 0. -1.
         21   -1    0    0  501  502 -0.00000000000E+00 -0.00000000000E+00 -0.58194569231E+03  0.58194569231E+03  0.00000000000E+00 0. -1.
      99926    2    1    2    0    0  0.00000000000E+00  0.00000000000E+00 -0.49379937057E+03  0.67009201406E+03  0.45297404884E+03 0.  0.
      99925    2    3    3    0    0  0.20332257238E+02  0.61651993110E+02 -0.17756877597E+03  0.32387868964E+03  0.26296837541E+03 0.  0.
         25    1    4    4    0    0  0.38537701392E+02  0.19618220984E+01 -0.91508970249E+02  0.15971976368E+03  0.12509000000E+03 0.  0.
         25    1    3    3    0    0 -0.20332257238E+02 -0.61651993110E+02 -0.31623059460E+03  0.34621332441E+03  0.12509000000E+03 0.  0.
         25    1    4    4    0    0 -0.18205444154E+02  0.59690171012E+02 -0.86059805720E+02  0.16415892596E+03  0.12509000000E+03 0.  0.
<mgrwt>
<rscale>  2 0.45297405E+03</rscale>
<asrwt>0</asrwt>
<pdfrwt beam="1">  1       21 0.12962695E-01 0.45297405E+03</pdfrwt>
<pdfrwt beam="2">  1       21 0.85580247E-01 0.45297405E+03</pdfrwt>
<totfact> 0.55437176E+04</totfact>
</mgrwt>
</event>
<event>
 7    0  0.4793433E-002  0.4542656E+03  0.7546771E-02  0.1026458E+00
         21   -1    0    0  502  501  0.00000000000E+00  0.00000000000E+00  0.30485983588E+03  0.30485983588E+03  0.00000000000E+00 0.  1.
         21   -1    0    0  501  502 -0.00000000000E+00 -0.00000000000E+00 -0.16922304886E+03  0.16922304886E+03  0.00000000000E+00 0.  1.
      99926    2    1    2    0    0  0.00000000000E+00  0.00000000000E+00  0.13563678702E+03  0.47408288474E+03  0.45426560910E+03 0.  0.
      99925    2    3    3    0    0  0.21145057930E+02 -0.96947505533E+02  0.30235918326E+02  0.28276434532E+03  0.26305043608E+03 0.  0.
         25    1    3    3    0    0 -0.21145057930E+02  0.96947505533E+02  0.10540086869E+03  0.19131853942E+03  0.12509000000E+03 0.  0.
         25    1    4    4    0    0  0.26827016179E+02 -0.16686049013E+02 -0.77699756993E+01  0.12925166789E+03  0.12509000000E+03 0.  0.
         25    1    4    4    0    0 -0.56819582485E+01 -0.80261456521E+02  0.38005894026E+02  0.15351267743E+03  0.12509000000E+03 0.  0.
<mgrwt>
<rscale>  2 0.45426561E+03</rscale>
<asrwt>0</asrwt>
<pdfrwt beam="1">  1       21 0.44832329E-01 0.45426561E+03</pdfrwt>
<pdfrwt beam="2">  1       21 0.24885742E-01 0.45426561E+03</pdfrwt>
<totfact> 0.67526096E+04</totfact>
</mgrwt>
</event>
<event>
 7    0  0.4793433E-002  0.4545470E+03  0.7546771E-02  0.1026375E+00
         21   -1    0    0  502  501  0.00000000000E+00  0.00000000000E+00  0.29638922285E+03  0.29638922285E+03  0.00000000000E+00 0. -1.
         21   -1    0    0  501  502 -0.00000000000E+00 -0.00000000000E+00 -0.17427503391E+03  0.17427503391E+03  0.00000000000E+00 0. -1.
      99926    2    1    2    0    0  0.00000000000E+00  0.00000000000E+00  0.12211418895E+03  0.47066425676E+03  0.45454699146E+03 0.  0.
      99925    2    3    3    0    0  0.61476207492E+02  0.60590227812E+02  0.19875104579E+01  0.27694170572E+03  0.26313923763E+03 0.  0.
         25    1    3    3    0    0 -0.61476207492E+02 -0.60590227812E+02  0.12012667849E+03  0.19372255103E+03  0.12509000000E+03 0.  0.
         25    1    4    4    0    0  0.31716166581E+02 -0.19668290869E+01 -0.24903102964E+02  0.13144373806E+03  0.12509000000E+03 0.  0.
         25    1    4    4    0    0  0.29760040911E+02  0.62557056899E+02  0.26890613422E+02  0.14549796766E+03  0.12509000000E+03 0.  0.
<mgrwt>
<rscale>  2 0.45454699E+03</rscale>
<asrwt>0</asrwt>
<pdfrwt beam="1">  1       21 0.43586651E-01 0.45454699E+03</pdfrwt>
<pdfrwt beam="2">  1       21 0.25628681E-01 0.45454699E+03</pdfrwt>
<totfact> 0.67629064E+04</totfact>
</mgrwt>
</event>
<event>
 7    0  0.4793433E-002  0.4530098E+03  0.7546771E-02  0.1026828E+00
         21   -1    0    0  502  501  0.00000000000E+00  0.00000000000E+00  0.68495326405E+03  0.68495326405E+03  0.00000000000E+00 0. -1.
         21   -1    0    0  501  502 -0.00000000000E+00 -0.00000000000E+00 -0.74902147906E+02  0.74902147906E+02  0.00000000000E+00 0. -1.
      99926    2    1    2    0    0  0.00000000000E+00 -0.71054273576E-14  0.61005111615E+03  0.75985541196E+03  0.45300980428E+03 0.  0.
      99925    2    3    3    0    0  0.35398643401E+02  0.41670622462E+02  0.54711910059E+03  0.60953092489E+03  0.26305728165E+03 0.  0.
         25    1    3    3    0    0 -0.35398643401E+02 -0.41670622462E+02  0.62932015554E+02  0.15032448707E+03  0.12509000000E+03 0.  0.
         25    1    4    4    0    0  0.14169617191E+02  0.59637902158E+02  0.25572537953E+03  0.29120514292E+03  0.12509000000E+03 0.  0.
         25    1    4    4    0    0  0.21229026210E+02 -0.17967279696E+02  0.29139372106E+03  0.31832578197E+03  0.12509000000E+03 0.  0.
<mgrwt>
<rscale>  2 0.45300980E+03</rscale>
<asrwt>0</asrwt>
<pdfrwt beam="1">  1       21 0.10072842E+00 0.45300980E+03</pdfrwt>
<pdfrwt beam="2">  1       21 0.11015022E-01 0.45300980E+03</pdfrwt>
<totfact> 0.50552692E+04</totfact>
</mgrwt>
</event>
<event>
 7    0  0.4793433E-002  0.4497609E+03  0.7546771E-02  0.1027793E+00
         21   -1    0    0  502  501  0.00000000000E+00  0.00000000000E+00  0.20350278781E+03  0.20350278781E+03  0.00000000000E+00 0.  1.
         21   -1    0    0  501  502 -0.00000000000E+00 -0.00000000000E+00 -0.24850382940E+03  0.24850382940E+03  0.00000000000E+00 0.  1.
      99926    2    1    2    0    0  0.00000000000E+00  0.00000000000E+00 -0.45001041584E+02  0.45200661721E+03  0.44976092345E+03 0.  0.
      99925    2    3    3    0    0  0.49765007679E+02  0.94809510811E+02 -0.44065467253E+02  0.28734398414E+03  0.26298174935E+03 0.  0.
         25    1    4    4    0    0  0.59204359467E+02  0.41469619194E+02 -0.44015749670E+02  0.15102906944E+03  0.12509000000E+03 0.  0.
         25    1    3    3    0    0 -0.49765007679E+02 -0.94809510811E+02 -0.93557433088E+00  0.16466263307E+03  0.12509000000E+03 0.  0.
         25    1    4    4    0    0 -0.94393517874E+01  0.53339891617E+02 -0.49717582424E-01  0.13631491471E+03  0.12509000000E+03 0.  0.
<mgrwt>
<rscale>  2 0.44976092E+03</rscale>
<asrwt>0</asrwt>
<pdfrwt beam="1">  1       21 0.29926881E-01 0.44976092E+03</pdfrwt>
<pdfrwt beam="2">  1       21 0.36544681E-01 0.44976092E+03</pdfrwt>
<totfact> 0.71716861E+04</totfact>
</mgrwt>
</event>
<event>
 7    0  0.4793433E-002  0.4551570E+03  0.7546771E-02  0.1026195E+00
         21   -1    0    0  502  501  0.00000000000E+00  0.00000000000E+00  0.42705982510E+02  0.42705982510E+02  0.00000000000E+00 0.  1.
         21   -1    0    0  501  502 -0.00000000000E+00 -0.00000000000E+00 -0.12127566538E+04  0.12127566538E+04  0.00000000000E+00 0.  1.
      99926    2    1    2    0    0 -0.17763568394E-14  0.88817841970E-15 -0.11700506713E+04  0.12554626364E+04  0.45515695951E+03 0.  0.
      99925    2    3    3    0    0  0.61361268781E+01  0.66200259709E+01 -0.42074133684E+03  0.49573014155E+03  0.26199928229E+03 0.  0.
         25    1    3    3    0    0 -0.61361268781E+01 -0.66200259709E+01 -0.74930933450E+03  0.75973249481E+03  0.12509000000E+03 0.  0.
         25    1    4    4    0    0 -0.15713424817E+02  0.30257556955E+02 -0.25017605184E+03  0.28177650095E+03  0.12509000000E+03 0.  0.
         25    1    4    4    0    0  0.21849551695E+02 -0.23637530985E+02 -0.17056528500E+03  0.21395364060E+03  0.12509000000E+03 0.  0.
<mgrwt>
<rscale>  2 0.45515696E+03</rscale>
<asrwt>0</asrwt>
<pdfrwt beam="1">  1       21 0.62802922E-02 0.45515696E+03</pdfrwt>
<pdfrwt beam="2">  1       21 0.17834655E+00 0.45515696E+03</pdfrwt>
<totfact> 0.30398909E+04</totfact>
</mgrwt>
</event>
<event>
 7    0  0.4793433E-002  0.4470804E+03  0.7546771E-02  0.1028596E+00
         21   -1    0    0  502  501  0.00000000000E+00  0.00000000000E+00  0.11533312715E+03  0.11533312715E+03  0.00000000000E+00 0.  1.
         21   -1    0    0  501  502 -0.00000000000E+00 -0.00000000000E+00 -0.43326855738E+03  0.43326855738E+03  0.00000000000E+00 0.  1.
      99926    2    1    2    0    0 -0.14210854715E-13  0.00000000000E+00 -0.31793543023E+03  0.54860168453E+03  0.44708038480E+03 0.  0.
      99925    2    3    3    0    0 -0.89362043741E+02  0.56426473621E+02 -0.18908047777E+03  0.34022551348E+03  0.26235939313E+03 0.  0.
         25    1    4    4    0    0 -0.55713603636E+02  0.95206405287E+01 -0.13408170837E+03  0.19188554100E+03  0.12509000000E+03 0.  0.
         25    1    4    4    0    0 -0.33648440105E+02  0.46905833092E+02 -0.54998769398E+02  0.14833997248E+03  0.12509000000E+03 0.  0.
         25    1    3    3    0    0  0.89362043741E+02 -0.56426473621E+02 -0.12885495246E+03  0.20837617105E+03  0.12509000000E+03 0.  0.
<mgrwt>
<rscale>  2 0.44708038E+03</rscale>
<asrwt>0</asrwt>
<pdfrwt beam="1">  1       21 0.16960754E-01 0.44708038E+03</pdfrwt>
<pdfrwt beam="2">  1       21 0.63715964E-01 0.44708038E+03</pdfrwt>
<totfact> 0.65998303E+04</totfact>
</mgrwt>
</event>
<event>
 7    0  0.4793433E-002  0.4620588E+03  0.7546771E-02  0.1024186E+00
         21   -1    0    0  502  501  0.00000000000E+00  0.00000000000E+00  0.10194408206E+03  0.10194408206E+03  0.00000000000E+00 0. -1.
         21   -1    0    0  501  502 -0.00000000000E+00 -0.00000000000E+00 -0.52356731490E+03  0.52356731490E+03  0.00000000000E+00 0. -1.
      99926    2    1    2    0    0 -0.71054273576E-14 -0.71054273576E-14 -0.42162323284E+03  0.62551139696E+03  0.46205882445E+03 0.  0.
      99925    2    3    3    0    0  0.49492535294E+02 -0.58847713776E+02 -0.38783086108E+03  0.47483957824E+03  0.26295871119E+03 0.  0.
         25    1    3    3    0    0 -0.49492535294E+02  0.58847713776E+02 -0.33792371765E+02  0.15067181872E+03  0.12509000000E+03 0.  0.
         25    1    4    4    0    0  0.32905884524E+02 -0.41554888447E+02 -0.26551070387E+03  0.29824997563E+03  0.12509000000E+03 0.  0.
         25    1    4    4    0    0  0.16586650770E+02 -0.17292825329E+02 -0.12232015721E+03  0.17658960261E+03  0.12509000000E+03 0.  0.
<mgrwt>
<rscale>  2 0.46205882E+03</rscale>
<asrwt>0</asrwt>
<pdfrwt beam="1">  1       21 0.14991777E-01 0.46205882E+03</pdfrwt>
<pdfrwt beam="2">  1       21 0.76995191E-01 0.46205882E+03</pdfrwt>
<totfact> 0.54058378E+04</totfact>
</mgrwt>
</event>
<event>
 7    0  0.4793433E-002  0.4593855E+03  0.7546771E-02  0.1024960E+00
         21   -1    0    0  502  501  0.00000000000E+00  0.00000000000E+00  0.72275319063E+02  0.72275319063E+02  0.00000000000E+00 0.  1.
         21   -1    0    0  501  502 -0.00000000000E+00 -0.00000000000E+00 -0.72996914636E+03  0.72996914636E+03  0.00000000000E+00 0.  1.
      99926    2    1    2    0    0  0.00000000000E+00 -0.35527136788E-14 -0.65769382729E+03  0.80224446542E+03  0.45938547195E+03 0.  0.
      99925    2    3    3    0    0 -0.11004039929E+03 -0.23434754166E+02 -0.35462813412E+03  0.45561151883E+03  0.26298795677E+03 0.  0.
         25    1    4    4    0    0 -0.63805672047E+02  0.58965915190E+01 -0.23624230656E+03  0.27488883041E+03  0.12509000000E+03 0.  0.
         25    1    3    3    0    0  0.11004039929E+03  0.23434754166E+02 -0.30306569318E+03  0.34663294659E+03  0.12509000000E+03 0.  0.
         25    1    4    4    0    0 -0.46234727248E+02 -0.29331345685E+02 -0.11838582756E+03  0.18072268842E+03  0.12509000000E+03 0.  0.
<mgrwt>
<rscale>  2 0.45938547E+03</rscale>
<asrwt>0</asrwt>
<pdfrwt beam="1">  1       21 0.10628722E-01 0.45938547E+03</pdfrwt>
<pdfrwt beam="2">  1       21 0.10734841E+00 0.45938547E+03</pdfrwt>
<totfact> 0.46050986E+04</totfact>
</mgrwt>
</event>
<event>
 7    0  0.4793433E-002  0.4506877E+03  0.7546771E-02  0.1027517E+00
         21   -1    0    0  502  501  0.00000000000E+00  0.00000000000E+00  0.85064590324E+02  0.85064590324E+02  0.00000000000E+00 0.  1.
         21   -1    0    0  501  502 -0.00000000000E+00 -0.00000000000E+00 -0.59695640325E+03  0.59695640325E+03  0.00000000000E+00 0.  1.
      99926    2    1    2    0    0  0.00000000000E+00  0.00000000000E+00 -0.51189181292E+03  0.68202099357E+03  0.45068770511E+03 0.  0.
      99925    2    3    3    0    0  0.79431394275E+02  0.41137791577E+02 -0.41790680638E+03  0.50179237806E+03  0.26295974516E+03 0.  0.
         25    1    4    4    0    0  0.41906488323E+02 -0.14768422284E+02 -0.16556847436E+03  0.21221377868E+03  0.12509000000E+03 0.  0.
         25    1    4    4    0    0  0.37524905953E+02  0.55906213860E+02 -0.25233833201E+03  0.28957859938E+03  0.12509000000E+03 0.  0.
         25    1    3    3    0    0 -0.79431394275E+02 -0.41137791577E+02 -0.93985006547E+02  0.18022861551E+03  0.12509000000E+03 0.  0.
<mgrwt>
<rscale>  2 0.45068771E+03</rscale>
<asrwt>0</asrwt>
<pdfrwt beam="1">  1       21 0.12509499E-01 0.45068771E+03</pdfrwt>
<pdfrwt beam="2">  1       21 0.87787707E-01 0.45068771E+03</pdfrwt>
<totfact> 0.55759593E+04</totfact>
</mgrwt>
</event>
<event>
 7    0  0.4793433E-002  0.4054748E+03  0.7546771E-02  0.1041900E+00
         21   -1    0    0  502  501  0.00000000000E+00  0.00000000000E+00  0.49061987719E+02  0.49061987719E+02  0.00000000000E+00 0.  1.
         21   -1    0    0  501  502 -0.00000000000E+00 -0.00000000000E+00 -0.83776588636E+03  0.83776588636E+03  0.00000000000E+00 0.  1.
      99926    2    1    2    0    0  0.00000000000E+00 -0.13322676296E-14 -0.78870389864E+03  0.88682787408E+03  0.40547483092E+03 0.  0.
      99925    2    3    3    0    0  0.37962955550E+02 -0.10773550604E+01 -0.43523297402E+03  0.50995714114E+03  0.26303269273E+03 0.  0.
         25    1    3    3    0    0 -0.37962955550E+02  0.10773550604E+01 -0.35347092462E+03  0.37687073293E+03  0.12509000000E+03 0.  0.
         25    1    4    4    0    0  0.25085853889E+02  0.39342990058E+02 -0.20983387774E+03  0.24870652440E+03  0.12509000000E+03 0.  0.
         25    1    4    4    0    0  0.12877101661E+02 -0.40420345118E+02 -0.22539909628E+03  0.26125061675E+03  0.12509000000E+03 0.  0.
<mgrwt>
<rscale>  2 0.40547483E+03</rscale>
<asrwt>0</asrwt>
<pdfrwt beam="1">  1       21 0.72149994E-02 0.40547483E+03</pdfrwt>
<pdfrwt beam="2">  1       21 0.12320084E+00 0.40547483E+03</pdfrwt>
<totfact> 0.65869159E+04</totfact>
</mgrwt>
</event>
<event>
 6    0  0.4793433E-002  0.4541932E+03  0.7546771E-02  0.1026479E+00
         21   -1    0    0  502  501  0.00000000000E+00  0.00000000000E+00  0.86107525492E+02  0.86107525492E+02  0.00000000000E+00 0. -1.
         21   -1    0    0  501  502 -0.00000000000E+00 -0.00000000000E+00 -0.59893572292E+03  0.59893572292E+03  0.00000000000E+00 0. -1.
      99926    2    1    2    0    0  0.00000000000E+00  0.00000000000E+00 -0.51282819742E+03  0.68504324841E+03  0.45419323213E+03 0.  0.
         25    1    3    3    0    0 -0.43306093668E+02 -0.86606873972E+02 -0.28209550567E+03  0.32342163006E+03  0.12509000000E+03 0.  0.
         25    1    3    3    0    0  0.50054083899E+02  0.27698647853E+02 -0.13901029719E+03  0.19556072518E+03  0.12509000000E+03 0.  0.
         25    1    3    3    0    0 -0.67479902310E+01  0.58908226119E+02 -0.91722394560E+02  0.16606089317E+03  0.12509000000E+03 0.  0.
<mgrwt>
<rscale>  2 0.45419323E+03</rscale>
<asrwt>0</asrwt>
<pdfrwt beam="1">  1       21 0.12662871E-01 0.45419323E+03</pdfrwt>
<pdfrwt beam="2">  1       21 0.88078783E-01 0.45419323E+03</pdfrwt>
<totfact> 0.54065379E+04</totfact>
</mgrwt>
</event>
<event>
 7    0  0.4793433E-002  0.4469413E+03  0.7546771E-02  0.1028638E+00
         21   -1    0    0  502  501  0.00000000000E+00  0.00000000000E+00  0.93379651651E+03  0.93379651651E+03  0.00000000000E+00 0.  1.
         21   -1    0    0  501  502 -0.00000000000E+00 -0.00000000000E+00 -0.53479679131E+02  0.53479679131E+02  0.00000000000E+00 0.  1.
      99926    2    1    2    0    0  0.00000000000E+00  0.00000000000E+00  0.88031683737E+03  0.98727619564E+03  0.44694132983E+03 0.  0.
      99925    2    3    3    0    0 -0.68061066235E+02 -0.77601503083E+02  0.60605982187E+03  0.66865617010E+03  0.26294156026E+03 0.  0.
         25    1    4    4    0    0 -0.47628407744E+02 -0.80628897781E+00  0.30597954915E+03  0.33397620862E+03  0.12509000000E+03 0.  0.
         25    1    4    4    0    0 -0.20432658491E+02 -0.76795214105E+02  0.30008027271E+03  0.33467996148E+03  0.12509000000E+03 0.  0.
         25    1    3    3    0    0  0.68061066235E+02  0.77601503083E+02  0.27425701551E+03  0.31862002554E+03  0.12509000000E+03 0.  0.
<mgrwt>
<rscale>  2 0.44694133E+03</rscale>
<asrwt>0</asrwt>
<pdfrwt beam="1">  1       21 0.13732301E+00 0.44694133E+03</pdfrwt>
<pdfrwt beam="2">  1       21 0.78646593E-02 0.44694133E+03</pdfrwt>
<totfact> 0.42263617E+04</totfact>
</mgrwt>
</event>
<event>
 7    0  0.4793433E-002  0.4468413E+03  0.7546771E-02  0.1028668E+00
         21   -1    0    0  502  501  0.00000000000E+00  0.00000000000E+00  0.35421861796E+03  0.35421861796E+03  0.00000000000E+00 0.  1.
         21   -1    0    0  501  502 -0.00000000000E+00 -0.00000000000E+00 -0.14092087433E+03  0.14092087433E+03  0.00000000000E+00 0.  1.
      99926    2    1    2    0    0  0.14210854715E-13 -0.44408920985E-15  0.21329774363E+03  0.49513949228E+03  0.44684134699E+03 0.  0.
      99925    2    3    3    0    0  0.68416384281E+02 -0.17535941032E+01  0.45959273403E+02  0.27529057041E+03  0.26265712748E+03 0.  0.
         25    1    4    4    0    0  0.39678991012E+02  0.17325198818E+02  0.58908553833E+02  0.14488723428E+03  0.12509000000E+03 0.  0.
         25    1    4    4    0    0  0.28737393269E+02 -0.19078792921E+02 -0.12949280430E+02  0.13040333613E+03  0.12509000000E+03 0.  0.
         25    1    3    3    0    0 -0.68416384281E+02  0.17535941032E+01  0.16733847023E+03  0.21984892187E+03  0.12509000000E+03 0.  0.
<mgrwt>
<rscale>  2 0.44684135E+03</rscale>
<asrwt>0</asrwt>
<pdfrwt beam="1">  1       21 0.52090973E-01 0.44684135E+03</pdfrwt>
<pdfrwt beam="2">  1       21 0.20723658E-01 0.44684135E+03</pdfrwt>
<totfact> 0.70040873E+04</totfact>
</mgrwt>
</event>
<event>
 7    0  0.4793433E-002  0.4610145E+03  0.7546771E-02  0.1024487E+00
         21   -1    0    0  502  501  0.00000000000E+00  0.00000000000E+00  0.55704904285E+03  0.55704904285E+03  0.00000000000E+00 0. -1.
         21   -1    0    0  501  502 -0.00000000000E+00 -0.00000000000E+00 -0.95384047961E+02  0.95384047961E+02  0.00000000000E+00 0. -1.
      99926    2    1    2    0    0  0.00000000000E+00  0.00000000000E+00  0.46166499489E+03  0.65243309081E+03  0.46101450137E+03 0.  0.
      99925    2    3    3    0    0 -0.53925429070E+02 -0.10060154438E+03  0.24330754562E+03  0.37610700376E+03  0.26311460220E+03 0.  0.
         25    1    4    4    0    0 -0.47762900455E+01 -0.66138926944E+02  0.16257413735E+03  0.21558067826E+03  0.12509000000E+03 0.  0.
         25    1    4    4    0    0 -0.49149139025E+02 -0.34462617438E+02  0.80733408266E+02  0.16052632550E+03  0.12509000000E+03 0.  0.
         25    1    3    3    0    0  0.53925429070E+02  0.10060154438E+03  0.21835744927E+03  0.27632608705E+03  0.12509000000E+03 0.  0.
<mgrwt>
<rscale>  2 0.46101450E+03</rscale>
<asrwt>0</asrwt>
<pdfrwt beam="1">  1       21 0.81918975E-01 0.46101450E+03</pdfrwt>
<pdfrwt beam="2">  1       21 0.14027066E-01 0.46101450E+03</pdfrwt>
<totfact> 0.53001656E+04</totfact>
</mgrwt>
</event>
<event>
 7    0  0.4793433E-002  0.4349597E+03  0.7546771E-02  0.1032305E+00
         21   -1    0    0  502  501  0.00000000000E+00  0.00000000000E+00  0.26269968438E+02  0.26269968438E+02  0.00000000000E+00 0.  1.
         21   -1    0    0  501  502 -0.00000000000E+00 -0.00000000000E+00 -0.18004392980E+04  0.18004392980E+04  0.00000000000E+00 0.  1.
      99926    2    1    2    0    0 -0.14210854715E-13  0.00000000000E+00 -0.17741693296E+04  0.18267092665E+04  0.43495969254E+03 0.  0.
      99925    2    3    3    0    0  0.64329621337E+02 -0.52388127660E+02 -0.13152388679E+04  0.13438557764E+04  0.26308221534E+03 0.  0.
         25    1    4    4    0    0 -0.58119581518E-01 -0.50907130999E+02 -0.62564310810E+03  0.64005339322E+03  0.12509000000E+03 0.  0.
         25    1    4    4    0    0  0.64387740919E+02 -0.14809966612E+01 -0.68959575980E+03  0.70380238317E+03  0.12509000000E+03 0.  0.
         25    1    3    3    0    0 -0.64329621337E+02  0.52388127660E+02 -0.45893046169E+03  0.48285349006E+03  0.12509000000E+03 0.  0.
<mgrwt>
<rscale>  2 0.43495969E+03</rscale>
<asrwt>0</asrwt>
<pdfrwt beam="1">  1       21 0.38632299E-02 0.43495969E+03</pdfrwt>
<pdfrwt beam="2">  1       21 0.26477054E+00 0.43495969E+03</pdfrwt>
<totfact> 0.19632312E+04</totfact>
</mgrwt>
</event>
<event>
 6    0  0.4793433E-002  0.4538793E+03  0.7546771E-02  0.1026571E+00
         21   -1    0    0  502  501  0.00000000000E+00  0.00000000000E+00  0.43982879378E+03  0.43982879378E+03  0.00000000000E+00 0.  1.
         21   -1    0    0  501  502 -0.00000000000E+00 -0.00000000000E+00 -0.11709467841E+03  0.11709467841E+03  0.00000000000E+00 0.  1.
      99926    2    1    2    0    0 -0.14210854715E-13  0.00000000000E+00  0.32273411537E+03  0.55692347218E+03  0.45387932829E+03 0.  0.
         25    1    3    3    0    0  0.71958518979E+02  0.48272837860E+02  0.65394569933E+02  0.16562684929E+03  0.12509000000E+03 0.  0.
         25    1    3    3    0    0  0.22456240416E+02 -0.99478822374E+01  0.75328155661E+02  0.14807120662E+03  0.12509000000E+03 0.  0.
         25    1    3    3    0    0 -0.94414759395E+02 -0.38324955622E+02  0.18201138977E+03  0.24322541628E+03  0.12509000000E+03 0.  0.
<mgrwt>
<rscale>  2 0.45387933E+03</rscale>
<asrwt>0</asrwt>
<pdfrwt beam="1">  1       21 0.64680704E-01 0.45387933E+03</pdfrwt>
<pdfrwt beam="2">  1       21 0.17219806E-01 0.45387933E+03</pdfrwt>
<totfact> 0.61958753E+04</totfact>
</mgrwt>
</event>
<event>
 7    0  0.4793433E-002  0.4774153E+03  0.7546771E-02  0.1019848E+00
         21   -1    0    0  502  501  0.00000000000E+00  0.00000000000E+00  0.33508773335E+03  0.33508773335E+03  0.00000000000E+00 0. -1.
         21   -1    0    0  501  502 -0.00000000000E+00 -0.00000000000E+00 -0.17004899203E+03  0.17004899203E+03  0.00000000000E+00 0. -1.
      99926    2    1    2    0    0  0.00000000000E+00  0.00000000000E+00  0.16503874132E+03  0.50513672538E+03  0.47741525445E+03 0.  0.
      99925    2    3    3    0    0 -0.81995195938E+02  0.67024294224E+02  0.16220519367E+02  0.28375506521E+03  0.26275152447E+03 0.  0.
         25    1    4    4    0    0 -0.21823820355E+02  0.17219023301E+02  0.40296792383E+02  0.13432837926E+03  0.12509000000E+03 0.  0.
         25    1    4    4    0    0 -0.60171375583E+02  0.49805270922E+02 -0.24076273015E+02  0.14942668595E+03  0.12509000000E+03 0.  0.
         25    1    3    3    0    0  0.81995195938E+02 -0.67024294224E+02  0.14881822195E+03  0.22138166017E+03  0.12509000000E+03 0.  0.
<mgrwt>
<rscale>  2 0.47741525E+03</rscale>
<asrwt>0</asrwt>
<pdfrwt beam="1">  1       21 0.49277608E-01 0.47741525E+03</pdfrwt>
<pdfrwt beam="2">  1       21 0.25007205E-01 0.47741525E+03</pdfrwt>
<totfact> 0.54540786E+04</totfact>
</mgrwt>
</event>
<event>
 7    0  0.4793433E-002  0.4559839E+03  0.7546771E-02  0.1025952E+00
         21   -1    0    0  502  501  0.00000000000E+00  0.00000000000E+00  0.81446237891E+02  0.81446237891E+02  0.00000000000E+00 0.  1.
         21   -1    0    0  501  502 -0.00000000000E+00 -0.00000000000E+00 -0.63821657950E+03  0.63821657950E+03  0.00000000000E+00 0.  1.
      99926    2    1    2    0    0  0.14210854715E-13  0.00000000000E+00 -0.55677034161E+03  0.71966281739E+03  0.45598394428E+03 0.  0.
      99925    2    3    3    0    0 -0.93257977239E+02  0.29755815357E+02 -0.44239710586E+03  0.52393033664E+03  0.26306907745E+03 0.  0.
         25    1    4    4    0    0 -0.78421153353E+02  0.36130917978E+02 -0.20619696477E+03  0.25616404296E+03  0.12509000000E+03 0.  0.
         25    1    4    4    0    0 -0.14836823885E+02 -0.63751026209E+01 -0.23620014109E+03  0.26776629367E+03  0.12509000000E+03 0.  0.
         25    1    3    3    0    0  0.93257977239E+02 -0.29755815357E+02 -0.11437323575E+03  0.19573248075E+03  0.12509000000E+03 0.  0.
<mgrwt>
<rscale>  2 0.45598394E+03</rscale>
<asrwt>0</asrwt>
<pdfrwt beam="1">  1       21 0.11977388E-01 0.45598394E+03</pdfrwt>
<pdfrwt beam="2">  1       21 0.93855377E-01 0.45598394E+03</pdfrwt>
<totfact> 0.51449061E+04</totfact>
</mgrwt>
</event>
<event>
 6    0  0.4793433E-002  0.4552496E+03  0.7546771E-02  0.1026168E+00
         21   -1    0    0  502  501  0.00000000000E+00  0.00000000000E+00  0.34005808998E+03  0.34005808998E+03  0.00000000000E+00 0.  1.
         21   -1    0    0  501  502 -0.00000000000E+00 -0.00000000000E+00 -0.15236529921E+03  0.15236529921E+03  0.00000000000E+00 0.  1.
      99926    2    1    2    0    0  0.24424906542E-14  0.00000000000E+00  0.18769279076E+03  0.49242338919E+03  0.45524961342E+03 0.  0.
         25    1    3    3    0    0  0.37241511420E+02  0.35412074202E+02  0.86742478863E+02  0.16066334651E+03  0.12509000000E+03 0.  0.
         25    1    3    3    0    0 -0.38003998423E+02  0.10575139817E+02  0.14102090543E+03  0.19258904784E+03  0.12509000000E+03 0.  0.
         25    1    3    3    0    0  0.76248700314E+00 -0.45987214020E+02 -0.40070593530E+02  0.13917099484E+03  0.12509000000E+03 0.  0.
<mgrwt>
<rscale>  2 0.45524961E+03</rscale>
<asrwt>0</asrwt>
<pdfrwt beam="1">  1       21 0.50008543E-01 0.45524961E+03</pdfrwt>
<pdfrwt beam="2">  1       21 0.22406662E-01 0.45524961E+03</pdfrwt>
<totfact> 0.65676042E+04</totfact>
</mgrwt>
</event>
<event>
 7    0  0.4793433E-002  0.4600775E+03  0.7546771E-02  0.1024759E+00
         21   -1    0    0  502  501  0.00000000000E+00  0.00000000000E+00  0.14263278958E+03  0.14263278958E+03  0.00000000000E+00 0. -1.
         21   -1    0    0  501  502 -0.00000000000E+00 -0.00000000000E+00 -0.37100747794E+03  0.37100747794E+03  0.00000000000E+00 0. -1.
      99926    2    1    2    0    0  0.71054273576E-14  0.00000000000E+00 -0.22837468835E+03  0.51364026752E+03  0.46007752188E+03 0.  0.
      99925    2    3    3    0    0  0.51853152344E+02  0.30028027960E+02 -0.29709053683E+02  0.27134710961E+03  0.26297565316E+03 0.  0.
         25    1    3    3    0    0 -0.51853152344E+02 -0.30028027960E+02 -0.19866563467E+03  0.24229315791E+03  0.12509000000E+03 0.  0.
         25    1    4    4    0    0 -0.74953046230E+01  0.13997304371E+02  0.98053650766E+01  0.12647433497E+03  0.12509000000E+03 0.  0.
         25    1    4    4    0    0  0.59348456967E+02  0.16030723590E+02 -0.39514418760E+02  0.14487277464E+03  0.12509000000E+03 0.  0.
<mgrwt>
<rscale>  2 0.46007752E+03</rscale>
<asrwt>0</asrwt>
<pdfrwt beam="1">  1       21 0.20975410E-01 0.46007752E+03</pdfrwt>
<pdfrwt beam="2">  1       21 0.54559923E-01 0.46007752E+03</pdfrwt>
<totfact> 0.61794761E+04</totfact>
</mgrwt>
</event>
<event>
 7    0  0.4793433E-002  0.4611709E+03  0.7546771E-02  0.1024442E+00
         21   -1    0    0  502  501  0.00000000000E+00  0.00000000000E+00  0.36375124357E+03  0.36375124357E+03  0.00000000000E+00 0. -1.
         21   -1    0    0  501  502 -0.00000000000E+00 -0.00000000000E+00 -0.14617034603E+03  0.14617034603E+03  0.00000000000E+00 0. -1.
      99926    2    1    2    0    0  0.00000000000E+00  0.00000000000E+00  0.21758089755E+03  0.50992158960E+03  0.46117088001E+03 0.  0.
      99925    2    3    3    0    0 -0.18558799124E+02  0.11640698670E+03  0.15324880778E+03  0.32639736381E+03  0.26297343296E+03 0.  0.
         25    1    4    4    0    0  0.26609986779E+02  0.77789621462E+02  0.80704450406E+02  0.17005891044E+03  0.12509000000E+03 0.  0.
         25    1    3    3    0    0  0.18558799124E+02 -0.11640698670E+03  0.64332089766E+02  0.18352422579E+03  0.12509000000E+03 0.  0.
         25    1    4    4    0    0 -0.45168785903E+02  0.38617365239E+02  0.72544357373E+02  0.15633845338E+03  0.12509000000E+03 0.  0.
<mgrwt>
<rscale>  2 0.46117088E+03</rscale>
<asrwt>0</asrwt>
<pdfrwt beam="1">  1       21 0.53492830E-01 0.46117088E+03</pdfrwt>
<pdfrwt beam="2">  1       21 0.21495639E-01 0.46117088E+03</pdfrwt>
<totfact> 0.61510751E+04</totfact>
</mgrwt>
</event>
<event>
 7    0  0.4793433E-002  0.4543301E+03  0.7546771E-02  0.1026439E+00
         21   -1    0    0  502  501  0.00000000000E+00  0.00000000000E+00  0.40234421307E+02  0.40234421307E+02  0.00000000000E+00 0. -1.
         21   -1    0    0  501  502 -0.00000000000E+00 -0.00000000000E+00 -0.12825822484E+04  0.12825822484E+04  0.00000000000E+00 0. -1.
      99926    2    1    2    0    0 -0.14210854715E-13  0.00000000000E+00 -0.12423478271E+04  0.13228166698E+04  0.45433007624E+03 0.  0.
      99925    2    3    3    0    0  0.93314048440E+02 -0.50416148887E+02 -0.89152223378E+03  0.93555008875E+03  0.26304519675E+03 0.  0.
         25    1    3    3    0    0 -0.93314048440E+02  0.50416148887E+02 -0.35082559336E+03  0.38726658100E+03  0.12509000000E+03 0.  0.
         25    1    4    4    0    0  0.70012746239E+02 -0.26215311100E+02 -0.35784199311E+03  0.38637731210E+03  0.12509000000E+03 0.  0.
         25    1    4    4    0    0  0.23301302201E+02 -0.24200837787E+02 -0.53368024067E+03  0.54917277666E+03  0.12509000000E+03 0.  0.
<mgrwt>
<rscale>  2 0.45433008E+03</rscale>
<asrwt>0</asrwt>
<pdfrwt beam="1">  1       21 0.59168268E-02 0.45433008E+03</pdfrwt>
<pdfrwt beam="2">  1       21 0.18861503E+00 0.45433008E+03</pdfrwt>
<totfact> 0.28607943E+04</totfact>
</mgrwt>
</event>
<event>
 7    0  0.4793433E-002  0.4547379E+03  0.7546771E-02  0.1026318E+00
         21   -1    0    0  502  501  0.00000000000E+00  0.00000000000E+00  0.13620747807E+03  0.13620747807E+03  0.00000000000E+00 0. -1.
         21   -1    0    0  501  502 -0.00000000000E+00 -0.00000000000E+00 -0.37954339021E+03  0.37954339021E+03  0.00000000000E+00 0. -1.
      99926    2    1    2    0    0  0.00000000000E+00  0.00000000000E+00 -0.24333591213E+03  0.51575086828E+03  0.45473793771E+03 0.  0.
      99925    2    3    3    0    0  0.98796937980E+02 -0.50984650296E+02 -0.13123154492E+03  0.31431808354E+03  0.26308528985E+03 0.  0.
         25    1    3    3    0    0 -0.98796937980E+02  0.50984650296E+02 -0.11210436721E+03  0.20143278474E+03  0.12509000000E+03 0.  0.
         25    1    4    4    0    0  0.77505887238E+02 -0.30043084703E+02 -0.36425752629E+02  0.15454479302E+03  0.12509000000E+03 0.  0.
         25    1    4    4    0    0  0.21291050742E+02 -0.20941565593E+02 -0.94805792292E+02  0.15977329052E+03  0.12509000000E+03 0.  0.
<mgrwt>
<rscale>  2 0.45473794E+03</rscale>
<asrwt>0</asrwt>
<pdfrwt beam="1">  1       21 0.20030512E-01 0.45473794E+03</pdfrwt>
<pdfrwt beam="2">  1       21 0.55815204E-01 0.45473794E+03</pdfrwt>
<totfact> 0.64311319E+04</totfact>
</mgrwt>
</event>
<event>
 7    0  0.4793433E-002  0.4483704E+03  0.7546771E-02  0.1028209E+00
         21   -1    0    0  502  501  0.00000000000E+00  0.00000000000E+00  0.43415345940E+03  0.43415345940E+03  0.00000000000E+00 0. -1.
         21   -1    0    0  501  502 -0.00000000000E+00 -0.00000000000E+00 -0.11576323908E+03  0.11576323908E+03  0.00000000000E+00 0. -1.
      99926    2    1    2    0    0  0.00000000000E+00  0.00000000000E+00  0.31839022032E+03  0.54991669848E+03  0.44837043042E+03 0.  0.
      99925    2    3    3    0    0 -0.72763087535E+02 -0.62748222312E+02  0.14417750654E+03  0.31490737089E+03  0.26295948840E+03 0.  0.
         25    1    4    4    0    0 -0.25435202678E+02 -0.42537463508E+02  0.29899245640E+02  0.13783271864E+03  0.12509000000E+03 0.  0.
         25    1    3    3    0    0  0.72763087535E+02  0.62748222312E+02  0.17421271378E+03  0.23500932759E+03  0.12509000000E+03 0.  0.
         25    1    4    4    0    0 -0.47327884857E+02 -0.20210758804E+02  0.11427826090E+03  0.17707465225E+03  0.12509000000E+03 0.  0.
<mgrwt>
<rscale>  2 0.44837043E+03</rscale>
<asrwt>0</asrwt>
<pdfrwt beam="1">  1       21 0.63846097E-01 0.44837043E+03</pdfrwt>
<pdfrwt beam="2">  1       21 0.17024006E-01 0.44837043E+03</pdfrwt>
<totfact> 0.65226546E+04</totfact>
</mgrwt>
</event>
<event>
 7    0  0.4793433E-002  0.4508763E+03  0.7546771E-02  0.1027461E+00
         21   -1    0    0  502  501  0.00000000000E+00  0.00000000000E+00  0.49753029771E+02  0.49753029771E+02  0.00000000000E+00 0. -1.
         21   -1    0    0  501  502 -0.00000000000E+00 -0.00000000000E+00 -0.10214926151E+04  0.10214926151E+04  0.00000000000E+00 0. -1.
      99926    2    1    2    0    0  0.00000000000E+00 -0.14210854715E-13 -0.97173958529E+03  0.10712456448E+04  0.45087626901E+03 0.  0.
      99925    2    3    3    0    0 -0.42678007007E+02  0.61783537815E+02 -0.42480782359E+03  0.50518868844E+03  0.26289790055E+03 0.  0.
         25    1    4    4    0    0  0.13666463149E+02  0.25861612102E+02 -0.24020408782E+03  0.27239880158E+03  0.12509000000E+03 0.  0.
         25    1    4    4    0    0 -0.56344470156E+02  0.35921925713E+02 -0.18460373577E+03  0.23278988686E+03  0.12509000000E+03 0.  0.
         25    1    3    3    0    0  0.42678007007E+02 -0.61783537815E+02 -0.54693176169E+03  0.56605695639E+03  0.12509000000E+03 0.  0.
<mgrwt>
<rscale>  2 0.45087627E+03</rscale>
<asrwt>0</asrwt>
<pdfrwt beam="1">  1       21 0.73166216E-02 0.45087627E+03</pdfrwt>
<pdfrwt beam="2">  1       21 0.15021951E+00 0.45087627E+03</pdfrwt>
<totfact> 0.37706181E+04</totfact>
</mgrwt>
</event>
<event>
 7    0  0.4793433E-002  0.4605798E+03  0.7546771E-02  0.1024613E+00
         21   -1    0    0  502  501  0.00000000000E+00  0.00000000000E+00  0.13027525138E+03  0.13027525138E+03  0.00000000000E+00 0.  1.
         21   -1    0    0  501  502 -0.00000000000E+00 -0.00000000000E+00 -0.40708766896E+03  0.40708766896E+03  0.00000000000E+00 0.  1.
      99926    2    1    2    0    0  0.71054273576E-14  0.00000000000E+00 -0.27681241758E+03  0.53736292035E+03  0.46057984502E+03 0.  0.
      99925    2    3    3    0    0  0.55355556773E+02  0.26320078060E+02 -0.29139969659E+03  0.39730121615E+03  0.26301613829E+03 0.  0.
         25    1    3    3    0    0 -0.55355556773E+02 -0.26320078060E+02  0.14587279013E+02  0.14006170420E+03  0.12509000000E+03 0.  0.
         25    1    4    4    0    0  0.49333800520E+02  0.29364873017E+02 -0.19757285951E+03  0.24078758804E+03  0.12509000000E+03 0.  0.
         25    1    4    4    0    0  0.60217562525E+01 -0.30447949571E+01 -0.93826837087E+02  0.15651362810E+03  0.12509000000E+03 0.  0.
<mgrwt>
<rscale>  2 0.46057985E+03</rscale>
<asrwt>0</asrwt>
<pdfrwt beam="1">  1       21 0.19158125E-01 0.46057985E+03</pdfrwt>
<pdfrwt beam="2">  1       21 0.59865833E-01 0.46057985E+03</pdfrwt>
<totfact> 0.60012726E+04</totfact>
</mgrwt>
</event>
<event>
 7    0  0.4793433E-002  0.4642935E+03  0.7546771E-02  0.1023543E+00
         21   -1    0    0  502  501  0.00000000000E+00  0.00000000000E+00  0.20098365910E+03  0.20098365910E+03  0.00000000000E+00 0.  1.
         21   -1    0    0  501  502 -0.00000000000E+00 -0.00000000000E+00 -0.26814174273E+03  0.26814174273E+03  0.00000000000E+00 0.  1.
      99926    2    1    2    0    0 -0.71054273576E-14  0.00000000000E+00 -0.67158083624E+02  0.46912540183E+03  0.46429347879E+03 0.  0.
      99925    2    3    3    0    0  0.46723831397E+02 -0.10801987327E+03 -0.10844929426E+02  0.28837671199E+03  0.26304392424E+03 0.  0.
         25    1    4    4    0    0  0.51587187128E+02 -0.73916157938E+02  0.18687982116E+02  0.15531125219E+03  0.12509000000E+03 0.  0.
         25    1    4    4    0    0 -0.48633557308E+01 -0.34103715335E+02 -0.29532911542E+02  0.13306545980E+03  0.12509000000E+03 0.  0.
         25    1    3    3    0    0 -0.46723831397E+02  0.10801987327E+03 -0.56313154198E+02  0.18074868984E+03  0.12509000000E+03 0.  0.
<mgrwt>
<rscale>  2 0.46429348E+03</rscale>
<asrwt>0</asrwt>
<pdfrwt beam="1">  1       21 0.29556421E-01 0.46429348E+03</pdfrwt>
<pdfrwt beam="2">  1       21 0.39432609E-01 0.46429348E+03</pdfrwt>
<totfact> 0.62740188E+04</totfact>
</mgrwt>
</event>
<event>
 7    0  0.4793433E-002  0.4526261E+03  0.7546771E-02  0.1026942E+00
         21   -1    0    0  502  501  0.00000000000E+00  0.00000000000E+00  0.11035675562E+03  0.11035675562E+03  0.00000000000E+00 0.  1.
         21   -1    0    0  501  502 -0.00000000000E+00 -0.00000000000E+00 -0.46410931154E+03  0.46410931154E+03  0.00000000000E+00 0.  1.
      99926    2    1    2    0    0  0.00000000000E+00 -0.71054273576E-14 -0.35375255592E+03  0.57446606716E+03  0.45262610564E+03 0.  0.
      99925    2    3    3    0    0  0.45016708180E+02 -0.57812956758E+02 -0.32915878812E+03  0.42742456452E+03  0.26263550517E+03 0.  0.
         25    1    4    4    0    0 -0.14553198348E+02 -0.10969831521E+02 -0.15272774825E+03  0.19825591031E+03  0.12509000000E+03 0.  0.
         25    1    3    3    0    0 -0.45016708180E+02  0.57812956758E+02 -0.24593767799E+02  0.14704150264E+03  0.12509000000E+03 0.  0.
         25    1    4    4    0    0  0.59569906528E+02 -0.46843125237E+02 -0.17643103987E+03  0.22916865422E+03  0.12509000000E+03 0.  0.
<mgrwt>
<rscale>  2 0.45262611E+03</rscale>
<asrwt>0</asrwt>
<pdfrwt beam="1">  1       21 0.16228935E-01 0.45262611E+03</pdfrwt>
<pdfrwt beam="2">  1       21 0.68251370E-01 0.45262611E+03</pdfrwt>
<totfact> 0.61422949E+04</totfact>
</mgrwt>
</event>
<event>
 7    0  0.4793433E-002  0.4516925E+03  0.7546771E-02  0.1027219E+00
         21   -1    0    0  502  501  0.00000000000E+00  0.00000000000E+00  0.45198725334E+02  0.45198725334E+02  0.00000000000E+00 0.  1.
         21   -1    0    0  501  502 -0.00000000000E+00 -0.00000000000E+00 -0.11284947573E+04  0.11284947573E+04  0.00000000000E+00 0.  1.
      99926    2    1    2    0    0  0.00000000000E+00  0.26645352591E-14 -0.10832960320E+04  0.11736934826E+04  0.45169248201E+03 0.  0.
      99925    2    3    3    0    0  0.29175078953E+02 -0.38657730231E+01 -0.40842210867E+03  0.48669388301E+03  0.26305168215E+03 0.  0.
         25    1    4    4    0    0  0.24655406232E+02  0.29068871046E+02 -0.24986790326E+03  0.28201837794E+03  0.12509000000E+03 0.  0.
         25    1    4    4    0    0  0.45196727209E+01 -0.32934644069E+02 -0.15855420541E+03  0.20467550507E+03  0.12509000000E+03 0.  0.
         25    1    3    3    0    0 -0.29175078953E+02  0.38657730231E+01 -0.67487392330E+03  0.68699959962E+03  0.12509000000E+03 0.  0.
<mgrwt>
<rscale>  2 0.45169248E+03</rscale>
<asrwt>0</asrwt>
<pdfrwt beam="1">  1       21 0.66468719E-02 0.45169248E+03</pdfrwt>
<pdfrwt beam="2">  1       21 0.16595510E+00 0.45169248E+03</pdfrwt>
<totfact> 0.33865458E+04</totfact>
</mgrwt>
</event>
<event>
 7    0  0.4793433E-002  0.4464669E+03  0.7546771E-02  0.1028781E+00
         21   -1    0    0  502  501  0.00000000000E+00  0.00000000000E+00  0.21852308002E+02  0.21852308002E+02  0.00000000000E+00 0. -1.
         21   -1    0    0  501  502 -0.00000000000E+00 -0.00000000000E+00 -0.22804539489E+04  0.22804539489E+04  0.00000000000E+00 0. -1.
      99926    2    1    2    0    0  0.71054273576E-14  0.71054273576E-14 -0.22586016409E+04  0.23023062569E+04  0.44646693977E+03 0.  0.
      99925    2    3    3    0    0  0.63903476941E+02  0.47349180742E+02 -0.17861349105E+04  0.18071316223E+04  0.26290907680E+03 0.  0.
         25    1    4    4    0    0  0.10436740041E+02  0.48893199226E+01 -0.64374222803E+03  0.65588443741E+03  0.12509000000E+03 0.  0.
         25    1    4    4    0    0  0.53466736900E+02  0.42459860819E+02 -0.11423926825E+04  0.11512471849E+04  0.12509000000E+03 0.  0.
         25    1    3    3    0    0 -0.63903476941E+02 -0.47349180742E+02 -0.47246673037E+03  0.49517463453E+03  0.12509000000E+03 0.  0.
<mgrwt>
<rscale>  2 0.44646694E+03</rscale>
<asrwt>0</asrwt>
<pdfrwt beam="1">  1       21 0.32135743E-02 0.44646694E+03</pdfrwt>
<pdfrwt beam="2">  1       21 0.33536092E+00 0.44646694E+03</pdfrwt>
<totfact> 0.10020263E+04</totfact>
</mgrwt>
</event>
<event>
 7    0  0.4793433E-002  0.4553371E+03  0.7546771E-02  0.1026142E+00
         21   -1    0    0  502  501  0.00000000000E+00  0.00000000000E+00  0.41402986710E+03  0.41402986710E+03  0.00000000000E+00 0.  1.
         21   -1    0    0  501  502 -0.00000000000E+00 -0.00000000000E+00 -0.12519138619E+03  0.12519138619E+03  0.00000000000E+00 0.  1.
      99926    2    1    2    0    0  0.00000000000E+00  0.00000000000E+00  0.28883848092E+03  0.53922125329E+03  0.45533711900E+03 0.  0.
      99925    2    3    3    0    0 -0.48881726843E+02 -0.10168657452E+03  0.16683354179E+03  0.33122534965E+03  0.26295858786E+03 0.  0.
         25    1    3    3    0    0  0.48881726843E+02  0.10168657452E+03  0.12200493913E+03  0.20799590364E+03  0.12509000000E+03 0.  0.
         25    1    4    4    0    0 -0.22891059822E+02 -0.73569342560E+02  0.48183495924E+02  0.15461437890E+03  0.12509000000E+03 0.  0.
         25    1    4    4    0    0 -0.25990667021E+02 -0.28117231960E+02  0.11865004586E+03  0.17661097075E+03  0.12509000000E+03 0.  0.
<mgrwt>
<rscale>  2 0.45533712E+03</rscale>
<asrwt>0</asrwt>
<pdfrwt beam="1">  1       21 0.60886745E-01 0.45533712E+03</pdfrwt>
<pdfrwt beam="2">  1       21 0.18410498E-01 0.45533712E+03</pdfrwt>
<totfact> 0.62417753E+04</totfact>
</mgrwt>
</event>
<event>
 7    0  0.4793433E-002  0.4558310E+03  0.7546771E-02  0.1025997E+00
         21   -1    0    0  502  501  0.00000000000E+00  0.00000000000E+00  0.96789088404E+02  0.96789088404E+02  0.00000000000E+00 0. -1.
         21   -1    0    0  501  502 -0.00000000000E+00 -0.00000000000E+00 -0.53668735205E+03  0.53668735205E+03  0.00000000000E+00 0. -1.
      99926    2    1    2    0    0  0.14210854715E-13 -0.14210854715E-13 -0.43989826365E+03  0.63347644045E+03  0.45583101940E+03 0.  0.
      99925    2    3    3    0    0 -0.73444931146E+02  0.80505845651E+02 -0.23059059440E+03  0.36639488437E+03  0.26305482313E+03 0.  0.
         25    1    3    3    0    0  0.73444931146E+02 -0.80505845651E+02 -0.20930766925E+03  0.26708155608E+03  0.12509000000E+03 0.  0.
         25    1    4    4    0    0 -0.37145159996E+01  0.31492999395E+02 -0.13808438520E+03  0.18899844491E+03  0.12509000000E+03 0.  0.
         25    1    4    4    0    0 -0.69730415147E+02  0.49012846256E+02 -0.92506209197E+02  0.17739643946E+03  0.12509000000E+03 0.  0.
<mgrwt>
<rscale>  2 0.45583102E+03</rscale>
<asrwt>0</asrwt>
<pdfrwt beam="1">  1       21 0.14233689E-01 0.45583102E+03</pdfrwt>
<pdfrwt beam="2">  1       21 0.78924613E-01 0.45583102E+03</pdfrwt>
<totfact> 0.56293433E+04</totfact>
</mgrwt>
</event>
<event>
 7    0  0.4793433E-002  0.5010961E+03  0.7546771E-02  0.1013493E+00
         21   -1    0    0  502  501  0.00000000000E+00  0.00000000000E+00  0.46123724862E+03  0.46123724862E+03  0.00000000000E+00 0.  1.
         21   -1    0    0  501  502 -0.00000000000E+00 -0.00000000000E+00 -0.13609986327E+03  0.13609986327E+03  0.00000000000E+00 0.  1.
      99926    2    1    2    0    0  0.00000000000E+00  0.00000000000E+00  0.32513738534E+03  0.59733711189E+03  0.50109610445E+03 0.  0.
      99925    2    3    3    0    0  0.16481345065E+02 -0.65940829783E+02  0.35971196515E+03  0.45083544829E+03  0.26313509040E+03 0.  0.
         25    1    3    3    0    0 -0.16481345065E+02  0.65940829783E+02 -0.34574579803E+02  0.14650166360E+03  0.12509000000E+03 0.  0.
         25    1    4    4    0    0 -0.55656436287E+01 -0.39657398003E+02  0.11821267984E+03  0.17670719108E+03  0.12509000000E+03 0.  0.
         25    1    4    4    0    0  0.22046988694E+02 -0.26283431780E+02  0.24149928531E+03  0.27412825721E+03  0.12509000000E+03 0.  0.
<mgrwt>
<rscale>  2 0.50109610E+03</rscale>
<asrwt>0</asrwt>
<pdfrwt beam="1">  1       21 0.67829007E-01 0.50109610E+03</pdfrwt>
<pdfrwt beam="2">  1       21 0.20014686E-01 0.50109610E+03</pdfrwt>
<totfact> 0.41514731E+04</totfact>
</mgrwt>
</event>
<event>
 7    0  0.4793433E-002  0.4601222E+03  0.7546771E-02  0.1024746E+00
         21   -1    0    0  502  501  0.00000000000E+00  0.00000000000E+00  0.10707331540E+04  0.10707331540E+04  0.00000000000E+00 0. -1.
         21   -1    0    0  501  502 -0.00000000000E+00 -0.00000000000E+00 -0.49431658700E+02  0.49431658700E+02  0.00000000000E+00 0. -1.
      99926    2    1    2    0    0  0.71054273576E-14  0.00000000000E+00  0.10213014953E+04  0.11201648127E+04  0.46012222648E+03 0.  0.
      99925    2    3    3    0    0 -0.49825647016E+02 -0.30964416420E+02  0.88906888320E+03  0.92892056576E+03  0.26269478148E+03 0.  0.
         25    1    4    4    0    0 -0.26610872356E+02  0.60587452165E+01  0.32074113990E+03  0.34535088511E+03  0.12509000000E+03 0.  0.
         25    1    4    4    0    0 -0.23214774660E+02 -0.37023161636E+02  0.56832774331E+03  0.58356968065E+03  0.12509000000E+03 0.  0.
         25    1    3    3    0    0  0.49825647016E+02  0.30964416420E+02  0.13223261207E+03  0.19124424692E+03  0.12509000000E+03 0.  0.
<mgrwt>
<rscale>  2 0.46012223E+03</rscale>
<asrwt>0</asrwt>
<pdfrwt beam="1">  1       21 0.15746074E+00 0.46012223E+03</pdfrwt>
<pdfrwt beam="2">  1       21 0.72693623E-02 0.46012223E+03</pdfrwt>
<totfact> 0.33438813E+04</totfact>
</mgrwt>
</event>
<event>
 7    0  0.4793433E-002  0.4624547E+03  0.7546771E-02  0.1024072E+00
         21   -1    0    0  502  501  0.00000000000E+00  0.00000000000E+00  0.45994938071E+03  0.45994938071E+03  0.00000000000E+00 0. -1.
         21   -1    0    0  501  502 -0.00000000000E+00 -0.00000000000E+00 -0.11624341697E+03  0.11624341697E+03  0.00000000000E+00 0. -1.
      99926    2    1    2    0    0  0.00000000000E+00  0.00000000000E+00  0.34370596374E+03  0.57619279768E+03  0.46245470112E+03 0.  0.
      99925    2    3    3    0    0  0.95924198019E+02 -0.82972227431E+01  0.30414018470E+03  0.41345603281E+03  0.26301015845E+03 0.  0.
         25    1    3    3    0    0 -0.95924198019E+02  0.82972227431E+01  0.39565779046E+02  0.16273676488E+03  0.12509000000E+03 0.  0.
         25    1    4    4    0    0  0.28596809241E+02 -0.28653694837E+02  0.18486480941E+03  0.22685087081E+03  0.12509000000E+03 0.  0.
         25    1    4    4    0    0  0.67327388779E+02  0.20356472094E+02  0.11927537528E+03  0.18660516200E+03  0.12509000000E+03 0.  0.
<mgrwt>
<rscale>  2 0.46245470E+03</rscale>
<asrwt>0</asrwt>
<pdfrwt beam="1">  1       21 0.67639614E-01 0.46245470E+03</pdfrwt>
<pdfrwt beam="2">  1       21 0.17094620E-01 0.46245470E+03</pdfrwt>
<totfact> 0.56748542E+04</totfact>
</mgrwt>
</event>
<event>
 7    0  0.4793433E-002  0.4580508E+03  0.7546771E-02  0.1025348E+00
         21   -1    0    0  502  501  0.00000000000E+00  0.00000000000E+00  0.63108645668E+03  0.63108645668E+03  0.00000000000E+00 0.  1.
         21   -1    0    0  501  502 -0.00000000000E+00 -0.00000000000E+00 -0.83114799191E+02  0.83114799191E+02  0.00000000000E+00 0.  1.
      99926    2    1    2    0    0  0.00000000000E+00  0.71054273576E-14  0.54797165749E+03  0.71420125587E+03  0.45805075753E+03 0.  0.
      99925    2    3    3    0    0  0.80784380719E+02 -0.39928863550E+02  0.23012293674E+03  0.36093683976E+03  0.26305589894E+03 0.  0.
         25    1    3    3    0    0 -0.80784380719E+02  0.39928863550E+02  0.31784872075E+03  0.35326441612E+03  0.12509000000E+03 0.  0.
         25    1    4    4    0    0  0.62376828665E+02 -0.49127046307E+02  0.15073410606E+03  0.21135897015E+03  0.12509000000E+03 0.  0.
         25    1    4    4    0    0  0.18407552054E+02  0.91981827562E+01  0.79388830680E+02  0.14957786960E+03  0.12509000000E+03 0.  0.
<mgrwt>
<rscale>  2 0.45805076E+03</rscale>
<asrwt>0</asrwt>
<pdfrwt beam="1">  1       21 0.92806829E-01 0.45805076E+03</pdfrwt>
<pdfrwt beam="2">  1       21 0.12222765E-01 0.45805076E+03</pdfrwt>
<totfact> 0.50905940E+04</totfact>
</mgrwt>
</event>
<event>
 7    0  0.4793433E-002  0.4384821E+03  0.7546771E-02  0.1031214E+00
         21   -1    0    0  502  501  0.00000000000E+00  0.00000000000E+00  0.42659960290E+03  0.42659960290E+03  0.00000000000E+00 0.  1.
         21   -1    0    0  501  502 -0.00000000000E+00 -0.00000000000E+00 -0.11267389636E+03  0.11267389636E+03  0.00000000000E+00 0.  1.
      99926    2    1    2    0    0 -0.14210854715E-13  0.17763568394E-14  0.31392570654E+03  0.53927349926E+03  0.43848210656E+03 0.  0.
      99925    2    3    3    0    0 -0.97018273061E+02  0.80154832237E+01  0.21520642822E+03  0.35253893553E+03  0.26171186644E+03 0.  0.
         25    1    3    3    0    0  0.97018273061E+02 -0.80154832237E+01  0.98719278324E+02  0.18673456373E+03  0.12509000000E+03 0.  0.
         25    1    4    4    0    0 -0.31761695523E+02 -0.39003957821E+01  0.59771068759E+02  0.14228178784E+03  0.12509000000E+03 0.  0.
         25    1    4    4    0    0 -0.65256577538E+02  0.11915879006E+02  0.15543535946E+03  0.21025714769E+03  0.12509000000E+03 0.  0.
<mgrwt>
<rscale>  2 0.43848211E+03</rscale>
<asrwt>0</asrwt>
<pdfrwt beam="1">  1       21 0.62735235E-01 0.43848211E+03</pdfrwt>
<pdfrwt beam="2">  1       21 0.16569691E-01 0.43848211E+03</pdfrwt>
<totfact> 0.71476129E+04</totfact>
</mgrwt>
</event>
<event>
 7    0  0.4793433E-002  0.4541649E+03  0.7546771E-02  0.1026487E+00
         21   -1    0    0  502  501  0.00000000000E+00  0.00000000000E+00  0.34864045803E+03  0.34864045803E+03  0.00000000000E+00 0.  1.
         21   -1    0    0  501  502 -0.00000000000E+00 -0.00000000000E+00 -0.14790718371E+03  0.14790718371E+03  0.00000000000E+00 0.  1.
      99926    2    1    2    0    0  0.00000000000E+00  0.00000000000E+00  0.20073327432E+03  0.49654764175E+03  0.45416485234E+03 0.  0.
      99925    2    3    3    0    0 -0.10650914482E+03  0.30679511640E+02  0.10582839726E+03  0.30435015437E+03  0.26295234632E+03 0.  0.
         25    1    4    4    0    0 -0.11473939129E+02  0.14736527293E+02  0.34590920086E+02  0.13112153282E+03  0.12509000000E+03 0.  0.
         25    1    3    3    0    0  0.10650914482E+03 -0.30679511640E+02  0.94904877060E+02  0.19219748738E+03  0.12509000000E+03 0.  0.
         25    1    4    4    0    0 -0.95035205690E+02  0.15942984348E+02  0.71237477177E+02  0.17322862155E+03  0.12509000000E+03 0.  0.
<mgrwt>
<rscale>  2 0.45416485E+03</rscale>
<asrwt>0</asrwt>
<pdfrwt beam="1">  1       21 0.51270656E-01 0.45416485E+03</pdfrwt>
<pdfrwt beam="2">  1       21 0.21751056E-01 0.45416485E+03</pdfrwt>
<totfact> 0.65950030E+04</totfact>
</mgrwt>
</event>
<event>
 7    0  0.4793433E-002  0.4552077E+03  0.7546771E-02  0.1026180E+00
         21   -1    0    0  502  501  0.00000000000E+00  0.00000000000E+00  0.77188904933E+02  0.77188904933E+02  0.00000000000E+00 0.  1.
         21   -1    0    0  501  502 -0.00000000000E+00 -0.00000000000E+00 -0.67112633942E+03  0.67112633942E+03  0.00000000000E+00 0.  1.
      99926    2    1    2    0    0 -0.14210854715E-13  0.00000000000E+00 -0.59393743449E+03  0.74831524435E+03  0.45520767661E+03 0.  0.
      99925    2    3    3    0    0 -0.96893977633E+02  0.34944154601E+02 -0.45146174687E+03  0.53254600071E+03  0.26301710427E+03 0.  0.
         25    1    4    4    0    0 -0.61603159624E+02  0.19925992946E+02 -0.16062746956E+03  0.21363680990E+03  0.12509000000E+03 0.  0.
         25    1    3    3    0    0  0.96893977633E+02 -0.34944154601E+02 -0.14247568761E+03  0.21576924365E+03  0.12509000000E+03 0.  0.
         25    1    4    4    0    0 -0.35290818010E+02  0.15018161655E+02 -0.29083427732E+03  0.31890919080E+03  0.12509000000E+03 0.  0.
<mgrwt>
<rscale>  2 0.45520768E+03</rscale>
<asrwt>0</asrwt>
<pdfrwt beam="1">  1       21 0.11351310E-01 0.45520768E+03</pdfrwt>
<pdfrwt beam="2">  1       21 0.98695048E-01 0.45520768E+03</pdfrwt>
<totfact> 0.50274893E+04</totfact>
</mgrwt>
</event>
<event>
 7    0  0.4793433E-002  0.4509534E+03  0.7546771E-02  0.1027438E+00
         21   -1    0    0  502  501  0.00000000000E+00  0.00000000000E+00  0.75778465466E+03  0.75778465466E+03  0.00000000000E+00 0. -1.
         21   -1    0    0  501  502 -0.00000000000E+00 -0.00000000000E+00 -0.67089947608E+02  0.67089947608E+02  0.00000000000E+00 0. -1.
      99926    2    1    2    0    0  0.00000000000E+00  0.71054273576E-14  0.69069470706E+03  0.82487460227E+03  0.45095335803E+03 0.  0.
      99925    2    3    3    0    0  0.88685789922E+02  0.63566764253E+02  0.42765780000E+03  0.51384112268E+03  0.26312659046E+03 0.  0.
         25    1    4    4    0    0  0.20062481346E+02  0.64426847826E+02  0.20887647006E+03  0.25264641245E+03  0.12509000000E+03 0.  0.
         25    1    3    3    0    0 -0.88685789922E+02 -0.63566764253E+02  0.26303690706E+03  0.31103347959E+03  0.12509000000E+03 0.  0.
         25    1    4    4    0    0  0.68623308576E+02 -0.86008357255E+00  0.21878132994E+03  0.26119471023E+03  0.12509000000E+03 0.  0.
<mgrwt>
<rscale>  2 0.45095336E+03</rscale>
<asrwt>0</asrwt>
<pdfrwt beam="1">  1       21 0.11143891E+00 0.45095336E+03</pdfrwt>
<pdfrwt beam="2">  1       21 0.98661692E-02 0.45095336E+03</pdfrwt>
<totfact> 0.48094048E+04</totfact>
</mgrwt>
</event>
<event>
 7    0  0.4793433E-002  0.4546183E+03  0.7546771E-02  0.1026354E+00
         21   -1    0    0  502  501  0.00000000000E+00  0.00000000000E+00  0.13661892509E+03  0.13661892509E+03  0.00000000000E+00 0. -1.
         21   -1    0    0  501  502 -0.00000000000E+00 -0.00000000000E+00 -0.37820125936E+03  0.37820125936E+03  0.00000000000E+00 0. -1.
      99926    2    1    2    0    0 -0.17763568394E-14  0.00000000000E+00 -0.24158233427E+03  0.51482018445E+03  0.45461829933E+03 0.  0.
      99925    2    3    3    0    0  0.27897631559E+01 -0.37490478896E+02 -0.27249341338E+03  0.38059529221E+03  0.26303383304E+03 0.  0.
         25    1    4    4    0    0  0.34761600659E+02 -0.45018115384E+00 -0.11339396234E+03  0.17237827688E+03  0.12509000000E+03 0.  0.
         25    1    4    4    0    0 -0.31971837503E+02 -0.37040297742E+02 -0.15909945105E+03  0.20821701533E+03  0.12509000000E+03 0.  0.
         25    1    3    3    0    0 -0.27897631559E+01  0.37490478896E+02  0.30911079114E+02  0.13422489225E+03  0.12509000000E+03 0.  0.
<mgrwt>
<rscale>  2 0.45461830E+03</rscale>
<asrwt>0</asrwt>
<pdfrwt beam="1">  1       21 0.20091019E-01 0.45461830E+03</pdfrwt>
<pdfrwt beam="2">  1       21 0.55617831E-01 0.45461830E+03</pdfrwt>
<totfact> 0.64436493E+04</totfact>
</mgrwt>
</event>
<event>
 7    0  0.4793433E-002  0.4477519E+03  0.7546771E-02  0.1028395E+00
         21   -1    0    0  502  501  0.00000000000E+00  0.00000000000E+00  0.21900694731E+03  0.21900694731E+03  0.00000000000E+00 0.  1.
         21   -1    0    0  501  502 -0.00000000000E+00 -0.00000000000E+00 -0.22885318687E+03  0.22885318687E+03  0.00000000000E+00 0.  1.
      99926    2    1    2    0    0  0.35527136788E-14  0.71054273576E-14 -0.98462395618E+01  0.44786013418E+03  0.44775188593E+03 0.  0.
      99925    2    3    3    0    0  0.25249663226E+02  0.63064647335E+02 -0.87865935615E+02  0.28553553251E+03  0.26305022799E+03 0.  0.
         25    1    4    4    0    0  0.16635213535E+02  0.42267565400E+02 -0.85945644447E+02  0.15842171352E+03  0.12509000000E+03 0.  0.
         25    1    3    3    0    0 -0.25249663226E+02 -0.63064647335E+02  0.78019696053E+02  0.16232460167E+03  0.12509000000E+03 0.  0.
         25    1    4    4    0    0  0.86144496906E+01  0.20797081935E+02 -0.19202911676E+01  0.12711381899E+03  0.12509000000E+03 0.  0.
<mgrwt>
<rscale>  2 0.44775189E+03</rscale>
<asrwt>0</asrwt>
<pdfrwt beam="1">  1       21 0.32206904E-01 0.44775189E+03</pdfrwt>
<pdfrwt beam="2">  1       21 0.33654880E-01 0.44775189E+03</pdfrwt>
<totfact> 0.73215542E+04</totfact>
</mgrwt>
</event>
<event>
 7    0  0.4793433E-002  0.4609785E+03  0.7546771E-02  0.1024498E+00
         21   -1    0    0  502  501  0.00000000000E+00  0.00000000000E+00  0.15680506221E+04  0.15680506221E+04  0.00000000000E+00 0.  1.
         21   -1    0    0  501  502 -0.00000000000E+00 -0.00000000000E+00 -0.33879829053E+02  0.33879829053E+02  0.00000000000E+00 0.  1.
      99926    2    1    2    0    0  0.26645352591E-14  0.00000000000E+00  0.15341707930E+04  0.16019304511E+04  0.46097846814E+03 0.  0.
      99925    2    3    3    0    0  0.61039539641E+01 -0.82289418622E+02  0.66426676429E+03  0.71921343306E+03  0.26307569537E+03 0.  0.
         25    1    4    4    0    0 -0.37210538971E+02 -0.46330781646E+02  0.34069634505E+03  0.36776714531E+03  0.12509000000E+03 0.  0.
         25    1    3    3    0    0 -0.61039539641E+01  0.82289418622E+02  0.86990402874E+03  0.88271701807E+03  0.12509000000E+03 0.  0.
         25    1    4    4    0    0  0.43314492935E+02 -0.35958636977E+02  0.32357041924E+03  0.35144628776E+03  0.12509000000E+03 0.  0.
<mgrwt>
<rscale>  2 0.46097847E+03</rscale>
<asrwt>0</asrwt>
<pdfrwt beam="1">  1       21 0.23059563E+00 0.46097847E+03</pdfrwt>
<pdfrwt beam="2">  1       21 0.49823289E-02 0.46097847E+03</pdfrwt>
<totfact> 0.20421625E+04</totfact>
</mgrwt>
</event>
<event>
 7    0  0.4793433E-002  0.4718865E+03  0.7546771E-02  0.1021389E+00
         21   -1    0    0  502  501  0.00000000000E+00  0.00000000000E+00  0.79796260570E+02  0.79796260570E+02  0.00000000000E+00 0. -1.
         21   -1    0    0  501  502 -0.00000000000E+00 -0.00000000000E+00 -0.69764180870E+03  0.69764180870E+03  0.00000000000E+00 0. -1.
      99926    2    1    2    0    0 -0.17763568394E-14  0.00000000000E+00 -0.61784554813E+03  0.77743806927E+03  0.47188645902E+03 0.  0.
      99925    2    3    3    0    0 -0.14387115780E+02  0.37738034830E+02 -0.58348357978E+03  0.64157268979E+03  0.26368784582E+03 0.  0.
         25    1    3    3    0    0  0.14387115780E+02 -0.37738034830E+02 -0.34361968351E+02  0.13586537948E+03  0.12509000000E+03 0.  0.
         25    1    4    4    0    0 -0.35390728153E+02  0.99930900387E+01 -0.36291322284E+03  0.38562401494E+03  0.12509000000E+03 0.  0.
         25    1    4    4    0    0  0.21003612374E+02  0.27744944791E+02 -0.22057035694E+03  0.25594867485E+03  0.12509000000E+03 0.  0.
<mgrwt>
<rscale>  2 0.47188646E+03</rscale>
<asrwt>0</asrwt>
<pdfrwt beam="1">  1       21 0.11734745E-01 0.47188646E+03</pdfrwt>
<pdfrwt beam="2">  1       21 0.10259438E+00 0.47188646E+03</pdfrwt>
<totfact> 0.42900239E+04</totfact>
</mgrwt>
</event>
<event>
 7    0  0.4793433E-002  0.4458068E+03  0.7546771E-02  0.1028980E+00
         21   -1    0    0  502  501  0.00000000000E+00  0.00000000000E+00  0.98411365030E+02  0.98411365030E+02  0.00000000000E+00 0.  1.
         21   -1    0    0  501  502 -0.00000000000E+00 -0.00000000000E+00 -0.50488001313E+03  0.50488001313E+03  0.00000000000E+00 0.  1.
      99926    2    1    2    0    0  0.00000000000E+00  0.00000000000E+00 -0.40646864810E+03  0.60329137816E+03  0.44580682484E+03 0.  0.
      99925    2    3    3    0    0 -0.24941389414E+02 -0.94323294752E+02 -0.30791435978E+03  0.41653107005E+03  0.26299795155E+03 0.  0.
         25    1    4    4    0    0 -0.93342119363E+01 -0.62504959619E+02 -0.21532928704E+03  0.25692062479E+03  0.12509000000E+03 0.  0.
         25    1    4    4    0    0 -0.15607177478E+02 -0.31818335133E+02 -0.92585072744E+02  0.15961044525E+03  0.12509000000E+03 0.  0.
         25    1    3    3    0    0  0.24941389414E+02  0.94323294752E+02 -0.98554288318E+02  0.18676030811E+03  0.12509000000E+03 0.  0.
<mgrwt>
<rscale>  2 0.44580682E+03</rscale>
<asrwt>0</asrwt>
<pdfrwt beam="1">  1       21 0.14472260E-01 0.44580682E+03</pdfrwt>
<pdfrwt beam="2">  1       21 0.74247060E-01 0.44580682E+03</pdfrwt>
<totfact> 0.62923046E+04</totfact>
</mgrwt>
</event>
<event>
 7    0  0.4793433E-002  0.4683330E+03  0.7546771E-02  0.1022392E+00
         21   -1    0    0  502  501  0.00000000000E+00  0.00000000000E+00  0.78690436554E+03  0.78690436554E+03  0.00000000000E+00 0. -1.
         21   -1    0    0  501  502 -0.00000000000E+00 -0.00000000000E+00 -0.69683106853E+02  0.69683106853E+02  0.00000000000E+00 0. -1.
      99926    2    1    2    0    0  0.00000000000E+00  0.17763568394E-14  0.71722125869E+03  0.85658747240E+03  0.46833296270E+03 0.  0.
      99925    2    3    3    0    0  0.80887644218E+02 -0.94209938839E+01  0.27217681200E+03  0.38717972454E+03  0.26305200245E+03 0.  0.
         25    1    4    4    0    0  0.29117388984E+02 -0.20865651716E+02  0.83239020044E+02  0.15446501326E+03  0.12509000000E+03 0.  0.
         25    1    4    4    0    0  0.51770255235E+02  0.11444657832E+02  0.18893779195E+03  0.23271471128E+03  0.12509000000E+03 0.  0.
         25    1    3    3    0    0 -0.80887644218E+02  0.94209938839E+01  0.44504444669E+03  0.46940774785E+03  0.12509000000E+03 0.  0.
<mgrwt>
<rscale>  2 0.46833296E+03</rscale>
<asrwt>0</asrwt>
<pdfrwt beam="1">  1       21 0.11572122E+00 0.46833296E+03</pdfrwt>
<pdfrwt beam="2">  1       21 0.10247516E-01 0.46833296E+03</pdfrwt>
<totfact> 0.40717573E+04</totfact>
</mgrwt>
</event>
<event>
 7    0  0.4793433E-002  0.4527298E+03  0.7546771E-02  0.1026911E+00
         21   -1    0    0  502  501  0.00000000000E+00  0.00000000000E+00  0.28015011716E+03  0.28015011716E+03  0.00000000000E+00 0. -1.
         21   -1    0    0  501  502 -0.00000000000E+00 -0.00000000000E+00 -0.18290578486E+03  0.18290578486E+03  0.00000000000E+00 0. -1.
      99926    2    1    2    0    0  0.00000000000E+00  0.17763568394E-14  0.97244332304E+02  0.46305590202E+03  0.45272984023E+03 0.  0.
      99925    2    3    3    0    0 -0.10352513720E+03 -0.14526633594E+02  0.23258704615E+02  0.28403115982E+03  0.26306701673E+03 0.  0.
         25    1    3    3    0    0  0.10352513720E+03  0.14526633594E+02  0.73985627689E+02  0.17902474220E+03  0.12509000000E+03 0.  0.
         25    1    4    4    0    0 -0.68287593452E+02  0.16518267799E+02  0.41074477963E+02  0.14923360691E+03  0.12509000000E+03 0.  0.
         25    1    4    4    0    0 -0.35237543747E+02 -0.31044901393E+02 -0.17815773349E+02  0.13479755291E+03  0.12509000000E+03 0.  0.
<mgrwt>
<rscale>  2 0.45272984E+03</rscale>
<asrwt>0</asrwt>
<pdfrwt beam="1">  1       21 0.41198547E-01 0.45272984E+03</pdfrwt>
<pdfrwt beam="2">  1       21 0.26897909E-01 0.45272984E+03</pdfrwt>
<totfact> 0.69193885E+04</totfact>
</mgrwt>
</event>
<event>
 7    0  0.4793433E-002  0.4538406E+03  0.7546771E-02  0.1026583E+00
         21   -1    0    0  502  501  0.00000000000E+00  0.00000000000E+00  0.50085112649E+02  0.50085112649E+02  0.00000000000E+00 0.  1.
         21   -1    0    0  501  502 -0.00000000000E+00 -0.00000000000E+00 -0.10281065235E+04  0.10281065235E+04  0.00000000000E+00 0.  1.
      99926    2    1    2    0    0  0.00000000000E+00  0.35527136788E-14 -0.97802141087E+03  0.10781916362E+04  0.45384063743E+03 0.  0.
      99925    2    3    3    0    0 -0.29253193574E+02  0.29785457870E+02 -0.36900409235E+03  0.45506040986E+03  0.26300766837E+03 0.  0.
         25    1    3    3    0    0  0.29253193574E+02 -0.29785457870E+02 -0.60901731853E+03  0.62313122631E+03  0.12509000000E+03 0.  0.
         25    1    4    4    0    0  0.39015790491E+01  0.24547147310E+02 -0.12373257376E+03  0.17769367651E+03  0.12509000000E+03 0.  0.
         25    1    4    4    0    0 -0.33154772623E+02  0.52383105606E+01 -0.24527151859E+03  0.27736673336E+03  0.12509000000E+03 0.  0.
<mgrwt>
<rscale>  2 0.45384064E+03</rscale>
<asrwt>0</asrwt>
<pdfrwt beam="1">  1       21 0.73654584E-02 0.45384064E+03</pdfrwt>
<pdfrwt beam="2">  1       21 0.15119212E+00 0.45384064E+03</pdfrwt>
<totfact> 0.36589540E+04</totfact>
</mgrwt>
</event>
<event>
 7    0  0.4793433E-002  0.4536445E+03  0.7546771E-02  0.1026641E+00
         21   -1    0    0  502  501  0.00000000000E+00  0.00000000000E+00  0.43603536101E+03  0.43603536101E+03  0.00000000000E+00 0. -1.
         21   -1    0    0  501  502 -0.00000000000E+00 -0.00000000000E+00 -0.11799121855E+03  0.11799121855E+03  0.00000000000E+00 0. -1.
      99926    2    1    2    0    0 -0.17763568394E-14  0.35527136788E-14  0.31804414246E+03  0.55402657956E+03  0.45364454621E+03 0.  0.
      99925    2    3    3    0    0  0.12524351628E+02 -0.19088561919E+02  0.33398691201E+03  0.42587466743E+03  0.26325034167E+03 0.  0.
         25    1    4    4    0    0  0.18676118037E+00  0.23321359621E+02  0.12522721703E+03  0.17853090679E+03  0.12509000000E+03 0.  0.
         25    1    3    3    0    0 -0.12524351628E+02  0.19088561919E+02 -0.15942769549E+02  0.12815191212E+03  0.12509000000E+03 0.  0.
         25    1    4    4    0    0  0.12337590448E+02 -0.42409921540E+02  0.20875969497E+03  0.24734376064E+03  0.12509000000E+03 0.  0.
<mgrwt>
<rscale>  2 0.45364455E+03</rscale>
<asrwt>0</asrwt>
<pdfrwt beam="1">  1       21 0.64122847E-01 0.45364455E+03</pdfrwt>
<pdfrwt beam="2">  1       21 0.17351650E-01 0.45364455E+03</pdfrwt>
<totfact> 0.62266219E+04</totfact>
</mgrwt>
</event>
<event>
 7    0  0.4793433E-002  0.4419509E+03  0.7546771E-02  0.1030150E+00
         21   -1    0    0  502  501  0.00000000000E+00  0.00000000000E+00  0.80381853132E+02  0.80381853132E+02  0.00000000000E+00 0. -1.
         21   -1    0    0  501  502 -0.00000000000E+00 -0.00000000000E+00 -0.60747715796E+03  0.60747715796E+03  0.00000000000E+00 0. -1.
      99926    2    1    2    0    0 -0.14210854715E-13  0.00000000000E+00 -0.52709530483E+03  0.68785901110E+03  0.44195085560E+03 0.  0.
      99925    2    3    3    0    0  0.77596050503E+02 -0.45312574579E+02 -0.40575230038E+03  0.49178247171E+03  0.26294618032E+03 0.  0.
         25    1    4    4    0    0  0.67536174447E+02 -0.27541086916E+02 -0.26783085385E+03  0.30446760206E+03  0.12509000000E+03 0.  0.
         25    1    4    4    0    0  0.10059876056E+02 -0.17771487662E+02 -0.13792144653E+03  0.18731486965E+03  0.12509000000E+03 0.  0.
         25    1    3    3    0    0 -0.77596050503E+02  0.45312574579E+02 -0.12134300445E+03  0.19607653939E+03  0.12509000000E+03 0.  0.
<mgrwt>
<rscale>  2 0.44195086E+03</rscale>
<asrwt>0</asrwt>
<pdfrwt beam="1">  1       21 0.11820861E-01 0.44195086E+03</pdfrwt>
<pdfrwt beam="2">  1       21 0.89334876E-01 0.44195086E+03</pdfrwt>
<totfact> 0.59442157E+04</totfact>
</mgrwt>
</event>
<event>
 7    0  0.4793433E-002  0.4535667E+03  0.7546771E-02  0.1026664E+00
         21   -1    0    0  502  501  0.00000000000E+00  0.00000000000E+00  0.14952245324E+03  0.14952245324E+03  0.00000000000E+00 0. -1.
         21   -1    0    0  501  502 -0.00000000000E+00 -0.00000000000E+00 -0.34396625834E+03  0.34396625834E+03  0.00000000000E+00 0. -1.
      99926    2    1    2    0    0  0.71054273576E-14 -0.14210854715E-13 -0.19444380510E+03  0.49348871157E+03  0.45356666005E+03 0.  0.
      99925    2    3    3    0    0 -0.33998713810E+02  0.10584387050E+03 -0.13547850649E+03  0.31605350649E+03  0.26301436421E+03 0.  0.
         25    1    3    3    0    0  0.33998713810E+02 -0.10584387050E+03 -0.58965298610E+02  0.17743520509E+03  0.12509000000E+03 0.  0.
         25    1    4    4    0    0 -0.25014860935E+02  0.26973578851E+02 -0.98351277186E+02  0.16332115309E+03  0.12509000000E+03 0.  0.
         25    1    4    4    0    0 -0.89838528744E+01  0.78870291652E+02 -0.37127229302E+02  0.15273235339E+03  0.12509000000E+03 0.  0.
<mgrwt>
<rscale>  2 0.45356666E+03</rscale>
<asrwt>0</asrwt>
<pdfrwt beam="1">  1       21 0.21988596E-01 0.45356666E+03</pdfrwt>
<pdfrwt beam="2">  1       21 0.50583273E-01 0.45356666E+03</pdfrwt>
<totfact> 0.66483841E+04</totfact>
</mgrwt>
</event>
<event>
 7    0  0.4793433E-002  0.4590694E+03  0.7546771E-02  0.1025051E+00
         21   -1    0    0  502  501  0.00000000000E+00  0.00000000000E+00  0.13458050375E+03  0.13458050375E+03  0.00000000000E+00 0.  1.
         21   -1    0    0  501  502 -0.00000000000E+00 -0.00000000000E+00 -0.39148447008E+03  0.39148447008E+03  0.00000000000E+00 0.  1.
      99926    2    1    2    0    0 -0.71054273576E-14 -0.14210854715E-13 -0.25690396633E+03  0.52606497383E+03  0.45906939429E+03 0.  0.
      99925    2    3    3    0    0 -0.51718653298E+02 -0.10192254549E+03 -0.18959687160E+03  0.34374443884E+03  0.26296433434E+03 0.  0.
         25    1    4    4    0    0 -0.49345064421E+02 -0.40263567173E+02 -0.13250420272E+03  0.19303098731E+03  0.12509000000E+03 0.  0.
         25    1    4    4    0    0 -0.23735888766E+01 -0.61658978320E+02 -0.57092668875E+02  0.15071345153E+03  0.12509000000E+03 0.  0.
         25    1    3    3    0    0  0.51718653298E+02  0.10192254549E+03 -0.67307094735E+02  0.18232053499E+03  0.12509000000E+03 0.  0.
<mgrwt>
<rscale>  2 0.45906939E+03</rscale>
<asrwt>0</asrwt>
<pdfrwt beam="1">  1       21 0.19791251E-01 0.45906939E+03</pdfrwt>
<pdfrwt beam="2">  1       21 0.57571245E-01 0.45906939E+03</pdfrwt>
<totfact> 0.61466662E+04</totfact>
</mgrwt>
</event>
<event>
 7    0  0.4793433E-002  0.4543767E+03  0.7546771E-02  0.1026425E+00
         21   -1    0    0  502  501  0.00000000000E+00  0.00000000000E+00  0.76180076304E+03  0.76180076304E+03  0.00000000000E+00 0.  1.
         21   -1    0    0  501  502 -0.00000000000E+00 -0.00000000000E+00 -0.67753334005E+02  0.67753334005E+02  0.00000000000E+00 0.  1.
      99926    2    1    2    0    0  0.88817841970E-15 -0.35527136788E-14  0.69404742903E+03  0.82955409704E+03  0.45437667873E+03 0.  0.
      99925    2    3    3    0    0  0.68832384283E+01 -0.30490408207E+01  0.23262606207E+03  0.35141827783E+03  0.26329307932E+03 0.  0.
         25    1    4    4    0    0  0.12599283278E+02 -0.33348688047E+02  0.84524737505E+02  0.15512194005E+03  0.12509000000E+03 0.  0.
         25    1    3    3    0    0 -0.68832384283E+01  0.30490408207E+01  0.46142136696E+03  0.47813581921E+03  0.12509000000E+03 0.  0.
         25    1    4    4    0    0 -0.57160448499E+01  0.30299647226E+02  0.14810132457E+03  0.19629633779E+03  0.12509000000E+03 0.  0.
<mgrwt>
<rscale>  2 0.45437668E+03</rscale>
<asrwt>0</asrwt>
<pdfrwt beam="1">  1       21 0.11202952E+00 0.45437668E+03</pdfrwt>
<pdfrwt beam="2">  1       21 0.99637261E-02 0.45437668E+03</pdfrwt>
<totfact> 0.46595769E+04</totfact>
</mgrwt>
</event>
<event>
 7    0  0.4793433E-002  0.4547047E+03  0.7546771E-02  0.1026328E+00
         21   -1    0    0  502  501  0.00000000000E+00  0.00000000000E+00  0.92715314190E+03  0.92715314190E+03  0.00000000000E+00 0.  1.
         21   -1    0    0  501  502 -0.00000000000E+00 -0.00000000000E+00 -0.55750330079E+02  0.55750330079E+02  0.00000000000E+00 0.  1.
      99926    2    1    2    0    0  0.00000000000E+00  0.00000000000E+00  0.87140281183E+03  0.98290347198E+03  0.45470471163E+03 0.  0.
      99925    2    3    3    0    0 -0.53487678296E+02  0.57717856433E+02  0.72341623040E+03  0.77376280386E+03  0.26303146495E+03 0.  0.
         25    1    4    4    0    0 -0.44317259608E+02  0.53363499068E+02  0.46466696879E+03  0.48618369216E+03  0.12509000000E+03 0.  0.
         25    1    3    3    0    0  0.53487678296E+02 -0.57717856433E+02  0.14798658143E+03  0.20914066813E+03  0.12509000000E+03 0.  0.
         25    1    4    4    0    0 -0.91704186874E+01  0.43543573648E+01  0.25874926160E+03  0.28757911170E+03  0.12509000000E+03 0.  0.
<mgrwt>
<rscale>  2 0.45470471E+03</rscale>
<asrwt>0</asrwt>
<pdfrwt beam="1">  1       21 0.13634604E+00 0.45470471E+03</pdfrwt>
<pdfrwt beam="2">  1       21 0.81985785E-02 0.45470471E+03</pdfrwt>
<totfact> 0.39928255E+04</totfact>
</mgrwt>
</event>
<event>
 7    0  0.4793433E-002  0.4525391E+03  0.7546771E-02  0.1026968E+00
         21   -1    0    0  502  501  0.00000000000E+00  0.00000000000E+00  0.14958208064E+03  0.14958208064E+03  0.00000000000E+00 0.  1.
         21   -1    0    0  501  502 -0.00000000000E+00 -0.00000000000E+00 -0.34227296180E+03  0.34227296180E+03  0.00000000000E+00 0.  1.
      99926    2    1    2    0    0  0.00000000000E+00 -0.39968028887E-14 -0.19269088116E+03  0.49185504244E+03  0.45253906692E+03 0.  0.
      99925    2    3    3    0    0  0.10742779398E+03  0.32320400569E+01 -0.95124588158E+02  0.30023597597E+03  0.26370774921E+03 0.  0.
         25    1    4    4    0    0  0.63197559223E+02 -0.39094781820E+02 -0.49212367457E+02  0.15359589405E+03  0.12509000000E+03 0.  0.
         25    1    3    3    0    0 -0.10742779398E+03 -0.32320400569E+01 -0.97566293005E+02  0.19161906647E+03  0.12509000000E+03 0.  0.
         25    1    4    4    0    0  0.44230234757E+02  0.42326821877E+02 -0.45912220700E+02  0.14664008192E+03  0.12509000000E+03 0.  0.
<mgrwt>
<rscale>  2 0.45253907E+03</rscale>
<asrwt>0</asrwt>
<pdfrwt beam="1">  1       21 0.21997365E-01 0.45253907E+03</pdfrwt>
<pdfrwt beam="2">  1       21 0.50334259E-01 0.45253907E+03</pdfrwt>
<totfact> 0.67149033E+04</totfact>
</mgrwt>
</event>
<event>
 7    0  0.4793433E-002  0.4566976E+03  0.7546771E-02  0.1025743E+00
         21   -1    0    0  502  501  0.00000000000E+00  0.00000000000E+00  0.38456468904E+03  0.38456468904E+03  0.00000000000E+00 0. -1.
         21   -1    0    0  501  502 -0.00000000000E+00 -0.00000000000E+00 -0.13559010283E+03  0.13559010283E+03  0.00000000000E+00 0. -1.
      99926    2    1    2    0    0  0.00000000000E+00 -0.14210854715E-13  0.24897458621E+03  0.52015479188E+03  0.45669756178E+03 0.  0.
      99925    2    3    3    0    0  0.27612135765E+02 -0.78172373305E+02  0.24675769004E+03  0.37006890740E+03  0.26303666787E+03 0.  0.
         25    1    3    3    0    0 -0.27612135765E+02  0.78172373305E+02  0.22168961716E+01  0.15008588447E+03  0.12509000000E+03 0.  0.
         25    1    4    4    0    0  0.16299362030E+02 -0.75364166175E+02  0.10471385828E+03  0.18043815274E+03  0.12509000000E+03 0.  0.
         25    1    4    4    0    0  0.11312773735E+02 -0.28082071298E+01  0.14204383175E+03  0.18963075467E+03  0.12509000000E+03 0.  0.
<mgrwt>
<rscale>  2 0.45669756E+03</rscale>
<asrwt>0</asrwt>
<pdfrwt beam="1">  1       21 0.56553631E-01 0.45669756E+03</pdfrwt>
<pdfrwt beam="2">  1       21 0.19939721E-01 0.45669756E+03</pdfrwt>
<totfact> 0.63023605E+04</totfact>
</mgrwt>
</event>
<event>
 7    0  0.4793433E-002  0.4405684E+03  0.7546771E-02  0.1030573E+00
         21   -1    0    0  502  501  0.00000000000E+00  0.00000000000E+00  0.11567527678E+04  0.11567527678E+04  0.00000000000E+00 0. -1.
         21   -1    0    0  501  502 -0.00000000000E+00 -0.00000000000E+00 -0.41949443023E+02  0.41949443023E+02  0.00000000000E+00 0. -1.
      99926    2    1    2    0    0  0.71054273576E-14  0.00000000000E+00  0.11148033248E+04  0.11987022109E+04  0.44056842523E+03 0.  0.
      99925    2    3    3    0    0 -0.40566350712E+02  0.88308617957E+01  0.95568094319E+03  0.99208407670E+03  0.26302307340E+03 0.  0.
         25    1    4    4    0    0  0.14962581410E+02 -0.84631510817E+00  0.38263505702E+03  0.40284201624E+03  0.12509000000E+03 0.  0.
         25    1    4    4    0    0 -0.55528932122E+02  0.96771769038E+01  0.57304588617E+03  0.58924206046E+03  0.12509000000E+03 0.  0.
         25    1    3    3    0    0  0.40566350712E+02 -0.88308617957E+01  0.15912238163E+03  0.20661813417E+03  0.12509000000E+03 0.  0.
<mgrwt>
<rscale>  2 0.44056843E+03</rscale>
<asrwt>0</asrwt>
<pdfrwt beam="1">  1       21 0.17011068E+00 0.44056843E+03</pdfrwt>
<pdfrwt beam="2">  1       21 0.61690365E-02 0.44056843E+03</pdfrwt>
<totfact> 0.36086495E+04</totfact>
</mgrwt>
</event>
<event>
 7    0  0.4793433E-002  0.4537713E+03  0.7546771E-02  0.1026603E+00
         21   -1    0    0  502  501  0.00000000000E+00  0.00000000000E+00  0.16211321970E+04  0.16211321970E+04  0.00000000000E+00 0.  1.
         21   -1    0    0  501  502 -0.00000000000E+00 -0.00000000000E+00 -0.31753792379E+02  0.31753792379E+02  0.00000000000E+00 0.  1.
      99926    2    1    2    0    0  0.00000000000E+00  0.00000000000E+00  0.15893784046E+04  0.16528859893E+04  0.45377128689E+03 0.  0.
      99925    2    3    3    0    0 -0.11138285460E+03 -0.67206647829E+01  0.10336466593E+04  0.10724235974E+04  0.26308867014E+03 0.  0.
         25    1    3    3    0    0  0.11138285460E+03  0.67206647829E+01  0.55573174531E+03  0.58046239196E+03  0.12509000000E+03 0.  0.
         25    1    4    4    0    0 -0.12274161713E+02 -0.92132415114E+01  0.43983744415E+03  0.45753691025E+03  0.12509000000E+03 0.  0.
         25    1    4    4    0    0 -0.99108692891E+02  0.24925767285E+01  0.59380921511E+03  0.61488668712E+03  0.12509000000E+03 0.  0.
<mgrwt>
<rscale>  2 0.45377129E+03</rscale>
<asrwt>0</asrwt>
<pdfrwt beam="1">  1       21 0.23840174E+00 0.45377129E+03</pdfrwt>
<pdfrwt beam="2">  1       21 0.46696764E-02 0.45377129E+03</pdfrwt>
<totfact> 0.20455105E+04</totfact>
</mgrwt>
</event>
<event>
 7    0  0.4793433E-002  0.4532055E+03  0.7546771E-02  0.1026770E+00
         21   -1    0    0  502  501  0.00000000000E+00  0.00000000000E+00  0.82290926705E+03  0.82290926705E+03  0.00000000000E+00 0.  1.
         21   -1    0    0  501  502 -0.00000000000E+00 -0.00000000000E+00 -0.62399098124E+02  0.62399098124E+02  0.00000000000E+00 0.  1.
      99926    2    1    2    0    0  0.00000000000E+00  0.00000000000E+00  0.76051016892E+03  0.88530836517E+03  0.45320545496E+03 0.  0.
      99925    2    3    3    0    0 -0.42279263404E+02  0.80012959953E+02  0.60565939106E+03  0.66663993722E+03  0.26343101195E+03 0.  0.
         25    1    3    3    0    0  0.42279263404E+02 -0.80012959953E+02  0.15485077787E+03  0.21866842795E+03  0.12509000000E+03 0.  0.
         25    1    4    4    0    0 -0.41218512557E+02  0.29664288485E+02  0.22038910490E+03  0.25845270640E+03  0.12509000000E+03 0.  0.
         25    1    4    4    0    0 -0.10607508475E+01  0.50348671468E+02  0.38527028615E+03  0.40818723082E+03  0.12509000000E+03 0.  0.
<mgrwt>
<rscale>  2 0.45320545E+03</rscale>
<asrwt>0</asrwt>
<pdfrwt beam="1">  1       21 0.12101606E+00 0.45320545E+03</pdfrwt>
<pdfrwt beam="2">  1       21 0.91763385E-02 0.45320545E+03</pdfrwt>
<totfact> 0.44497066E+04</totfact>
</mgrwt>
</event>
<event>
 7    0  0.4793433E-002  0.4552170E+03  0.7546771E-02  0.1026178E+00
         21   -1    0    0  502  501  0.00000000000E+00  0.00000000000E+00  0.67762960413E+03  0.67762960413E+03  0.00000000000E+00 0. -1.
         21   -1    0    0  501  502 -0.00000000000E+00 -0.00000000000E+00 -0.76451265047E+02  0.76451265047E+02  0.00000000000E+00 0. -1.
      99926    2    1    2    0    0  0.14210854715E-13  0.00000000000E+00  0.60117833908E+03  0.75408086918E+03  0.45521704919E+03 0.  0.
      99925    2    3    3    0    0 -0.89105499720E+02 -0.67668552251E+02  0.40750103018E+03  0.49780517558E+03  0.26312369752E+03 0.  0.
         25    1    3    3    0    0  0.89105499720E+02  0.67668552251E+02  0.19367730891E+03  0.25627569360E+03  0.12509000000E+03 0.  0.
         25    1    4    4    0    0 -0.67929532104E+02 -0.67238015816E+02  0.25177479772E+03  0.29694011007E+03  0.12509000000E+03 0.  0.
         25    1    4    4    0    0 -0.21175967617E+02 -0.43053643527E+00  0.15572623246E+03  0.20086506551E+03  0.12509000000E+03 0.  0.
<mgrwt>
<rscale>  2 0.45521705E+03</rscale>
<asrwt>0</asrwt>
<pdfrwt beam="1">  1       21 0.99651409E-01 0.45521705E+03</pdfrwt>
<pdfrwt beam="2">  1       21 0.11242833E-01 0.45521705E+03</pdfrwt>
<totfact> 0.49977852E+04</totfact>
</mgrwt>
</event>
<event>
 7    0  0.4793433E-002  0.4565090E+03  0.7546771E-02  0.1025799E+00
         21   -1    0    0  502  501  0.00000000000E+00  0.00000000000E+00  0.97488659701E+02  0.97488659701E+02  0.00000000000E+00 0. -1.
         21   -1    0    0  501  502 -0.00000000000E+00 -0.00000000000E+00 -0.53442225638E+03  0.53442225638E+03  0.00000000000E+00 0. -1.
      99926    2    1    2    0    0  0.00000000000E+00  0.00000000000E+00 -0.43693359668E+03  0.63191091608E+03  0.45650896810E+03 0.  0.
      99925    2    3    3    0    0 -0.82916510807E+02 -0.49029274354E+02 -0.18876644367E+03  0.33777920844E+03  0.26302662582E+03 0.  0.
         25    1    4    4    0    0 -0.11381342021E+02 -0.35122560902E+02 -0.12109734355E+03  0.17797529027E+03  0.12509000000E+03 0.  0.
         25    1    3    3    0    0  0.82916510807E+02  0.49029274354E+02 -0.24816715300E+03  0.29413170764E+03  0.12509000000E+03 0.  0.
         25    1    4    4    0    0 -0.71535168786E+02 -0.13906713452E+02 -0.67669100120E+02  0.15980391817E+03  0.12509000000E+03 0.  0.
<mgrwt>
<rscale>  2 0.45650897E+03</rscale>
<asrwt>0</asrwt>
<pdfrwt beam="1">  1       21 0.14336567E-01 0.45650897E+03</pdfrwt>
<pdfrwt beam="2">  1       21 0.78591509E-01 0.45650897E+03</pdfrwt>
<totfact> 0.56084793E+04</totfact>
</mgrwt>
</event>
<event>
 7    0  0.4793433E-002  0.4587025E+03  0.7546771E-02  0.1025158E+00
         21   -1    0    0  502  501  0.00000000000E+00  0.00000000000E+00  0.44270604332E+02  0.44270604332E+02  0.00000000000E+00 0. -1.
         21   -1    0    0  501  502 -0.00000000000E+00 -0.00000000000E+00 -0.11881922384E+04  0.11881922384E+04  0.00000000000E+00 0. -1.
      99926    2    1    2    0    0 -0.14210854715E-13  0.00000000000E+00 -0.11439216341E+04  0.12324628427E+04  0.45870246765E+03 0.  0.
      99925    2    3    3    0    0  0.10199671833E+03 -0.16801511636E+02 -0.86183649879E+03  0.90703212355E+03  0.26317199920E+03 0.  0.
         25    1    4    4    0    0  0.19310350451E+02 -0.30496864852E+02 -0.34665075498E+03  0.37029340047E+03  0.12509000000E+03 0.  0.
         25    1    4    4    0    0  0.82686367877E+02  0.13695353216E+02 -0.51518574381E+03  0.53673872309E+03  0.12509000000E+03 0.  0.
         25    1    3    3    0    0 -0.10199671833E+03  0.16801511636E+02 -0.28208513527E+03  0.32543071918E+03  0.12509000000E+03 0.  0.
<mgrwt>
<rscale>  2 0.45870247E+03</rscale>
<asrwt>0</asrwt>
<pdfrwt beam="1">  1       21 0.65103832E-02 0.45870247E+03</pdfrwt>
<pdfrwt beam="2">  1       21 0.17473415E+00 0.45870247E+03</pdfrwt>
<totfact> 0.30259206E+04</totfact>
</mgrwt>
</event>
<event>
 7    0  0.4793433E-002  0.4504021E+03  0.7546771E-02  0.1027602E+00
         21   -1    0    0  502  501  0.00000000000E+00  0.00000000000E+00  0.73654098485E+02  0.73654098485E+02  0.00000000000E+00 0. -1.
         21   -1    0    0  501  502 -0.00000000000E+00 -0.00000000000E+00 -0.68856345437E+03  0.68856345437E+03  0.00000000000E+00 0. -1.
      99926    2    1    2    0    0  0.00000000000E+00  0.00000000000E+00 -0.61490935589E+03  0.76221755286E+03  0.45040213357E+03 0.  0.
      99925    2    3    3    0    0 -0.10072016823E+03 -0.39223509979E+02 -0.36599103283E+03  0.46340176399E+03  0.26288537946E+03 0.  0.
         25    1    3    3    0    0  0.10072016823E+03  0.39223509979E+02 -0.24891832306E+03  0.29881578887E+03  0.12509000000E+03 0.  0.
         25    1    4    4    0    0 -0.10872738813E+02 -0.20903353085E+02 -0.19147536318E+03  0.22992496477E+03  0.12509000000E+03 0.  0.
         25    1    4    4    0    0 -0.89847429412E+02 -0.18320156895E+02 -0.17451566965E+03  0.23347679922E+03  0.12509000000E+03 0.  0.
<mgrwt>
<rscale>  2 0.45040213E+03</rscale>
<asrwt>0</asrwt>
<pdfrwt beam="1">  1       21 0.10831485E-01 0.45040213E+03</pdfrwt>
<pdfrwt beam="2">  1       21 0.10125933E+00 0.45040213E+03</pdfrwt>
<totfact> 0.51479588E+04</totfact>
</mgrwt>
</event>
<event>
 7    0  0.4793433E-002  0.4696291E+03  0.7546771E-02  0.1022025E+00
         21   -1    0    0  502  501  0.00000000000E+00  0.00000000000E+00  0.15587276339E+03  0.15587276339E+03  0.00000000000E+00 0. -1.
         21   -1    0    0  501  502 -0.00000000000E+00 -0.00000000000E+00 -0.35373640753E+03  0.35373640753E+03  0.00000000000E+00 0. -1.
      99926    2    1    2    0    0 -0.14210854715E-13  0.00000000000E+00 -0.19786364414E+03  0.50960917092E+03  0.46962909345E+03 0.  0.
      99925    2    3    3    0    0 -0.11173093967E+03  0.31897014092E+02 -0.17706274612E+03  0.33761670642E+03  0.26293079318E+03 0.  0.
         25    1    3    3    0    0  0.11173093967E+03 -0.31897014092E+02 -0.20800898028E+02  0.17199246450E+03  0.12509000000E+03 0.  0.
         25    1    4    4    0    0 -0.68140329888E+02  0.52084305901E+02 -0.11274160838E+03  0.18898163360E+03  0.12509000000E+03 0.  0.
         25    1    4    4    0    0 -0.43590609783E+02 -0.20187291809E+02 -0.64321137738E+02  0.14863507282E+03  0.12509000000E+03 0.  0.
<mgrwt>
<rscale>  2 0.46962909E+03</rscale>
<asrwt>0</asrwt>
<pdfrwt beam="1">  1       21 0.22922465E-01 0.46962909E+03</pdfrwt>
<pdfrwt beam="2">  1       21 0.52020060E-01 0.46962909E+03</pdfrwt>
<totfact> 0.57614080E+04</totfact>
</mgrwt>
</event>
<event>
 7    0  0.4793433E-002  0.4547556E+03  0.7546771E-02  0.1026313E+00
         21   -1    0    0  502  501  0.00000000000E+00  0.00000000000E+00  0.23038033521E+03  0.23038033521E+03  0.00000000000E+00 0.  1.
         21   -1    0    0  501  502 -0.00000000000E+00 -0.00000000000E+00 -0.22441444367E+03  0.22441444367E+03  0.00000000000E+00 0.  1.
      99926    2    1    2    0    0  0.00000000000E+00  0.00000000000E+00  0.59658915383E+01  0.45479477887E+03  0.45475564761E+03 0.  0.
      99925    2    3    3    0    0  0.30592561328E+02 -0.48283757923E+02  0.10113476764E+03  0.28754691143E+03  0.26303566100E+03 0.  0.
         25    1    4    4    0    0 -0.96500035935E+01 -0.23638631621E+02  0.15093994796E+02  0.12855833016E+03  0.12509000000E+03 0.  0.
         25    1    3    3    0    0 -0.30592561328E+02  0.48283757923E+02 -0.95168876100E+02  0.16724786745E+03  0.12509000000E+03 0.  0.
         25    1    4    4    0    0  0.40242564922E+02 -0.24645126302E+02  0.86040772843E+02  0.15898858127E+03  0.12509000000E+03 0.  0.
<mgrwt>
<rscale>  2 0.45475565E+03</rscale>
<asrwt>0</asrwt>
<pdfrwt beam="1">  1       21 0.33879461E-01 0.45475565E+03</pdfrwt>
<pdfrwt beam="2">  1       21 0.33002124E-01 0.45475565E+03</pdfrwt>
<totfact> 0.68694664E+04</totfact>
</mgrwt>
</event>
<event>
 7    0  0.4793433E-002  0.4496542E+03  0.7546771E-02  0.1027825E+00
         21   -1    0    0  502  501  0.00000000000E+00  0.00000000000E+00  0.62990293375E+03  0.62990293375E+03  0.00000000000E+00 0. -1.
         21   -1    0    0  501  502 -0.00000000000E+00 -0.00000000000E+00 -0.80246058568E+02  0.80246058568E+02  0.00000000000E+00 0. -1.
      99926    2    1    2    0    0  0.00000000000E+00  0.35527136788E-14  0.54965687518E+03  0.71014899232E+03  0.44965421254E+03 0.  0.
      99925    2    3    3    0    0  0.47829354360E+02 -0.13115290859E+02  0.19585652151E+03  0.33162309314E+03  0.26297231963E+03 0.  0.
         25    1    4    4    0    0  0.18095745183E+02  0.21815720770E+02  0.60922142334E+02  0.14199435620E+03  0.12509000000E+03 0.  0.
         25    1    4    4    0    0  0.29733609177E+02 -0.34931011629E+02  0.13493437918E+03  0.18962873694E+03  0.12509000000E+03 0.  0.
         25    1    3    3    0    0 -0.47829354360E+02  0.13115290859E+02  0.35380035367E+03  0.37852589918E+03  0.12509000000E+03 0.  0.
<mgrwt>
<rscale>  2 0.44965421E+03</rscale>
<asrwt>0</asrwt>
<pdfrwt beam="1">  1       21 0.92632782E-01 0.44965421E+03</pdfrwt>
<pdfrwt beam="2">  1       21 0.11800891E-01 0.44965421E+03</pdfrwt>
<totfact> 0.54616488E+04</totfact>
</mgrwt>
</event>
<event>
 7    0  0.4793433E-002  0.4484621E+03  0.7546771E-02  0.1028182E+00
         21   -1    0    0  502  501  0.00000000000E+00  0.00000000000E+00  0.18931117133E+03  0.18931117133E+03  0.00000000000E+00 0. -1.
         21   -1    0    0  501  502 -0.00000000000E+00 -0.00000000000E+00 -0.26559216799E+03  0.26559216799E+03  0.00000000000E+00 0. -1.
      99926    2    1    2    0    0  0.00000000000E+00  0.00000000000E+00 -0.76280996660E+02  0.45490333932E+03  0.44846210283E+03 0.  0.
      99925    2    3    3    0    0 -0.10262212563E+03  0.17133123900E+02 -0.23316625490E+02  0.28379642153E+03  0.26300551182E+03 0.  0.
         25    1    4    4    0    0 -0.58818514851E+02  0.45565240925E+02 -0.27768576241E+02  0.14817020887E+03  0.12509000000E+03 0.  0.
         25    1    4    4    0    0 -0.43803610774E+02 -0.28432117025E+02  0.44519507511E+01  0.13562621266E+03  0.12509000000E+03 0.  0.
         25    1    3    3    0    0  0.10262212563E+03 -0.17133123900E+02 -0.52964371170E+02  0.17110691779E+03  0.12509000000E+03 0.  0.
<mgrwt>
<rscale>  2 0.44846210E+03</rscale>
<asrwt>0</asrwt>
<pdfrwt beam="1">  1       21 0.27839878E-01 0.44846210E+03</pdfrwt>
<pdfrwt beam="2">  1       21 0.39057672E-01 0.44846210E+03</pdfrwt>
<totfact> 0.72247333E+04</totfact>
</mgrwt>
</event>
<event>
 7    0  0.4793433E-002  0.4514340E+03  0.7546771E-02  0.1027295E+00
         21   -1    0    0  502  501  0.00000000000E+00  0.00000000000E+00  0.18727812389E+03  0.18727812389E+03  0.00000000000E+00 0.  1.
         21   -1    0    0  501  502 -0.00000000000E+00 -0.00000000000E+00 -0.27204549163E+03  0.27204549163E+03  0.00000000000E+00 0.  1.
      99926    2    1    2    0    0  0.00000000000E+00  0.00000000000E+00 -0.84767367736E+02  0.45932361552E+03  0.45143402303E+03 0.  0.
      99925    2    3    3    0    0 -0.32015339982E+02  0.67360247867E+02  0.27087606724E+02  0.27568966333E+03  0.26402398952E+03 0.  0.
         25    1    3    3    0    0  0.32015339982E+02 -0.67360247867E+02 -0.11185497446E+03  0.18363395219E+03  0.12509000000E+03 0.  0.
         25    1    4    4    0    0 -0.49079097950E+02  0.55694174066E+02 -0.25692746687E+01  0.14548095461E+03  0.12509000000E+03 0.  0.
         25    1    4    4    0    0  0.17063757967E+02  0.11666073801E+02  0.29656881393E+02  0.13020870873E+03  0.12509000000E+03 0.  0.
<mgrwt>
<rscale>  2 0.45143402E+03</rscale>
<asrwt>0</asrwt>
<pdfrwt beam="1">  1       21 0.27540900E-01 0.45143402E+03</pdfrwt>
<pdfrwt beam="2">  1       21 0.40006690E-01 0.45143402E+03</pdfrwt>
<totfact> 0.70202647E+04</totfact>
</mgrwt>
</event>
<event>
 7    0  0.4793433E-002  0.4551298E+03  0.7546771E-02  0.1026203E+00
         21   -1    0    0  502  501  0.00000000000E+00  0.00000000000E+00  0.37585604085E+03  0.37585604085E+03  0.00000000000E+00 0.  1.
         21   -1    0    0  501  502 -0.00000000000E+00 -0.00000000000E+00 -0.13778088952E+03  0.13778088952E+03  0.00000000000E+00 0.  1.
      99926    2    1    2    0    0 -0.14210854715E-13 -0.71054273576E-14  0.23807515134E+03  0.51363693037E+03  0.45512978210E+03 0.  0.
      99925    2    3    3    0    0  0.90720313135E+02  0.39055618031E+02  0.87096100693E+02  0.29409718830E+03  0.26296750539E+03 0.  0.
         25    1    4    4    0    0  0.22115179411E+02 -0.96650335837E+01  0.19507529589E+02  0.12888190659E+03  0.12509000000E+03 0.  0.
         25    1    4    4    0    0  0.68605133724E+02  0.48720651614E+02  0.67588571105E+02  0.16521528171E+03  0.12509000000E+03 0.  0.
         25    1    3    3    0    0 -0.90720313135E+02 -0.39055618031E+02  0.15097905065E+03  0.21953974207E+03  0.12509000000E+03 0.  0.
<mgrwt>
<rscale>  2 0.45512978E+03</rscale>
<asrwt>0</asrwt>
<pdfrwt beam="1">  1       21 0.55272947E-01 0.45512978E+03</pdfrwt>
<pdfrwt beam="2">  1       21 0.20261895E-01 0.45512978E+03</pdfrwt>
<totfact> 0.64256655E+04</totfact>
</mgrwt>
</event>
<event>
 7    0  0.4793433E-002  0.4587095E+03  0.7546771E-02  0.1025156E+00
         21   -1    0    0  502  501  0.00000000000E+00  0.00000000000E+00  0.51976806491E+02  0.51976806491E+02  0.00000000000E+00 0.  1.
         21   -1    0    0  501  502 -0.00000000000E+00 -0.00000000000E+00 -0.10120590674E+04  0.10120590674E+04  0.00000000000E+00 0.  1.
      99926    2    1    2    0    0  0.35527136788E-14  0.00000000000E+00 -0.96008226087E+03  0.10640358739E+04  0.45870948672E+03 0.  0.
      99925    2    3    3    0    0 -0.13133628995E+02  0.60020868950E+02 -0.37261687637E+03  0.46026598142E+03  0.26310917920E+03 0.  0.
         25    1    3    3    0    0  0.13133628995E+02 -0.60020868950E+02 -0.58746538451E+03  0.60376989244E+03  0.12509000000E+03 0.  0.
         25    1    4    4    0    0 -0.38671784963E+02  0.43500500646E+02 -0.22941284912E+03  0.26770424716E+03  0.12509000000E+03 0.  0.
         25    1    4    4    0    0  0.25538155968E+02  0.16520368304E+02 -0.14320402725E+03  0.19256173426E+03  0.12509000000E+03 0.  0.
<mgrwt>
<rscale>  2 0.45870949E+03</rscale>
<asrwt>0</asrwt>
<pdfrwt beam="1">  1       21 0.76436486E-02 0.45870949E+03</pdfrwt>
<pdfrwt beam="2">  1       21 0.14883220E+00 0.45870949E+03</pdfrwt>
<totfact> 0.35721192E+04</totfact>
</mgrwt>
</event>
<event>
 7    0  0.4793433E-002  0.4635288E+03  0.7546771E-02  0.1023763E+00
         21   -1    0    0  502  501  0.00000000000E+00  0.00000000000E+00  0.25747413979E+04  0.25747413979E+04  0.00000000000E+00 0.  1.
         21   -1    0    0  501  502 -0.00000000000E+00 -0.00000000000E+00 -0.20862189046E+02  0.20862189046E+02  0.00000000000E+00 0.  1.
      99926    2    1    2    0    0  0.00000000000E+00 -0.35527136788E-14  0.25538792089E+04  0.25956035870E+04  0.46352882020E+03 0.  0.
      99925    2    3    3    0    0  0.48379843968E+02  0.30647686393E+02  0.99668649352E+03  0.10323452747E+04  0.26281725566E+03 0.  0.
         25    1    4    4    0    0  0.24071289996E+02 -0.25145785091E+02  0.48920476233E+03  0.50614281097E+03  0.12509000000E+03 0.  0.
         25    1    4    4    0    0  0.24308553972E+02  0.55793471484E+02  0.50748173119E+03  0.52620246374E+03  0.12509000000E+03 0.  0.
         25    1    3    3    0    0 -0.48379843968E+02 -0.30647686393E+02  0.15571927154E+04  0.15632583123E+04  0.12509000000E+03 0.  0.
<mgrwt>
<rscale>  2 0.46352882E+03</rscale>
<asrwt>0</asrwt>
<pdfrwt beam="1">  1       21 0.37863822E+00 0.46352882E+03</pdfrwt>
<pdfrwt beam="2">  1       21 0.30679708E-02 0.46352882E+03</pdfrwt>
<totfact> 0.58075256E+03</totfact>
</mgrwt>
</event>
<event>
 7    0  0.4793433E-002  0.4588821E+03  0.7546771E-02  0.1025106E+00
         21   -1    0    0  502  501  0.00000000000E+00  0.00000000000E+00  0.51222117443E+03  0.51222117443E+03  0.00000000000E+00 0.  1.
         21   -1    0    0  501  502 -0.00000000000E+00 -0.00000000000E+00 -0.10277433125E+03  0.10277433125E+03  0.00000000000E+00 0.  1.
      99926    2    1    2    0    0  0.00000000000E+00  0.00000000000E+00  0.40944684319E+03  0.61499550568E+03  0.45888207048E+03 0.  0.
      99925    2    3    3    0    0  0.48116381239E+02 -0.27101827521E+02  0.39491502723E+03  0.47748777145E+03  0.26265376059E+03 0.  0.
         25    1    3    3    0    0 -0.48116381239E+02  0.27101827521E+02  0.14531815957E+02  0.13750773423E+03  0.12509000000E+03 0.  0.
         25    1    4    4    0    0  0.59894886428E+02 -0.31679598038E+02  0.22273410950E+03  0.26428958736E+03  0.12509000000E+03 0.  0.
         25    1    4    4    0    0 -0.11778505190E+02  0.45777705169E+01  0.17218091774E+03  0.21319818409E+03  0.12509000000E+03 0.  0.
<mgrwt>
<rscale>  2 0.45888207E+03</rscale>
<asrwt>0</asrwt>
<pdfrwt beam="1">  1       21 0.75326642E-01 0.45888207E+03</pdfrwt>
<pdfrwt beam="2">  1       21 0.15113873E-01 0.45888207E+03</pdfrwt>
<totfact> 0.56026959E+04</totfact>
</mgrwt>
</event>
<event>
 7    0  0.4793433E-002  0.4571235E+03  0.7546771E-02  0.1025619E+00
         21   -1    0    0  502  501  0.00000000000E+00  0.00000000000E+00  0.13906926472E+03  0.13906926472E+03  0.00000000000E+00 0. -1.
         21   -1    0    0  501  502 -0.00000000000E+00 -0.00000000000E+00 -0.37564364092E+03  0.37564364092E+03  0.00000000000E+00 0. -1.
      99926    2    1    2    0    0  0.00000000000E+00  0.00000000000E+00 -0.23657437619E+03  0.51471290564E+03  0.45712354978E+03 0.  0.
      99925    2    3    3    0    0  0.52428293422E+02 -0.73264801052E+02 -0.67829053205E+02  0.28615449045E+03  0.26299649222E+03 0.  0.
         25    1    4    4    0    0 -0.13691673606E+02 -0.23511273443E+02 -0.31786745850E+02  0.13190203644E+03  0.12509000000E+03 0.  0.
         25    1    4    4    0    0  0.66119967028E+02 -0.49753527609E+02 -0.36042307355E+02  0.15425245401E+03  0.12509000000E+03 0.  0.
         25    1    3    3    0    0 -0.52428293422E+02  0.73264801052E+02 -0.16874532299E+03  0.22855841519E+03  0.12509000000E+03 0.  0.
<mgrwt>
<rscale>  2 0.45712355E+03</rscale>
<asrwt>0</asrwt>
<pdfrwt beam="1">  1       21 0.20451362E-01 0.45712355E+03</pdfrwt>
<pdfrwt beam="2">  1       21 0.55241713E-01 0.45712355E+03</pdfrwt>
<totfact> 0.63177552E+04</totfact>
</mgrwt>
</event>
<event>
 7    0  0.4793433E-002  0.4420701E+03  0.7546771E-02  0.1030114E+00
         21   -1    0    0  502  501  0.00000000000E+00  0.00000000000E+00  0.34831587419E+03  0.34831587419E+03  0.00000000000E+00 0.  1.
         21   -1    0    0  501  502 -0.00000000000E+00 -0.00000000000E+00 -0.14026493017E+03  0.14026493017E+03  0.00000000000E+00 0.  1.
      99926    2    1    2    0    0 -0.17763568394E-14  0.17763568394E-14  0.20805094402E+03  0.48858080437E+03  0.44207013820E+03 0.  0.
      99925    2    3    3    0    0 -0.86974089730E+01  0.59764878543E+01  0.24254520518E+03  0.35839353355E+03  0.26364063610E+03 0.  0.
         25    1    4    4    0    0  0.16936164326E+02  0.37780158130E+02  0.13235128724E+03  0.18675798603E+03  0.12509000000E+03 0.  0.
         25    1    3    3    0    0  0.86974089730E+01 -0.59764878543E+01 -0.34494261160E+02  0.13018727082E+03  0.12509000000E+03 0.  0.
         25    1    4    4    0    0 -0.25633573300E+02 -0.31803670275E+02  0.11019391794E+03  0.17163554752E+03  0.12509000000E+03 0.  0.
<mgrwt>
<rscale>  2 0.44207014E+03</rscale>
<asrwt>0</asrwt>
<pdfrwt beam="1">  1       21 0.51222922E-01 0.44207014E+03</pdfrwt>
<pdfrwt beam="2">  1       21 0.20627196E-01 0.44207014E+03</pdfrwt>
<totfact> 0.73322485E+04</totfact>
</mgrwt>
</event>
<event>
 7    0  0.4793433E-002  0.4482112E+03  0.7546771E-02  0.1028257E+00
         21   -1    0    0  502  501  0.00000000000E+00  0.00000000000E+00  0.19243098419E+02  0.19243098419E+02  0.00000000000E+00 0.  1.
         21   -1    0    0  501  502 -0.00000000000E+00 -0.00000000000E+00 -0.26099394801E+04  0.26099394801E+04  0.00000000000E+00 0.  1.
      99926    2    1    2    0    0  0.00000000000E+00  0.35527136788E-14 -0.25906963817E+04  0.26291825786E+04  0.44821121041E+03 0.  0.
      99925    2    3    3    0    0  0.59486850911E+02 -0.26660793702E+02 -0.11449705453E+04  0.11765917258E+04  0.26298489737E+03 0.  0.
         25    1    3    3    0    0 -0.59486850911E+02  0.26660793702E+02 -0.14457258364E+04  0.14525908527E+04  0.12509000000E+03 0.  0.
         25    1    4    4    0    0  0.56808754081E+02  0.16887347209E+02 -0.59560283277E+03  0.61147580454E+03  0.12509000000E+03 0.  0.
         25    1    4    4    0    0  0.26780968302E+01 -0.43548140911E+02 -0.54936771255E+03  0.56511592127E+03  0.12509000000E+03 0.  0.
<mgrwt>
<rscale>  2 0.44821121E+03</rscale>
<asrwt>0</asrwt>
<pdfrwt beam="1">  1       21 0.28298667E-02 0.44821121E+03</pdfrwt>
<pdfrwt beam="2">  1       21 0.38381472E+00 0.44821121E+03</pdfrwt>
<totfact> 0.62202136E+03</totfact>
</mgrwt>
</event>
<event>
 7    0  0.4793433E-002  0.4571398E+03  0.7546771E-02  0.1025614E+00
         21   -1    0    0  502  501  0.00000000000E+00  0.00000000000E+00  0.49318032653E+02  0.49318032653E+02  0.00000000000E+00 0. -1.
         21   -1    0    0  501  502 -0.00000000000E+00 -0.00000000000E+00 -0.10593326078E+04  0.10593326078E+04  0.00000000000E+00 0. -1.
      99926    2    1    2    0    0  0.00000000000E+00  0.35527136788E-14 -0.10100145751E+04  0.11086506404E+04  0.45713980417E+03 0.  0.
      99925    2    3    3    0    0  0.59762905425E+02 -0.63193694125E+01 -0.39569700172E+03  0.47885295197E+03  0.26289255057E+03 0.  0.
         25    1    4    4    0    0  0.47073389179E+02  0.27387713662E+02 -0.23840813093E+03  0.27468515763E+03  0.12509000000E+03 0.  0.
         25    1    4    4    0    0  0.12689516246E+02 -0.33707083074E+02 -0.15728887079E+03  0.20416779434E+03  0.12509000000E+03 0.  0.
         25    1    3    3    0    0 -0.59762905425E+02  0.63193694125E+01 -0.61431757340E+03  0.62979768845E+03  0.12509000000E+03 0.  0.
<mgrwt>
<rscale>  2 0.45713980E+03</rscale>
<asrwt>0</asrwt>
<pdfrwt beam="1">  1       21 0.72526527E-02 0.45713980E+03</pdfrwt>
<pdfrwt beam="2">  1       21 0.15578419E+00 0.45713980E+03</pdfrwt>
<totfact> 0.34612098E+04</totfact>
</mgrwt>
</event>
<event>
 7    0  0.4793433E-002  0.4627750E+03  0.7546771E-02  0.1023979E+00
         21   -1    0    0  502  501  0.00000000000E+00  0.00000000000E+00  0.75340112921E+03  0.75340112921E+03  0.00000000000E+00 0. -1.
         21   -1    0    0  501  502 -0.00000000000E+00 -0.00000000000E+00 -0.71064640548E+02  0.71064640548E+02  0.00000000000E+00 0. -1.
      99926    2    1    2    0    0 -0.71054273576E-14 -0.14210854715E-13  0.68233648867E+03  0.82446576976E+03  0.46277502282E+03 0.  0.
      99925    2    3    3    0    0 -0.37389060683E+02 -0.11087585476E+03  0.37627864595E+03  0.47373751567E+03  0.26296428908E+03 0.  0.
         25    1    4    4    0    0 -0.97329281768E+01 -0.36519707929E+02  0.23582180865E+03  0.26960684801E+03  0.12509000000E+03 0.  0.
         25    1    3    3    0    0  0.37389060683E+02  0.11087585476E+03  0.30605784272E+03  0.35072825409E+03  0.12509000000E+03 0.  0.
         25    1    4    4    0    0 -0.27656132506E+02 -0.74356146832E+02  0.14045683729E+03  0.20413066766E+03  0.12509000000E+03 0.  0.
<mgrwt>
<rscale>  2 0.46277502E+03</rscale>
<asrwt>0</asrwt>
<pdfrwt beam="1">  1       21 0.11079428E+00 0.46277502E+03</pdfrwt>
<pdfrwt beam="2">  1       21 0.10450683E-01 0.46277502E+03</pdfrwt>
<totfact> 0.43866128E+04</totfact>
</mgrwt>
</event>
<event>
 7    0  0.4793433E-002  0.4508986E+03  0.7546771E-02  0.1027454E+00
         21   -1    0    0  502  501  0.00000000000E+00  0.00000000000E+00  0.30113794389E+03  0.30113794389E+03  0.00000000000E+00 0. -1.
         21   -1    0    0  501  502 -0.00000000000E+00 -0.00000000000E+00 -0.16878437180E+03  0.16878437180E+03  0.00000000000E+00 0. -1.
      99926    2    1    2    0    0 -0.35527136788E-14 -0.17763568394E-14  0.13235357209E+03  0.46992231569E+03  0.45089856370E+03 0.  0.
      99925    2    3    3    0    0  0.20955316432E+02  0.13104319412E+02 -0.27387981788E+02  0.26553121851E+03  0.26295603812E+03 0.  0.
         25    1    4    4    0    0  0.11233590288E+02 -0.19238409233E+02  0.17820464326E+02  0.12830193681E+03  0.12509000000E+03 0.  0.
         25    1    4    4    0    0  0.97217261441E+01  0.32342728645E+02 -0.45208446114E+02  0.13722928170E+03  0.12509000000E+03 0.  0.
         25    1    3    3    0    0 -0.20955316432E+02 -0.13104319412E+02  0.15974155387E+03  0.20439109718E+03  0.12509000000E+03 0.  0.
<mgrwt>
<rscale>  2 0.45089856E+03</rscale>
<asrwt>0</asrwt>
<pdfrwt beam="1">  1       21 0.44284992E-01 0.45089856E+03</pdfrwt>
<pdfrwt beam="2">  1       21 0.24821231E-01 0.45089856E+03</pdfrwt>
<totfact> 0.69681599E+04</totfact>
</mgrwt>
</event>
<event>
 7    0  0.4793433E-002  0.4470090E+03  0.7546771E-02  0.1028618E+00
         21   -1    0    0  502  501  0.00000000000E+00  0.00000000000E+00  0.54447005373E+03  0.54447005373E+03  0.00000000000E+00 0. -1.
         21   -1    0    0  501  502 -0.00000000000E+00 -0.00000000000E+00 -0.91748413912E+02  0.91748413912E+02  0.00000000000E+00 0. -1.
      99926    2    1    2    0    0  0.00000000000E+00  0.00000000000E+00  0.45272163982E+03  0.63621846765E+03  0.44700901044E+03 0.  0.
      99925    2    3    3    0    0  0.55256950116E+02 -0.18326627187E+01  0.41489238916E+03  0.49431973793E+03  0.26298216582E+03 0.  0.
         25    1    4    4    0    0  0.46569636395E+00 -0.92252601614E+00  0.14255332110E+03  0.18965765311E+03  0.12509000000E+03 0.  0.
         25    1    3    3    0    0 -0.55256950116E+02  0.18326627187E+01  0.37829250665E+02  0.14189872971E+03  0.12509000000E+03 0.  0.
         25    1    4    4    0    0  0.54791253752E+02 -0.91013670252E+00  0.27233906805E+03  0.30466208482E+03  0.12509000000E+03 0.  0.
<mgrwt>
<rscale>  2 0.44700901E+03</rscale>
<asrwt>0</asrwt>
<pdfrwt beam="1">  1       21 0.80069124E-01 0.44700901E+03</pdfrwt>
<pdfrwt beam="2">  1       21 0.13492414E-01 0.44700901E+03</pdfrwt>
<totfact> 0.60210803E+04</totfact>
</mgrwt>
</event>
<event>
 7    0  0.4793433E-002  0.4393409E+03  0.7546771E-02  0.1030949E+00
         21   -1    0    0  502  501  0.00000000000E+00  0.00000000000E+00  0.81189620005E+03  0.81189620005E+03  0.00000000000E+00 0.  1.
         21   -1    0    0  501  502 -0.00000000000E+00 -0.00000000000E+00 -0.59435065297E+02  0.59435065297E+02  0.00000000000E+00 0.  1.
      99926    2    1    2    0    0  0.00000000000E+00  0.71054273576E-14  0.75246113476E+03  0.87133126535E+03  0.43934088662E+03 0.  0.
      99925    2    3    3    0    0  0.73343791811E+02  0.58351003346E+02  0.42574939414E+03  0.50915420790E+03  0.26304240993E+03 0.  0.
         25    1    4    4    0    0  0.22459011837E+02  0.45323022552E+02  0.14948939777E+03  0.20137818087E+03  0.12509000000E+03 0.  0.
         25    1    4    4    0    0  0.50884779974E+02  0.13027980793E+02  0.27625999637E+03  0.30777602702E+03  0.12509000000E+03 0.  0.
         25    1    3    3    0    0 -0.73343791811E+02 -0.58351003346E+02  0.32671174062E+03  0.36217705745E+03  0.12509000000E+03 0.  0.
<mgrwt>
<rscale>  2 0.43934089E+03</rscale>
<asrwt>0</asrwt>
<pdfrwt beam="1">  1       21 0.11939649E+00 0.43934089E+03</pdfrwt>
<pdfrwt beam="2">  1       21 0.87404512E-02 0.43934089E+03</pdfrwt>
<totfact> 0.50398869E+04</totfact>
</mgrwt>
</event>
<event>
 7    0  0.4793433E-002  0.4558799E+03  0.7546771E-02  0.1025983E+00
         21   -1    0    0  502  501  0.00000000000E+00  0.00000000000E+00  0.10761211205E+03  0.10761211205E+03  0.00000000000E+00 0.  1.
         21   -1    0    0  501  502 -0.00000000000E+00 -0.00000000000E+00 -0.48281384276E+03  0.48281384276E+03  0.00000000000E+00 0.  1.
      99926    2    1    2    0    0 -0.88817841970E-15  0.00000000000E+00 -0.37520173070E+03  0.59042595481E+03  0.45587988483E+03 0.  0.
      99925    2    3    3    0    0  0.50278365732E+01  0.32410679724E+01 -0.38310880230E+03  0.46494363118E+03  0.26337130085E+03 0.  0.
         25    1    4    4    0    0  0.21317377880E+02 -0.73763343166E+01 -0.12928875124E+03  0.18130617807E+03  0.12509000000E+03 0.  0.
         25    1    4    4    0    0 -0.16289541307E+02  0.10617402289E+02 -0.25382005106E+03  0.28363745311E+03  0.12509000000E+03 0.  0.
         25    1    3    3    0    0 -0.50278365732E+01 -0.32410679724E+01  0.79070716035E+01  0.12548232363E+03  0.12509000000E+03 0.  0.
<mgrwt>
<rscale>  2 0.45587988E+03</rscale>
<asrwt>0</asrwt>
<pdfrwt beam="1">  1       21 0.15825310E-01 0.45587988E+03</pdfrwt>
<pdfrwt beam="2">  1       21 0.71002036E-01 0.45587988E+03</pdfrwt>
<totfact> 0.58861080E+04</totfact>
</mgrwt>
</event>
<event>
 7    0  0.4793433E-002  0.4447457E+03  0.7546771E-02  0.1029301E+00
         21   -1    0    0  502  501  0.00000000000E+00  0.00000000000E+00  0.63138921290E+03  0.63138921290E+03  0.00000000000E+00 0.  1.
         21   -1    0    0  501  502 -0.00000000000E+00 -0.00000000000E+00 -0.78318870765E+02  0.78318870765E+02  0.00000000000E+00 0.  1.
      99926    2    1    2    0    0  0.00000000000E+00  0.00000000000E+00  0.55307034213E+03  0.70970808366E+03  0.44474572586E+03 0.  0.
      99925    2    3    3    0    0  0.55643266380E+02 -0.10498416145E+01  0.21236574131E+03  0.34252364992E+03  0.26291817627E+03 0.  0.
         25    1    3    3    0    0 -0.55643266380E+02  0.10498416145E+01  0.34070460083E+03  0.36718443375E+03  0.12509000000E+03 0.  0.
         25    1    4    4    0    0  0.51954543526E+02 -0.54649304628E+01  0.68800862735E+02  0.15202041597E+03  0.12509000000E+03 0.  0.
         25    1    4    4    0    0  0.36887228542E+01  0.44150888483E+01  0.14356487857E+03  0.19050323395E+03  0.12509000000E+03 0.  0.
<mgrwt>
<rscale>  2 0.44474573E+03</rscale>
<asrwt>0</asrwt>
<pdfrwt beam="1">  1       21 0.92851352E-01 0.44474573E+03</pdfrwt>
<pdfrwt beam="2">  1       21 0.11517481E-01 0.44474573E+03</pdfrwt>
<totfact> 0.56826728E+04</totfact>
</mgrwt>
</event>
<event>
 7    0  0.4793433E-002  0.4575352E+03  0.7546771E-02  0.1025499E+00
         21   -1    0    0  502  501  0.00000000000E+00  0.00000000000E+00  0.39629471321E+03  0.39629471321E+03  0.00000000000E+00 0.  1.
         21   -1    0    0  501  502 -0.00000000000E+00 -0.00000000000E+00 -0.13205981492E+03  0.13205981492E+03  0.00000000000E+00 0.  1.
      99926    2    1    2    0    0  0.00000000000E+00  0.00000000000E+00  0.26423489829E+03  0.52835452812E+03  0.45753516358E+03 0.  0.
      99925    2    3    3    0    0  0.63270251703E+01 -0.96760909334E+02  0.93428575722E+02  0.29549188030E+03  0.26302822612E+03 0.  0.
         25    1    4    4    0    0  0.16809632699E+02 -0.79752352700E+02  0.24562035546E+02  0.15130698332E+03  0.12509000000E+03 0.  0.
         25    1    3    3    0    0 -0.63270251703E+01  0.96760909334E+02  0.17080632257E+03  0.23286264783E+03  0.12509000000E+03 0.  0.
         25    1    4    4    0    0 -0.10482607529E+02 -0.17008556634E+02  0.68866540176E+02  0.14418489697E+03  0.12509000000E+03 0.  0.
<mgrwt>
<rscale>  2 0.45753516E+03</rscale>
<asrwt>0</asrwt>
<pdfrwt beam="1">  1       21 0.58278634E-01 0.45753516E+03</pdfrwt>
<pdfrwt beam="2">  1       21 0.19420561E-01 0.45753516E+03</pdfrwt>
<totfact> 0.62061486E+04</totfact>
</mgrwt>
</event>
<event>
 7    0  0.4793433E-002  0.4708098E+03  0.7546771E-02  0.1021692E+00
         21   -1    0    0  502  501  0.00000000000E+00  0.00000000000E+00  0.11198262107E+03  0.11198262107E+03  0.00000000000E+00 0. -1.
         21   -1    0    0  501  502 -0.00000000000E+00 -0.00000000000E+00 -0.49485779753E+03  0.49485779753E+03  0.00000000000E+00 0. -1.
      99926    2    1    2    0    0  0.00000000000E+00  0.11102230246E-15 -0.38287517645E+03  0.60684041860E+03  0.47080982668E+03 0.  0.
      99925    2    3    3    0    0  0.12041495485E+03  0.72283114239E+00 -0.18396224538E+03  0.34280605325E+03  0.26300874240E+03 0.  0.
         25    1    3    3    0    0 -0.12041495485E+03 -0.72283114239E+00 -0.19891293108E+03  0.26403436535E+03  0.12509000000E+03 0.  0.
         25    1    4    4    0    0  0.51897071159E+02  0.77373187691E+01 -0.13621260280E+03  0.19223567140E+03  0.12509000000E+03 0.  0.
         25    1    4    4    0    0  0.68517883695E+02 -0.70144876268E+01 -0.47749642571E+02  0.15057038184E+03  0.12509000000E+03 0.  0.
<mgrwt>
<rscale>  2 0.47080983E+03</rscale>
<asrwt>0</asrwt>
<pdfrwt beam="1">  1       21 0.16468033E-01 0.47080983E+03</pdfrwt>
<pdfrwt beam="2">  1       21 0.72773203E-01 0.47080983E+03</pdfrwt>
<totfact> 0.51516688E+04</totfact>
</mgrwt>
</event>
<event>
 7    0  0.4793433E-002  0.4531384E+03  0.7546771E-02  0.1026790E+00
         21   -1    0    0  502  501  0.00000000000E+00  0.00000000000E+00  0.32746816881E+03  0.32746816881E+03  0.00000000000E+00 0. -1.
         21   -1    0    0  501  502 -0.00000000000E+00 -0.00000000000E+00 -0.15675908728E+03  0.15675908728E+03  0.00000000000E+00 0. -1.
      99926    2    1    2    0    0  0.00000000000E+00  0.00000000000E+00  0.17070908152E+03  0.48422725609E+03  0.45313843914E+03 0.  0.
      99925    2    3    3    0    0 -0.57566309945E+02  0.28827933246E+02  0.20492183461E+03  0.33944137850E+03  0.26283561662E+03 0.  0.
         25    1    3    3    0    0  0.57566309945E+02 -0.28827933246E+02 -0.34212753085E+02  0.14478587759E+03  0.12509000000E+03 0.  0.
         25    1    4    4    0    0 -0.57731723311E+02  0.68309181023E+01  0.14100768965E+03  0.19725691359E+03  0.12509000000E+03 0.  0.
         25    1    4    4    0    0  0.16541336572E+00  0.21997015143E+02  0.63914144962E+02  0.14218446491E+03  0.12509000000E+03 0.  0.
<mgrwt>
<rscale>  2 0.45313844E+03</rscale>
<asrwt>0</asrwt>
<pdfrwt beam="1">  1       21 0.48157084E-01 0.45313844E+03</pdfrwt>
<pdfrwt beam="2">  1       21 0.23052807E-01 0.45313844E+03</pdfrwt>
<totfact> 0.67383949E+04</totfact>
</mgrwt>
</event>
<event>
 7    0  0.4793433E-002  0.4553972E+03  0.7546771E-02  0.1026125E+00
         21   -1    0    0  502  501  0.00000000000E+00  0.00000000000E+00  0.20378629827E+03  0.20378629827E+03  0.00000000000E+00 0.  1.
         21   -1    0    0  501  502 -0.00000000000E+00 -0.00000000000E+00 -0.25441677336E+03  0.25441677336E+03  0.00000000000E+00 0.  1.
      99926    2    1    2    0    0  0.00000000000E+00  0.00000000000E+00 -0.50630475094E+02  0.45820307163E+03  0.45539720008E+03 0.  0.
      99925    2    3    3    0    0  0.10508043876E+03 -0.43753734708E+02 -0.37314484340E+02  0.28855310369E+03  0.26251520908E+03 0.  0.
         25    1    4    4    0    0  0.63917899597E+02 -0.65277202903E+01  0.16318904669E+02  0.14156950156E+03  0.12509000000E+03 0.  0.
         25    1    3    3    0    0 -0.10508043876E+03  0.43753734708E+02 -0.13315990754E+02  0.16964996794E+03  0.12509000000E+03 0.  0.
         25    1    4    4    0    0  0.41162539165E+02 -0.37226014417E+02 -0.53633389009E+02  0.14698360213E+03  0.12509000000E+03 0.  0.
<mgrwt>
<rscale>  2 0.45539720E+03</rscale>
<asrwt>0</asrwt>
<pdfrwt beam="1">  1       21 0.29968574E-01 0.45539720E+03</pdfrwt>
<pdfrwt beam="2">  1       21 0.37414231E-01 0.45539720E+03</pdfrwt>
<totfact> 0.68095658E+04</totfact>
</mgrwt>
</event>
<event>
 7    0  0.4793433E-002  0.4438893E+03  0.7546771E-02  0.1029560E+00
         21   -1    0    0  502  501  0.00000000000E+00  0.00000000000E+00  0.11188888915E+04  0.11188888915E+04  0.00000000000E+00 0. -1.
         21   -1    0    0  501  502 -0.00000000000E+00 -0.00000000000E+00 -0.44025311833E+02  0.44025311833E+02  0.00000000000E+00 0. -1.
      99926    2    1    2    0    0  0.00000000000E+00 -0.71054273576E-14  0.10748635796E+04  0.11629142033E+04  0.44388932113E+03 0.  0.
      99925    2    3    3    0    0  0.42220228163E+02 -0.40879758506E+02  0.46397178193E+03  0.53658362052E+03  0.26305601127E+03 0.  0.
         25    1    4    4    0    0 -0.36759996028E+01 -0.31609437586E+02  0.16790961546E+03  0.21178719645E+03  0.12509000000E+03 0.  0.
         25    1    3    3    0    0 -0.42220228163E+02  0.40879758506E+02  0.61089179772E+03  0.62633058280E+03  0.12509000000E+03 0.  0.
         25    1    4    4    0    0  0.45896227765E+02 -0.92703209203E+01  0.29606216646E+03  0.32479642406E+03  0.12509000000E+03 0.  0.
<mgrwt>
<rscale>  2 0.44388932E+03</rscale>
<asrwt>0</asrwt>
<pdfrwt beam="1">  1       21 0.16454247E+00 0.44388932E+03</pdfrwt>
<pdfrwt beam="2">  1       21 0.64743113E-02 0.44388932E+03</pdfrwt>
<totfact> 0.36405489E+04</totfact>
</mgrwt>
</event>
<event>
 7    0  0.4793433E-002  0.4544709E+03  0.7546771E-02  0.1026397E+00
         21   -1    0    0  502  501  0.00000000000E+00  0.00000000000E+00  0.43002485119E+03  0.43002485119E+03  0.00000000000E+00 0. -1.
         21   -1    0    0  501  502 -0.00000000000E+00 -0.00000000000E+00 -0.12007668132E+03  0.12007668132E+03  0.00000000000E+00 0. -1.
      99926    2    1    2    0    0  0.00000000000E+00  0.00000000000E+00  0.30994816987E+03  0.55010153251E+03  0.45447093204E+03 0.  0.
      99925    2    3    3    0    0  0.64478281539E+02  0.69117032678E+02  0.12080859088E+03  0.30442715160E+03  0.26295733875E+03 0.  0.
         25    1    4    4    0    0  0.69157448832E+02  0.17405136507E+02  0.62759916965E+02  0.15707325292E+03  0.12509000000E+03 0.  0.
         25    1    4    4    0    0 -0.46791672931E+01  0.51711896170E+02  0.58048673918E+02  0.14735389868E+03  0.12509000000E+03 0.  0.
         25    1    3    3    0    0 -0.64478281539E+02 -0.69117032678E+02  0.18913957899E+03  0.24567438091E+03  0.12509000000E+03 0.  0.
<mgrwt>
<rscale>  2 0.45447093E+03</rscale>
<asrwt>0</asrwt>
<pdfrwt beam="1">  1       21 0.63238948E-01 0.45447093E+03</pdfrwt>
<pdfrwt beam="2">  1       21 0.17658336E-01 0.45447093E+03</pdfrwt>
<totfact> 0.62119422E+04</totfact>
</mgrwt>
</event>
<event>
 7    0  0.4793433E-002  0.4788632E+03  0.7546771E-02  0.1019448E+00
         21   -1    0    0  502  501  0.00000000000E+00  0.00000000000E+00  0.19019219842E+04  0.19019219842E+04  0.00000000000E+00 0.  1.
         21   -1    0    0  501  502 -0.00000000000E+00 -0.00000000000E+00 -0.30141868076E+02  0.30141868076E+02  0.00000000000E+00 0.  1.
      99926    2    1    2    0    0  0.88817841970E-15  0.00000000000E+00  0.18717801161E+04  0.19320638523E+04  0.47886316016E+03 0.  0.
      99925    2    3    3    0    0 -0.48159203111E+01  0.55782402520E+02  0.16473134629E+04  0.16690664074E+04  0.26269023129E+03 0.  0.
         25    1    4    4    0    0  0.15589707886E+02 -0.74138901698E+01  0.83639708441E+03  0.84587563842E+03  0.12509000000E+03 0.  0.
         25    1    3    3    0    0  0.48159203111E+01 -0.55782402520E+02  0.22446665319E+03  0.26299744488E+03  0.12509000000E+03 0.  0.
         25    1    4    4    0    0 -0.20405628197E+02  0.63196292690E+02  0.81091637854E+03  0.82319076899E+03  0.12509000000E+03 0.  0.
<mgrwt>
<rscale>  2 0.47886316E+03</rscale>
<asrwt>0</asrwt>
<pdfrwt beam="1">  1       21 0.27969433E+00 0.47886316E+03</pdfrwt>
<pdfrwt beam="2">  1       21 0.44326289E-02 0.47886316E+03</pdfrwt>
<totfact> 0.12391664E+04</totfact>
</mgrwt>
</event>
<event>
 7    0  0.4793433E-002  0.4266700E+03  0.7546771E-02  0.1034917E+00
         21   -1    0    0  502  501  0.00000000000E+00  0.00000000000E+00  0.27500449017E+03  0.27500449017E+03  0.00000000000E+00 0. -1.
         21   -1    0    0  501  502 -0.00000000000E+00 -0.00000000000E+00 -0.16549481029E+03  0.16549481029E+03  0.00000000000E+00 0. -1.
      99926    2    1    2    0    0  0.00000000000E+00  0.00000000000E+00  0.10950967987E+03  0.44049930046E+03  0.42666997049E+03 0.  0.
      99925    2    3    3    0    0 -0.48700739230E+02 -0.33647789432E+02  0.94839902092E+01  0.26974631387E+03  0.26300036510E+03 0.  0.
         25    1    3    3    0    0  0.48700739230E+02  0.33647789432E+02  0.10002568967E+03  0.17075298659E+03  0.12509000000E+03 0.  0.
         25    1    4    4    0    0 -0.22663984552E+01  0.50062438031E+01 -0.22448129093E+02  0.12720701883E+03  0.12509000000E+03 0.  0.
         25    1    4    4    0    0 -0.46434340775E+02 -0.38654033235E+02  0.31932119302E+02  0.14253929504E+03  0.12509000000E+03 0.  0.
<mgrwt>
<rscale>  2 0.42666997E+03</rscale>
<asrwt>0</asrwt>
<pdfrwt beam="1">  1       21 0.40441837E-01 0.42666997E+03</pdfrwt>
<pdfrwt beam="2">  1       21 0.24337472E-01 0.42666997E+03</pdfrwt>
<totfact> 0.87832794E+04</totfact>
</mgrwt>
</event>
<event>
 7    0  0.4793433E-002  0.4550422E+03  0.7546771E-02  0.1026229E+00
         21   -1    0    0  502  501  0.00000000000E+00  0.00000000000E+00  0.69868587620E+03  0.69868587620E+03  0.00000000000E+00 0. -1.
         21   -1    0    0  501  502 -0.00000000000E+00 -0.00000000000E+00 -0.74090292805E+02  0.74090292805E+02  0.00000000000E+00 0. -1.
      99926    2    1    2    0    0  0.17763568394E-14  0.00000000000E+00  0.62459558340E+03  0.77277616901E+03  0.45504215693E+03 0.  0.
      99925    2    3    3    0    0  0.10270899596E+02  0.10020954671E+03  0.30447194742E+03  0.41462243799E+03  0.26279489091E+03 0.  0.
         25    1    4    4    0    0  0.12257264526E+02  0.59061161840E+02  0.98933691457E+02  0.17051054154E+03  0.12509000000E+03 0.  0.
         25    1    3    3    0    0 -0.10270899596E+02 -0.10020954671E+03  0.32012363598E+03  0.35815373102E+03  0.12509000000E+03 0.  0.
         25    1    4    4    0    0 -0.19863649295E+01  0.41148384871E+02  0.20553825597E+03  0.24411189645E+03  0.12509000000E+03 0.  0.
<mgrwt>
<rscale>  2 0.45504216E+03</rscale>
<asrwt>0</asrwt>
<pdfrwt beam="1">  1       21 0.10274792E+00 0.45504216E+03</pdfrwt>
<pdfrwt beam="2">  1       21 0.10895632E-01 0.45504216E+03</pdfrwt>
<totfact> 0.49093527E+04</totfact>
</mgrwt>
</event>
<event>
 7    0  0.4793433E-002  0.4433367E+03  0.7546771E-02  0.1029728E+00
         21   -1    0    0  502  501  0.00000000000E+00  0.00000000000E+00  0.80043130736E+03  0.80043130736E+03  0.00000000000E+00 0. -1.
         21   -1    0    0  501  502 -0.00000000000E+00 -0.00000000000E+00 -0.61387978996E+02  0.61387978996E+02  0.00000000000E+00 0. -1.
      99926    2    1    2    0    0  0.00000000000E+00  0.00000000000E+00  0.73904332837E+03  0.86181928636E+03  0.44333671305E+03 0.  0.
      99925    2    3    3    0    0  0.43672212840E+02 -0.44594435299E+02  0.31327115327E+03  0.41368383918E+03  0.26286798491E+03 0.  0.
         25    1    4    4    0    0 -0.80090896413E+01 -0.20687229959E+02  0.10852345440E+03  0.16708367740E+03  0.12509000000E+03 0.  0.
         25    1    3    3    0    0 -0.43672212840E+02  0.44594435299E+02  0.42577217509E+03  0.44813544718E+03  0.12509000000E+03 0.  0.
         25    1    4    4    0    0  0.51681302481E+02 -0.23907205340E+02  0.20474769888E+03  0.24660016178E+03  0.12509000000E+03 0.  0.
<mgrwt>
<rscale>  2 0.44333671E+03</rscale>
<asrwt>0</asrwt>
<pdfrwt beam="1">  1       21 0.11771048E+00 0.44333671E+03</pdfrwt>
<pdfrwt beam="2">  1       21 0.90276444E-02 0.44333671E+03</pdfrwt>
<totfact> 0.49269857E+04</totfact>
</mgrwt>
</event>
<event>
 7    0  0.4793433E-002  0.4604952E+03  0.7546771E-02  0.1024638E+00
         21   -1    0    0  502  501  0.00000000000E+00  0.00000000000E+00  0.71048354457E+03  0.71048354457E+03  0.00000000000E+00 0. -1.
         21   -1    0    0  501  502 -0.00000000000E+00 -0.00000000000E+00 -0.74616725513E+02  0.74616725513E+02  0.00000000000E+00 0. -1.
      99926    2    1    2    0    0  0.00000000000E+00  0.00000000000E+00  0.63586681906E+03  0.78510027008E+03  0.46049519271E+03 0.  0.
      99925    2    3    3    0    0  0.59300786950E+02 -0.79306890002E+02  0.28731551917E+03  0.40177053880E+03  0.26279876742E+03 0.  0.
         25    1    4    4    0    0  0.44065030355E+02 -0.14826695325E+02  0.98885960580E+02  0.16609484969E+03  0.12509000000E+03 0.  0.
         25    1    4    4    0    0  0.15235756595E+02 -0.64480194676E+02  0.18842955859E+03  0.23567568911E+03  0.12509000000E+03 0.  0.
         25    1    3    3    0    0 -0.59300786950E+02  0.79306890002E+02  0.34855129988E+03  0.38332973128E+03  0.12509000000E+03 0.  0.
<mgrwt>
<rscale>  2 0.46049519E+03</rscale>
<asrwt>0</asrwt>
<pdfrwt beam="1">  1       21 0.10448287E+00 0.46049519E+03</pdfrwt>
<pdfrwt beam="2">  1       21 0.10973048E-01 0.46049519E+03</pdfrwt>
<totfact> 0.46457597E+04</totfact>
</mgrwt>
</event>
<event>
 7    0  0.4793433E-002  0.4538607E+03  0.7546771E-02  0.1026577E+00
         21   -1    0    0  502  501  0.00000000000E+00  0.00000000000E+00  0.38164396513E+03  0.38164396513E+03  0.00000000000E+00 0. -1.
         21   -1    0    0  501  502 -0.00000000000E+00 -0.00000000000E+00 -0.13493565854E+03  0.13493565854E+03  0.00000000000E+00 0. -1.
      99926    2    1    2    0    0  0.00000000000E+00  0.00000000000E+00  0.24670830659E+03  0.51657962367E+03  0.45386068242E+03 0.  0.
      99925    2    3    3    0    0 -0.85553040751E+02 -0.42772082194E+01  0.23681175659E+03  0.36464849752E+03  0.26372542803E+03 0.  0.
         25    1    4    4    0    0 -0.79697819856E+02  0.18649743737E+02  0.11705698224E+03  0.18986679705E+03  0.12509000000E+03 0.  0.
         25    1    3    3    0    0  0.85553040751E+02  0.42772082194E+01  0.98965500007E+01  0.15193112615E+03  0.12509000000E+03 0.  0.
         25    1    4    4    0    0 -0.58552208954E+01 -0.22926951957E+02  0.11975477436E+03  0.17478170047E+03  0.12509000000E+03 0.  0.
<mgrwt>
<rscale>  2 0.45386068E+03</rscale>
<asrwt>0</asrwt>
<pdfrwt beam="1">  1       21 0.56124112E-01 0.45386068E+03</pdfrwt>
<pdfrwt beam="2">  1       21 0.19843479E-01 0.45386068E+03</pdfrwt>
<totfact> 0.64703847E+04</totfact>
</mgrwt>
</event>
<event>
 7    0  0.4793433E-002  0.4554695E+03  0.7546771E-02  0.1026103E+00
         21   -1    0    0  502  501  0.00000000000E+00  0.00000000000E+00  0.90179305404E+02  0.90179305404E+02  0.00000000000E+00 0.  1.
         21   -1    0    0  501  502 -0.00000000000E+00 -0.00000000000E+00 -0.57511094608E+03  0.57511094608E+03  0.00000000000E+00 0.  1.
      99926    2    1    2    0    0  0.00000000000E+00  0.00000000000E+00 -0.48493164067E+03  0.66529025148E+03  0.45546945297E+03 0.  0.
      99925    2    3    3    0    0 -0.93016697217E+02 -0.60174566664E+02 -0.34122561838E+03  0.44489965872E+03  0.26311157188E+03 0.  0.
         25    1    4    4    0    0 -0.67020895778E+02  0.46760147967E+01 -0.17846090880E+03  0.22805584767E+03  0.12509000000E+03 0.  0.
         25    1    4    4    0    0 -0.25995801439E+02 -0.64850581460E+02 -0.16276470957E+03  0.21684381105E+03  0.12509000000E+03 0.  0.
         25    1    3    3    0    0  0.93016697217E+02  0.60174566664E+02 -0.14370602230E+03  0.22039059276E+03  0.12509000000E+03 0.  0.
<mgrwt>
<rscale>  2 0.45546945E+03</rscale>
<asrwt>0</asrwt>
<pdfrwt beam="1">  1       21 0.13261663E-01 0.45546945E+03</pdfrwt>
<pdfrwt beam="2">  1       21 0.84575139E-01 0.45546945E+03</pdfrwt>
<totfact> 0.54625653E+04</totfact>
</mgrwt>
</event>
<event>
 7    0  0.4793433E-002  0.4562275E+03  0.7546771E-02  0.1025881E+00
         21   -1    0    0  502  501  0.00000000000E+00  0.00000000000E+00  0.18894307985E+03  0.18894307985E+03  0.00000000000E+00 0. -1.
         21   -1    0    0  501  502 -0.00000000000E+00 -0.00000000000E+00 -0.27540501789E+03  0.27540501789E+03  0.00000000000E+00 0. -1.
      99926    2    1    2    0    0  0.00000000000E+00  0.00000000000E+00 -0.86461938047E+02  0.46434809774E+03  0.45622745330E+03 0.  0.
      99925    2    3    3    0    0  0.80691050734E+02 -0.70330094501E+02 -0.95003774490E+02  0.29949107202E+03  0.26308138891E+03 0.  0.
         25    1    4    4    0    0  0.51322825196E+02 -0.74367208043E+02 -0.38344497963E+02  0.15900415920E+03  0.12509000000E+03 0.  0.
         25    1    4    4    0    0  0.29368225538E+02  0.40371135420E+01 -0.56659276527E+02  0.14048691282E+03  0.12509000000E+03 0.  0.
         25    1    3    3    0    0 -0.80691050734E+02  0.70330094501E+02  0.85418364421E+01  0.16485702572E+03  0.12509000000E+03 0.  0.
<mgrwt>
<rscale>  2 0.45622745E+03</rscale>
<asrwt>0</asrwt>
<pdfrwt beam="1">  1       21 0.27785747E-01 0.45622745E+03</pdfrwt>
<pdfrwt beam="2">  1       21 0.40500737E-01 0.45622745E+03</pdfrwt>
<totfact> 0.67200493E+04</totfact>
</mgrwt>
</event>
<event>
 7    0  0.4793433E-002  0.4677753E+03  0.7546771E-02  0.1022550E+00
         21   -1    0    0  502  501  0.00000000000E+00  0.00000000000E+00  0.24387347932E+03  0.24387347932E+03  0.00000000000E+00 0. -1.
         21   -1    0    0  501  502 -0.00000000000E+00 -0.00000000000E+00 -0.22431070658E+03  0.22431070658E+03  0.00000000000E+00 0. -1.
      99926    2    1    2    0    0  0.35527136788E-14 -0.88817841970E-15  0.19562772743E+02  0.46818418590E+03  0.46777529846E+03 0.  0.
      99925    2    3    3    0    0  0.20884538725E+02 -0.46133520535E+01  0.13511764953E+03  0.29655119191E+03  0.26311287166E+03 0.  0.
         25    1    3    3    0    0 -0.20884538725E+02  0.46133520535E+01 -0.11555487679E+03  0.17163299399E+03  0.12509000000E+03 0.  0.
         25    1    4    4    0    0  0.38530522755E+02  0.26810955403E+02  0.74134843414E+02  0.15279696208E+03  0.12509000000E+03 0.  0.
         25    1    4    4    0    0 -0.17645984031E+02 -0.31424307456E+02  0.60982806119E+02  0.14375422983E+03  0.12509000000E+03 0.  0.
<mgrwt>
<rscale>  2 0.46777530E+03</rscale>
<asrwt>0</asrwt>
<pdfrwt beam="1">  1       21 0.35863747E-01 0.46777530E+03</pdfrwt>
<pdfrwt beam="2">  1       21 0.32986868E-01 0.46777530E+03</pdfrwt>
<totfact> 0.61118878E+04</totfact>
</mgrwt>
</event>
<event>
 7    0  0.4793433E-002  0.4496051E+03  0.7546771E-02  0.1027840E+00
         21   -1    0    0  502  501  0.00000000000E+00  0.00000000000E+00  0.13529440636E+03  0.13529440636E+03  0.00000000000E+00 0. -1.
         21   -1    0    0  501  502 -0.00000000000E+00 -0.00000000000E+00 -0.37352752762E+03  0.37352752762E+03  0.00000000000E+00 0. -1.
      99926    2    1    2    0    0  0.14210854715E-13  0.17763568394E-14 -0.23823312126E+03  0.50882193397E+03  0.44960509386E+03 0.  0.
      99925    2    3    3    0    0  0.10682263152E+03  0.13661222097E+02 -0.14039933358E+03  0.31694525039E+03  0.26295363713E+03 0.  0.
         25    1    4    4    0    0  0.15138712404E+02 -0.11032996644E+02 -0.73082661017E+02  0.14608042672E+03  0.12509000000E+03 0.  0.
         25    1    4    4    0    0  0.91683919111E+02  0.24694218741E+02 -0.67316672562E+02  0.17086482367E+03  0.12509000000E+03 0.  0.
         25    1    3    3    0    0 -0.10682263152E+03 -0.13661222097E+02 -0.97833787679E+02  0.19187668359E+03  0.12509000000E+03 0.  0.
<mgrwt>
<rscale>  2 0.44960509E+03</rscale>
<asrwt>0</asrwt>
<pdfrwt beam="1">  1       21 0.19896236E-01 0.44960509E+03</pdfrwt>
<pdfrwt beam="2">  1       21 0.54930518E-01 0.44960509E+03</pdfrwt>
<totfact> 0.67499114E+04</totfact>
</mgrwt>
</event>
<event>
 7    0  0.4793433E-002  0.4362489E+03  0.7546771E-02  0.1031904E+00
         21   -1    0    0  502  501  0.00000000000E+00  0.00000000000E+00  0.58489034363E+02  0.58489034363E+02  0.00000000000E+00 0.  1.
         21   -1    0    0  501  502 -0.00000000000E+00 -0.00000000000E+00 -0.81345641186E+03  0.81345641186E+03  0.00000000000E+00 0.  1.
      99926    2    1    2    0    0 -0.35527136788E-14  0.71054273576E-14 -0.75496737750E+03  0.87194544623E+03  0.43624891989E+03 0.  0.
      99925    2    3    3    0    0 -0.29993546939E+02  0.61779705202E+02 -0.35369472496E+03  0.44605391707E+03  0.26295968062E+03 0.  0.
         25    1    3    3    0    0  0.29993546939E+02 -0.61779705202E+02 -0.40127265254E+03  0.42589152916E+03  0.12509000000E+03 0.  0.
         25    1    4    4    0    0 -0.44645101542E+01  0.23733169645E+02 -0.23646519504E+03  0.26860098986E+03  0.12509000000E+03 0.  0.
         25    1    4    4    0    0 -0.25529036785E+02  0.38046535557E+02 -0.11722952992E+03  0.17745292720E+03  0.12509000000E+03 0.  0.
<mgrwt>
<rscale>  2 0.43624892E+03</rscale>
<asrwt>0</asrwt>
<pdfrwt beam="1">  1       21 0.86013287E-02 0.43624892E+03</pdfrwt>
<pdfrwt beam="2">  1       21 0.11962594E+00 0.43624892E+03</pdfrwt>
<totfact> 0.51645141E+04</totfact>
</mgrwt>
</event>
<event>
 7    0  0.4793433E-002  0.4464729E+03  0.7546771E-02  0.1028779E+00
         21   -1    0    0  502  501  0.00000000000E+00  0.00000000000E+00  0.36138305341E+02  0.36138305341E+02  0.00000000000E+00 0.  1.
         21   -1    0    0  501  502 -0.00000000000E+00 -0.00000000000E+00 -0.13789939094E+04  0.13789939094E+04  0.00000000000E+00 0.  1.
      99926    2    1    2    0    0  0.00000000000E+00  0.00000000000E+00 -0.13428556041E+04  0.14151322148E+04  0.44647285679E+03 0.  0.
      99925    2    3    3    0    0  0.68334268773E+02  0.73484698924E+02 -0.94913488306E+03  0.99000507198E+03  0.26302745685E+03 0.  0.
         25    1    4    4    0    0  0.26581191729E+02  0.73558982573E+02 -0.56123170241E+03  0.58029821261E+03  0.12509000000E+03 0.  0.
         25    1    3    3    0    0 -0.68334268773E+02 -0.73484698924E+02 -0.39372072105E+03  0.42512714280E+03  0.12509000000E+03 0.  0.
         25    1    4    4    0    0  0.41753077044E+02 -0.74283649109E-01 -0.38790318065E+03  0.40970685937E+03  0.12509000000E+03 0.  0.
<mgrwt>
<rscale>  2 0.44647286E+03</rscale>
<asrwt>0</asrwt>
<pdfrwt beam="1">  1       21 0.53144566E-02 0.44647286E+03</pdfrwt>
<pdfrwt beam="2">  1       21 0.20279322E+00 0.44647286E+03</pdfrwt>
<totfact> 0.27723570E+04</totfact>
</mgrwt>
</event>
<event>
 7    0  0.4793433E-002  0.4589362E+03  0.7546771E-02  0.1025090E+00
         21   -1    0    0  502  501  0.00000000000E+00  0.00000000000E+00  0.18208175223E+03  0.18208175223E+03  0.00000000000E+00 0. -1.
         21   -1    0    0  501  502 -0.00000000000E+00 -0.00000000000E+00 -0.28918663529E+03  0.28918663529E+03  0.00000000000E+00 0. -1.
      99926    2    1    2    0    0 -0.17763568394E-14  0.00000000000E+00 -0.10710488306E+03  0.47126838752E+03  0.45893620156E+03 0.  0.
      99925    2    3    3    0    0 -0.84189696155E+01  0.10005186065E+03 -0.12840378989E+03  0.30945860598E+03  0.26305102488E+03 0.  0.
         25    1    3    3    0    0  0.84189696155E+01 -0.10005186065E+03  0.21298906834E+02  0.16180978154E+03  0.12509000000E+03 0.  0.
         25    1    4    4    0    0  0.89361035463E+01  0.79674871156E+02 -0.97957207786E+02  0.17796365274E+03  0.12509000000E+03 0.  0.
         25    1    4    4    0    0 -0.17355073162E+02  0.20376989497E+02 -0.30446582104E+02  0.13149495324E+03  0.12509000000E+03 0.  0.
<mgrwt>
<rscale>  2 0.45893620E+03</rscale>
<asrwt>0</asrwt>
<pdfrwt beam="1">  1       21 0.26776728E-01 0.45893620E+03</pdfrwt>
<pdfrwt beam="2">  1       21 0.42527446E-01 0.45893620E+03</pdfrwt>
<totfact> 0.65279410E+04</totfact>
</mgrwt>
</event>
<event>
 7    0  0.4793433E-002  0.4355547E+03  0.7546771E-02  0.1032119E+00
         21   -1    0    0  502  501  0.00000000000E+00  0.00000000000E+00  0.79556699733E+02  0.79556699733E+02  0.00000000000E+00 0. -1.
         21   -1    0    0  501  502 -0.00000000000E+00 -0.00000000000E+00 -0.59614065726E+03  0.59614065726E+03  0.00000000000E+00 0. -1.
      99926    2    1    2    0    0  0.11102230246E-15  0.00000000000E+00 -0.51658395753E+03  0.67569735699E+03  0.43555474176E+03 0.  0.
      99925    2    3    3    0    0 -0.90596313783E+00 -0.87679384447E+02 -0.27989593093E+03  0.39399321208E+03  0.26305973426E+03 0.  0.
         25    1    4    4    0    0  0.74626473049E+00 -0.39600780450E+02 -0.81137679355E+02  0.15427122167E+03  0.12509000000E+03 0.  0.
         25    1    4    4    0    0 -0.16522278683E+01 -0.48078603997E+02 -0.19875825157E+03  0.23972199041E+03  0.12509000000E+03 0.  0.
         25    1    3    3    0    0  0.90596313783E+00  0.87679384447E+02 -0.23668802660E+03  0.28170414492E+03  0.12509000000E+03 0.  0.
<mgrwt>
<rscale>  2 0.43555474E+03</rscale>
<asrwt>0</asrwt>
<pdfrwt beam="1">  1       21 0.11699515E-01 0.43555474E+03</pdfrwt>
<pdfrwt beam="2">  1       21 0.87667744E-01 0.43555474E+03</pdfrwt>
<totfact> 0.63409043E+04</totfact>
</mgrwt>
</event>
<event>
 7    0  0.4793433E-002  0.4592369E+03  0.7546771E-02  0.1025003E+00
         21   -1    0    0  502  501  0.00000000000E+00  0.00000000000E+00  0.74678080489E+03  0.74678080489E+03  0.00000000000E+00 0. -1.
         21   -1    0    0  501  502 -0.00000000000E+00 -0.00000000000E+00 -0.70602559830E+02  0.70602559830E+02  0.00000000000E+00 0. -1.
      99926    2    1    2    0    0  0.00000000000E+00  0.00000000000E+00  0.67617824506E+03  0.81738336472E+03  0.45923691688E+03 0.  0.
      99925    2    3    3    0    0 -0.10329352065E+02 -0.70414305350E+02  0.25928101726E+03  0.37634405064E+03  0.26333121469E+03 0.  0.
         25    1    4    4    0    0 -0.25433195700E+01 -0.43572411053E+02  0.76141534900E+02  0.15280728031E+03  0.12509000000E+03 0.  0.
         25    1    4    4    0    0 -0.77860324951E+01 -0.26841894297E+02  0.18313948236E+03  0.22353677033E+03  0.12509000000E+03 0.  0.
         25    1    3    3    0    0  0.10329352065E+02  0.70414305350E+02  0.41689722781E+03  0.44103931408E+03  0.12509000000E+03 0.  0.
<mgrwt>
<rscale>  2 0.45923692E+03</rscale>
<asrwt>0</asrwt>
<pdfrwt beam="1">  1       21 0.10982070E+00 0.45923692E+03</pdfrwt>
<pdfrwt beam="2">  1       21 0.10382730E-01 0.45923692E+03</pdfrwt>
<totfact> 0.45406929E+04</totfact>
</mgrwt>
</event>
<event>
 7    0  0.4793433E-002  0.4504548E+03  0.7546771E-02  0.1027586E+00
         21   -1    0    0  502  501  0.00000000000E+00  0.00000000000E+00  0.23385792998E+03  0.23385792998E+03  0.00000000000E+00 0.  1.
         21   -1    0    0  501  502 -0.00000000000E+00 -0.00000000000E+00 -0.21691539675E+03  0.21691539675E+03  0.00000000000E+00 0.  1.
      99926    2    1    2    0    0  0.14210854715E-13  0.00000000000E+00  0.16942533230E+02  0.45077332673E+03  0.45045481755E+03 0.  0.
      99925    2    3    3    0    0 -0.84076323356E+02  0.21385331812E+02  0.76476667964E+02  0.28731696599E+03  0.26301368337E+03 0.  0.
         25    1    4    4    0    0 -0.22576678496E+02  0.29834686984E+02  0.68498817837E+02  0.14744290795E+03  0.12509000000E+03 0.  0.
         25    1    3    3    0    0  0.84076323356E+02 -0.21385331812E+02 -0.59534134734E+02  0.16345636073E+03  0.12509000000E+03 0.  0.
         25    1    4    4    0    0 -0.61499644860E+02 -0.84493551726E+01  0.79778501268E+01  0.13987405804E+03  0.12509000000E+03 0.  0.
<mgrwt>
<rscale>  2 0.45045482E+03</rscale>
<asrwt>0</asrwt>
<pdfrwt beam="1">  1       21 0.34390872E-01 0.45045482E+03</pdfrwt>
<pdfrwt beam="2">  1       21 0.31899323E-01 0.45045482E+03</pdfrwt>
<totfact> 0.71411417E+04</totfact>
</mgrwt>
</event>
<event>
 7    0  0.4793433E-002  0.4521720E+03  0.7546771E-02  0.1027076E+00
         21   -1    0    0  502  501  0.00000000000E+00  0.00000000000E+00  0.14730895279E+03  0.14730895279E+03  0.00000000000E+00 0. -1.
         21   -1    0    0  501  502 -0.00000000000E+00 -0.00000000000E+00 -0.34699096562E+03  0.34699096562E+03  0.00000000000E+00 0. -1.
      99926    2    1    2    0    0  0.00000000000E+00  0.00000000000E+00 -0.19968201283E+03  0.49429991840E+03  0.45217198397E+03 0.  0.
      99925    2    3    3    0    0  0.48935296581E+02  0.46634339643E+02 -0.30492927738E+02  0.27329792859E+03  0.26304470009E+03 0.  0.
         25    1    4    4    0    0  0.33145080620E+02  0.19423642663E+02 -0.55104220451E+02  0.14198541290E+03  0.12509000000E+03 0.  0.
         25    1    4    4    0    0  0.15790215961E+02  0.27210696980E+02  0.24611292713E+02  0.13131251570E+03  0.12509000000E+03 0.  0.
         25    1    3    3    0    0 -0.48935296581E+02 -0.46634339643E+02 -0.16918908509E+03  0.22100198981E+03  0.12509000000E+03 0.  0.
<mgrwt>
<rscale>  2 0.45217198E+03</rscale>
<asrwt>0</asrwt>
<pdfrwt beam="1">  1       21 0.21663081E-01 0.45217198E+03</pdfrwt>
<pdfrwt beam="2">  1       21 0.51028084E-01 0.45217198E+03</pdfrwt>
<totfact> 0.67168306E+04</totfact>
</mgrwt>
</event>
<event>
 7    0  0.4793433E-002  0.4556350E+03  0.7546771E-02  0.1026055E+00
         21   -1    0    0  502  501  0.00000000000E+00  0.00000000000E+00  0.13421686339E+03  0.13421686339E+03  0.00000000000E+00 0. -1.
         21   -1    0    0  501  502 -0.00000000000E+00 -0.00000000000E+00 -0.38669360222E+03  0.38669360222E+03  0.00000000000E+00 0. -1.
      99926    2    1    2    0    0  0.14210854715E-13  0.35527136788E-14 -0.25247673883E+03  0.52091046561E+03  0.45563495205E+03 0.  0.
      99925    2    3    3    0    0 -0.10890905125E+03 -0.28846962905E+02 -0.17722343534E+03  0.33650901089E+03  0.26293885157E+03 0.  0.
         25    1    4    4    0    0 -0.46397796542E+02  0.23497799987E+02 -0.68504611598E+02  0.15180675887E+03  0.12509000000E+03 0.  0.
         25    1    3    3    0    0  0.10890905125E+03  0.28846962905E+02 -0.75253303492E+02  0.18440145471E+03  0.12509000000E+03 0.  0.
         25    1    4    4    0    0 -0.62511254709E+02 -0.52344762891E+02 -0.10871882374E+03  0.18470225202E+03  0.12509000000E+03 0.  0.
<mgrwt>
<rscale>  2 0.45563495E+03</rscale>
<asrwt>0</asrwt>
<pdfrwt beam="1">  1       21 0.19737774E-01 0.45563495E+03</pdfrwt>
<pdfrwt beam="2">  1       21 0.56866706E-01 0.45563495E+03</pdfrwt>
<totfact> 0.63504765E+04</totfact>
</mgrwt>
</event>
<event>
 7    0  0.4793433E-002  0.4854259E+03  0.7546771E-02  0.1017655E+00
         21   -1    0    0  502  501  0.00000000000E+00  0.00000000000E+00  0.11924204593E+03  0.11924204593E+03  0.00000000000E+00 0.  1.
         21   -1    0    0  501  502 -0.00000000000E+00 -0.00000000000E+00 -0.49403353498E+03  0.49403353498E+03  0.00000000000E+00 0.  1.
      99926    2    1    2    0    0  0.14210854715E-13  0.71054273576E-14 -0.37479148906E+03  0.61327558091E+03  0.48542587269E+03 0.  0.
      99925    2    3    3    0    0  0.12307155654E+03  0.60306524358E+02 -0.26394335609E+03  0.39713141238E+03  0.26318012570E+03 0.  0.
         25    1    4    4    0    0  0.81442965822E+02  0.42046632165E+02 -0.18868293494E+03  0.24423274554E+03  0.12509000000E+03 0.  0.
         25    1    4    4    0    0  0.41628590719E+02  0.18259892193E+02 -0.75260421149E+02  0.15289866683E+03  0.12509000000E+03 0.  0.
         25    1    3    3    0    0 -0.12307155654E+03 -0.60306524358E+02 -0.11084813297E+03  0.21614416854E+03  0.12509000000E+03 0.  0.
<mgrwt>
<rscale>  2 0.48542587E+03</rscale>
<asrwt>0</asrwt>
<pdfrwt beam="1">  1       21 0.17535595E-01 0.48542587E+03</pdfrwt>
<pdfrwt beam="2">  1       21 0.72651988E-01 0.48542587E+03</pdfrwt>
<totfact> 0.45821380E+04</totfact>
</mgrwt>
</event>
<event>
 6    0  0.4793433E-002  0.4523524E+03  0.7546771E-02  0.1027023E+00
         21   -1    0    0  502  501  0.00000000000E+00  0.00000000000E+00  0.62194577302E+03  0.62194577302E+03  0.00000000000E+00 0.  1.
         21   -1    0    0  501  502 -0.00000000000E+00 -0.00000000000E+00 -0.82251028233E+02  0.82251028233E+02  0.00000000000E+00 0.  1.
      99926    2    1    2    0    0  0.00000000000E+00  0.00000000000E+00  0.53969474479E+03  0.70419680126E+03  0.45235242604E+03 0.  0.
         25    1    3    3    0    0  0.41154079838E+02 -0.56290328352E+02  0.24600059118E+03  0.28465076552E+03  0.12509000000E+03 0.  0.
         25    1    3    3    0    0 -0.66980753010E+02  0.85640983326E+02  0.19216161193E+03  0.25376050225E+03  0.12509000000E+03 0.  0.
         25    1    3    3    0    0  0.25826673172E+02 -0.29350654973E+02  0.10153254168E+03  0.16578553349E+03  0.12509000000E+03 0.  0.
<mgrwt>
<rscale>  2 0.45235243E+03</rscale>
<asrwt>0</asrwt>
<pdfrwt beam="1">  1       21 0.91462612E-01 0.45235243E+03</pdfrwt>
<pdfrwt beam="2">  1       21 0.12095740E-01 0.45235243E+03</pdfrwt>
<totfact> 0.53787533E+04</totfact>
</mgrwt>
</event>
<event>
 7    0  0.4793433E-002  0.4045733E+03  0.7546771E-02  0.1042208E+00
         21   -1    0    0  502  501  0.00000000000E+00  0.00000000000E+00  0.11907720339E+04  0.11907720339E+04  0.00000000000E+00 0.  1.
         21   -1    0    0  501  502 -0.00000000000E+00 -0.00000000000E+00 -0.34364160649E+02  0.34364160649E+02  0.00000000000E+00 0.  1.
      99926    2    1    2    0    0  0.00000000000E+00  0.00000000000E+00  0.11564078732E+04  0.12251361945E+04  0.40457326391E+03 0.  0.
      99925    2    3    3    0    0 -0.22606874144E+02  0.98324852963E+01  0.62270640241E+03  0.67641721674E+03  0.26300045433E+03 0.  0.
         25    1    4    4    0    0 -0.21726166432E+02  0.25273529046E+02  0.22937401721E+03  0.26338322925E+03  0.12509000000E+03 0.  0.
         25    1    3    3    0    0  0.22606874144E+02 -0.98324852963E+01  0.53370147081E+03  0.54871897777E+03  0.12509000000E+03 0.  0.
         25    1    4    4    0    0 -0.88070771221E+00 -0.15441043749E+02  0.39333238520E+03  0.41303398749E+03  0.12509000000E+03 0.  0.
<mgrwt>
<rscale>  2 0.40457326E+03</rscale>
<asrwt>0</asrwt>
<pdfrwt beam="1">  1       21 0.17511351E+00 0.40457326E+03</pdfrwt>
<pdfrwt beam="2">  1       21 0.50535538E-02 0.40457326E+03</pdfrwt>
<totfact> 0.47427501E+04</totfact>
</mgrwt>
</event>
<event>
 6    0  0.4793433E-002  0.4471386E+03  0.7546771E-02  0.1028579E+00
         21   -1    0    0  502  501  0.00000000000E+00  0.00000000000E+00  0.16702710448E+03  0.16702710448E+03  0.00000000000E+00 0.  1.
         21   -1    0    0  501  502 -0.00000000000E+00 -0.00000000000E+00 -0.29925216284E+03  0.29925216284E+03  0.00000000000E+00 0.  1.
      99926    2    1    2    0    0  0.00000000000E+00  0.00000000000E+00 -0.13222505836E+03  0.46627926731E+03  0.44713855690E+03 0.  0.
         25    1    3    3    0    0  0.95760122598E+02 -0.99309672629E+00 -0.10766905332E+02  0.15790636995E+03  0.12509000000E+03 0.  0.
         25    1    3    3    0    0 -0.80612519506E+02 -0.33954923640E+02 -0.68189846028E+02  0.16717858219E+03  0.12509000000E+03 0.  0.
         25    1    3    3    0    0 -0.15147603091E+02  0.34948020366E+02 -0.53268306999E+02  0.14119431517E+03  0.12509000000E+03 0.  0.
<mgrwt>
<rscale>  2 0.44713856E+03</rscale>
<asrwt>0</asrwt>
<pdfrwt beam="1">  1       21 0.24562810E-01 0.44713856E+03</pdfrwt>
<pdfrwt beam="2">  1       21 0.44007670E-01 0.44713856E+03</pdfrwt>
<totfact> 0.72106964E+04</totfact>
</mgrwt>
</event>
<event>
 7    0  0.4793433E-002  0.4540909E+03  0.7546771E-02  0.1026509E+00
         21   -1    0    0  502  501  0.00000000000E+00  0.00000000000E+00  0.10066237669E+03  0.10066237669E+03  0.00000000000E+00 0. -1.
         21   -1    0    0  501  502 -0.00000000000E+00 -0.00000000000E+00 -0.51210438649E+03  0.51210438649E+03  0.00000000000E+00 0. -1.
      99926    2    1    2    0    0 -0.14210854715E-13  0.71054273576E-14 -0.41144200980E+03  0.61276676318E+03  0.45409093652E+03 0.  0.
      99925    2    3    3    0    0 -0.77339604441E+02  0.35750797817E+02 -0.35820220802E+03  0.45232512721E+03  0.26273497086E+03 0.  0.
         25    1    3    3    0    0  0.77339604441E+02 -0.35750797817E+02 -0.53239801777E+02  0.16044163597E+03  0.12509000000E+03 0.  0.
         25    1    4    4    0    0  0.30807114512E+01  0.14225139228E+02 -0.16137878911E+03  0.20470092096E+03  0.12509000000E+03 0.  0.
         25    1    4    4    0    0 -0.80420315892E+02  0.21525658589E+02 -0.19682341891E+03  0.24762420625E+03  0.12509000000E+03 0.  0.
<mgrwt>
<rscale>  2 0.45409094E+03</rscale>
<asrwt>0</asrwt>
<pdfrwt beam="1">  1       21 0.14803291E-01 0.45409094E+03</pdfrwt>
<pdfrwt beam="2">  1       21 0.75309469E-01 0.45409094E+03</pdfrwt>
<totfact> 0.58316832E+04</totfact>
</mgrwt>
</event>
<event>
 7    0  0.4793433E-002  0.4572860E+03  0.7546771E-02  0.1025571E+00
         21   -1    0    0  502  501  0.00000000000E+00  0.00000000000E+00  0.77810370351E+03  0.77810370351E+03  0.00000000000E+00 0. -1.
         21   -1    0    0  501  502 -0.00000000000E+00 -0.00000000000E+00 -0.67185926733E+02  0.67185926733E+02  0.00000000000E+00 0. -1.
      99926    2    1    2    0    0  0.00000000000E+00  0.00000000000E+00  0.71091777677E+03  0.84528963024E+03  0.45728598673E+03 0.  0.
      99925    2    3    3    0    0 -0.18942275868E+02  0.11360089453E+03  0.43637831962E+03  0.52236023441E+03  0.26300228822E+03 0.  0.
         25    1    4    4    0    0 -0.46502544839E+02  0.50054199048E+02  0.24533256369E+03  0.28373135961E+03  0.12509000000E+03 0.  0.
         25    1    4    4    0    0  0.27560268971E+02  0.63546695483E+02  0.19104575593E+03  0.23862887481E+03  0.12509000000E+03 0.  0.
         25    1    3    3    0    0  0.18942275868E+02 -0.11360089453E+03  0.27453945716E+03  0.32292939583E+03  0.12509000000E+03 0.  0.
<mgrwt>
<rscale>  2 0.45728599E+03</rscale>
<asrwt>0</asrwt>
<pdfrwt beam="1">  1       21 0.11442701E+00 0.45728599E+03</pdfrwt>
<pdfrwt beam="2">  1       21 0.98802838E-02 0.45728599E+03</pdfrwt>
<totfact> 0.44841243E+04</totfact>
</mgrwt>
</event>
<event>
 7    0  0.4793433E-002  0.4523987E+03  0.7546771E-02  0.1027009E+00
         21   -1    0    0  502  501  0.00000000000E+00  0.00000000000E+00  0.24194680672E+02  0.24194680672E+02  0.00000000000E+00 0.  1.
         21   -1    0    0  501  502 -0.00000000000E+00 -0.00000000000E+00 -0.21147685246E+04  0.21147685246E+04  0.00000000000E+00 0.  1.
      99926    2    1    2    0    0  0.14210854715E-13  0.00000000000E+00 -0.20905738440E+04  0.21389632053E+04  0.45239871418E+03 0.  0.
      99925    2    3    3    0    0 -0.95180656921E+02 -0.27469115691E+02 -0.10842612104E+04  0.11200782588E+04  0.26294300439E+03 0.  0.
         25    1    4    4    0    0 -0.88783397533E+02 -0.26293576276E+02 -0.61515465847E+03  0.63453652831E+03  0.12509000000E+03 0.  0.
         25    1    3    3    0    0  0.95180656921E+02  0.27469115691E+02 -0.10063126336E+04  0.10188849466E+04  0.12509000000E+03 0.  0.
         25    1    4    4    0    0 -0.63972593875E+01 -0.11755394153E+01 -0.46910655194E+03  0.48554173044E+03  0.12509000000E+03 0.  0.
<mgrwt>
<rscale>  2 0.45239871E+03</rscale>
<asrwt>0</asrwt>
<pdfrwt beam="1">  1       21 0.35580416E-02 0.45239871E+03</pdfrwt>
<pdfrwt beam="2">  1       21 0.31099535E+00 0.45239871E+03</pdfrwt>
<totfact> 0.11807495E+04</totfact>
</mgrwt>
</event>
<event>
 7    0  0.4793433E-002  0.4561729E+03  0.7546771E-02  0.1025897E+00
         21   -1    0    0  502  501  0.00000000000E+00  0.00000000000E+00  0.30015842768E+03  0.30015842768E+03  0.00000000000E+00 0.  1.
         21   -1    0    0  501  502 -0.00000000000E+00 -0.00000000000E+00 -0.17331987415E+03  0.17331987415E+03  0.00000000000E+00 0.  1.
      99926    2    1    2    0    0  0.00000000000E+00 -0.14210854715E-13  0.12683855354E+03  0.47347830183E+03  0.45617286596E+03 0.  0.
      99925    2    3    3    0    0 -0.10677265244E+02  0.65070187236E+02 -0.17141041206E+02  0.27167204558E+03  0.26299002223E+03 0.  0.
         25    1    4    4    0    0  0.24679585222E+02  0.42205631870E+01 -0.10135305447E+02  0.12797315186E+03  0.12509000000E+03 0.  0.
         25    1    4    4    0    0 -0.35356850467E+02  0.60849624049E+02 -0.70057357587E+01  0.14369889372E+03  0.12509000000E+03 0.  0.
         25    1    3    3    0    0  0.10677265244E+02 -0.65070187236E+02  0.14397959475E+03  0.20180625625E+03  0.12509000000E+03 0.  0.
<mgrwt>
<rscale>  2 0.45617287E+03</rscale>
<asrwt>0</asrwt>
<pdfrwt beam="1">  1       21 0.44140945E-01 0.45617287E+03</pdfrwt>
<pdfrwt beam="2">  1       21 0.25488217E-01 0.45617287E+03</pdfrwt>
<totfact> 0.66556460E+04</totfact>
</mgrwt>
</event>
<event>
 7    0  0.4793433E-002  0.4521053E+03  0.7546771E-02  0.1027096E+00
         21   -1    0    0  502  501  0.00000000000E+00  0.00000000000E+00  0.25231132514E+03  0.25231132514E+03  0.00000000000E+00 0. -1.
         21   -1    0    0  501  502 -0.00000000000E+00 -0.00000000000E+00 -0.20252676246E+03  0.20252676246E+03  0.00000000000E+00 0. -1.
      99926    2    1    2    0    0  0.00000000000E+00  0.71054273576E-14  0.49784562679E+02  0.45483808760E+03  0.45210527894E+03 0.  0.
      99925    2    3    3    0    0 -0.18107828745E+02  0.57228632830E+02  0.12465180476E+03  0.29718142927E+03  0.26301277459E+03 0.  0.
         25    1    4    4    0    0  0.92141311700E+01  0.64409193983E+02  0.55922708479E+02  0.15168487699E+03  0.12509000000E+03 0.  0.
         25    1    4    4    0    0 -0.27321959915E+02 -0.71805611530E+01  0.68729096279E+02  0.14549655229E+03  0.12509000000E+03 0.  0.
         25    1    3    3    0    0  0.18107828745E+02 -0.57228632830E+02 -0.74867242079E+02  0.15765665832E+03  0.12509000000E+03 0.  0.
<mgrwt>
<rscale>  2 0.45210528E+03</rscale>
<asrwt>0</asrwt>
<pdfrwt beam="1">  1       21 0.37104607E-01 0.45210528E+03</pdfrwt>
<pdfrwt beam="2">  1       21 0.29783347E-01 0.45210528E+03</pdfrwt>
<totfact> 0.70164126E+04</totfact>
</mgrwt>
</event>
<event>
 7    0  0.4793433E-002  0.4539039E+03  0.7546771E-02  0.1026564E+00
         21   -1    0    0  502  501  0.00000000000E+00  0.00000000000E+00  0.27194779777E+03  0.27194779777E+03  0.00000000000E+00 0. -1.
         21   -1    0    0  501  502 -0.00000000000E+00 -0.00000000000E+00 -0.18940098239E+03  0.18940098239E+03  0.00000000000E+00 0. -1.
      99926    2    1    2    0    0  0.00000000000E+00  0.00000000000E+00  0.82546815382E+02  0.46134878015E+03  0.45390386672E+03 0.  0.
      99925    2    3    3    0    0 -0.97452644686E+02 -0.52558486040E+02  0.69757299021E+02  0.29380627140E+03  0.26305252695E+03 0.  0.
         25    1    4    4    0    0 -0.37067834392E+02 -0.65343472045E+02  0.35867039088E+02  0.15025893078E+03  0.12509000000E+03 0.  0.
         25    1    4    4    0    0 -0.60384810294E+02  0.12784986005E+02  0.33890259933E+02  0.14354734062E+03  0.12509000000E+03 0.  0.
         25    1    3    3    0    0  0.97452644686E+02  0.52558486040E+02  0.12789516361E+02  0.16754250875E+03  0.12509000000E+03 0.  0.
<mgrwt>
<rscale>  2 0.45390387E+03</rscale>
<asrwt>0</asrwt>
<pdfrwt beam="1">  1       21 0.39992323E-01 0.45390387E+03</pdfrwt>
<pdfrwt beam="2">  1       21 0.27853086E-01 0.45390387E+03</pdfrwt>
<totfact> 0.68678510E+04</totfact>
</mgrwt>
</event>
<event>
 7    0  0.4793433E-002  0.4518686E+03  0.7546771E-02  0.1027166E+00
         21   -1    0    0  502  501  0.00000000000E+00  0.00000000000E+00  0.11232406246E+04  0.11232406246E+04  0.00000000000E+00 0. -1.
         21   -1    0    0  501  502 -0.00000000000E+00 -0.00000000000E+00 -0.45445566790E+02  0.45445566790E+02  0.00000000000E+00 0. -1.
      99926    2    1    2    0    0  0.00000000000E+00 -0.35527136788E-14  0.10777950578E+04  0.11686861914E+04  0.45186859518E+03 0.  0.
      99925    2    3    3    0    0  0.66596152920E+02 -0.17082528700E+02  0.90295973279E+03  0.94298337939E+03  0.26297245941E+03 0.  0.
         25    1    4    4    0    0  0.64934142799E+02 -0.30309255641E+02  0.42696465536E+03  0.45064555796E+03  0.12509000000E+03 0.  0.
         25    1    3    3    0    0 -0.66596152920E+02  0.17082528700E+02  0.17483532506E+03  0.22570281203E+03  0.12509000000E+03 0.  0.
         25    1    4    4    0    0  0.16620101208E+01  0.13226726941E+02  0.47599507743E+03  0.49233782144E+03  0.12509000000E+03 0.  0.
<mgrwt>
<rscale>  2 0.45186860E+03</rscale>
<asrwt>0</asrwt>
<pdfrwt beam="1">  1       21 0.16518243E+00 0.45186860E+03</pdfrwt>
<pdfrwt beam="2">  1       21 0.66831723E-02 0.45186860E+03</pdfrwt>
<totfact> 0.33986315E+04</totfact>
</mgrwt>
</event>
<event>
 7    0  0.4793433E-002  0.4430586E+03  0.7546771E-02  0.1029812E+00
         21   -1    0    0  502  501  0.00000000000E+00  0.00000000000E+00  0.32714510388E+03  0.32714510388E+03  0.00000000000E+00 0. -1.
         21   -1    0    0  501  502 -0.00000000000E+00 -0.00000000000E+00 -0.15001058550E+03  0.15001058550E+03  0.00000000000E+00 0. -1.
      99926    2    1    2    0    0  0.00000000000E+00  0.26645352591E-14  0.17713451838E+03  0.47715568937E+03  0.44305859014E+03 0.  0.
      99925    2    3    3    0    0  0.52207624854E+02 -0.50224561528E+01  0.19070875165E+02  0.26887106544E+03  0.26301538053E+03 0.  0.
         25    1    4    4    0    0 -0.31647991798E+01  0.26270916336E+02  0.98655790247E+01  0.12823811738E+03  0.12509000000E+03 0.  0.
         25    1    3    3    0    0 -0.52207624854E+02  0.50224561528E+01  0.15806364322E+03  0.20828462393E+03  0.12509000000E+03 0.  0.
         25    1    4    4    0    0  0.55372424034E+02 -0.31293372489E+02  0.92052961404E+01  0.14063294807E+03  0.12509000000E+03 0.  0.
<mgrwt>
<rscale>  2 0.44305859E+03</rscale>
<asrwt>0</asrwt>
<pdfrwt beam="1">  1       21 0.48109574E-01 0.44305859E+03</pdfrwt>
<pdfrwt beam="2">  1       21 0.22060380E-01 0.44305859E+03</pdfrwt>
<totfact> 0.73645030E+04</totfact>
</mgrwt>
</event>
<event>
 7    0  0.4793433E-002  0.4563341E+03  0.7546771E-02  0.1025850E+00
         21   -1    0    0  502  501  0.00000000000E+00  0.00000000000E+00  0.36829852400E+03  0.36829852400E+03  0.00000000000E+00 0.  1.
         21   -1    0    0  501  502 -0.00000000000E+00 -0.00000000000E+00 -0.14135324727E+03  0.14135324727E+03  0.00000000000E+00 0.  1.
      99926    2    1    2    0    0  0.00000000000E+00  0.00000000000E+00  0.22694527672E+03  0.50965177127E+03  0.45633405454E+03 0.  0.
      99925    2    3    3    0    0 -0.52424083638E+02  0.51287882354E+02  0.44580422866E+02  0.27666426207E+03  0.26301514858E+03 0.  0.
         25    1    4    4    0    0 -0.22260725053E+02  0.20062479134E+02  0.62565745523E+02  0.14303853873E+03  0.12509000000E+03 0.  0.
         25    1    4    4    0    0 -0.30163358585E+02  0.31225403220E+02 -0.17985322657E+02  0.13362572334E+03  0.12509000000E+03 0.  0.
         25    1    3    3    0    0  0.52424083638E+02 -0.51287882354E+02  0.18236485386E+03  0.23298750920E+03  0.12509000000E+03 0.  0.
<mgrwt>
<rscale>  2 0.45633405E+03</rscale>
<asrwt>0</asrwt>
<pdfrwt beam="1">  1       21 0.54161547E-01 0.45633405E+03</pdfrwt>
<pdfrwt beam="2">  1       21 0.20787242E-01 0.45633405E+03</pdfrwt>
<totfact> 0.63918337E+04</totfact>
</mgrwt>
</event>
<event>
 7    0  0.4793433E-002  0.4541176E+03  0.7546771E-02  0.1026501E+00
         21   -1    0    0  502  501  0.00000000000E+00  0.00000000000E+00  0.31546638486E+03  0.31546638486E+03  0.00000000000E+00 0.  1.
         21   -1    0    0  501  502 -0.00000000000E+00 -0.00000000000E+00 -0.16342695179E+03  0.16342695179E+03  0.00000000000E+00 0.  1.
      99926    2    1    2    0    0  0.00000000000E+00  0.00000000000E+00  0.15203943307E+03  0.47889333665E+03  0.45411764849E+03 0.  0.
      99925    2    3    3    0    0 -0.16726853469E+02 -0.40212647201E+02 -0.13602177408E+02  0.26680492149E+03  0.26287449910E+03 0.  0.
         25    1    4    4    0    0 -0.13501515706E+02  0.47935401907E+01  0.24937376359E+02  0.12835361231E+03  0.12509000000E+03 0.  0.
         25    1    3    3    0    0  0.16726853469E+02  0.40212647201E+02  0.16564161048E+03  0.21208841516E+03  0.12509000000E+03 0.  0.
         25    1    4    4    0    0 -0.32253377633E+01 -0.45006187392E+02 -0.38539553767E+02  0.13845130917E+03  0.12509000000E+03 0.  0.
<mgrwt>
<rscale>  2 0.45411765E+03</rscale>
<asrwt>0</asrwt>
<pdfrwt beam="1">  1       21 0.46392115E-01 0.45411765E+03</pdfrwt>
<pdfrwt beam="2">  1       21 0.24033375E-01 0.45411765E+03</pdfrwt>
<totfact> 0.67250496E+04</totfact>
</mgrwt>
</event>
<event>
 7    0  0.4793433E-002  0.4200658E+03  0.7546771E-02  0.1037045E+00
         21   -1    0    0  502  501  0.00000000000E+00  0.00000000000E+00  0.41577478311E+03  0.41577478311E+03  0.00000000000E+00 0. -1.
         21   -1    0    0  501  502 -0.00000000000E+00 -0.00000000000E+00 -0.10610025279E+03  0.10610025279E+03  0.00000000000E+00 0. -1.
      99926    2    1    2    0    0  0.71054273576E-14  0.00000000000E+00  0.30967453032E+03  0.52187503590E+03  0.42006575481E+03 0.  0.
      99925    2    3    3    0    0 -0.53649301085E+02 -0.44847032899E+02  0.16547244015E+03  0.31857413876E+03  0.26309475398E+03 0.  0.
         25    1    4    4    0    0 -0.30469201662E+01 -0.40596183604E+02  0.11406319145E+03  0.17411276113E+03  0.12509000000E+03 0.  0.
         25    1    3    3    0    0  0.53649301085E+02  0.44847032899E+02  0.14420209017E+03  0.20330089714E+03  0.12509000000E+03 0.  0.
         25    1    4    4    0    0 -0.50602380919E+02 -0.42508492957E+01  0.51409248698E+02  0.14446137763E+03  0.12509000000E+03 0.  0.
<mgrwt>
<rscale>  2 0.42006575E+03</rscale>
<asrwt>0</asrwt>
<pdfrwt beam="1">  1       21 0.61143350E-01 0.42006575E+03</pdfrwt>
<pdfrwt beam="2">  1       21 0.15602979E-01 0.42006575E+03</pdfrwt>
<totfact> 0.84928406E+04</totfact>
</mgrwt>
</event>
<event>
 7    0  0.4793433E-002  0.4580319E+03  0.7546771E-02  0.1025354E+00
         21   -1    0    0  502  501  0.00000000000E+00  0.00000000000E+00  0.21175379920E+03  0.21175379920E+03  0.00000000000E+00 0. -1.
         21   -1    0    0  501  502 -0.00000000000E+00 -0.00000000000E+00 -0.24768533036E+03  0.24768533036E+03  0.00000000000E+00 0. -1.
      99926    2    1    2    0    0  0.00000000000E+00  0.14210854715E-13 -0.35931531161E+02  0.45943912956E+03  0.45803191902E+03 0.  0.
      99925    2    3    3    0    0  0.21930644543E+02  0.10839290793E+03 -0.57858051679E+02  0.29104003199E+03  0.26291970336E+03 0.  0.
         25    1    3    3    0    0 -0.21930644543E+02 -0.10839290793E+03  0.21926520518E+02  0.16839909757E+03  0.12509000000E+03 0.  0.
         25    1    4    4    0    0  0.22004459793E+02  0.13098971459E+02 -0.32501883486E+02  0.13175606185E+03  0.12509000000E+03 0.  0.
         25    1    4    4    0    0 -0.73815249537E-01  0.95293936475E+02 -0.25356168193E+02  0.15928397014E+03  0.12509000000E+03 0.  0.
<mgrwt>
<rscale>  2 0.45803192E+03</rscale>
<asrwt>0</asrwt>
<pdfrwt beam="1">  1       21 0.31140264E-01 0.45803192E+03</pdfrwt>
<pdfrwt beam="2">  1       21 0.36424313E-01 0.45803192E+03</pdfrwt>
<totfact> 0.66596179E+04</totfact>
</mgrwt>
</event>
<event>
 7    0  0.4793433E-002  0.4566108E+03  0.7546771E-02  0.1025769E+00
         21   -1    0    0  502  501  0.00000000000E+00  0.00000000000E+00  0.10802617181E+04  0.10802617181E+04  0.00000000000E+00 0.  1.
         21   -1    0    0  501  502 -0.00000000000E+00 -0.00000000000E+00 -0.48250682067E+02  0.48250682067E+02  0.00000000000E+00 0.  1.
      99926    2    1    2    0    0  0.00000000000E+00  0.00000000000E+00  0.10320110360E+04  0.11285124002E+04  0.45661083960E+03 0.  0.
      99925    2    3    3    0    0  0.94009087102E+02 -0.20840769402E+02  0.80211555830E+03  0.84963700701E+03  0.26310003552E+03 0.  0.
         25    1    4    4    0    0  0.51330473871E+02 -0.52095941893E+01  0.52590611404E+03  0.54303471924E+03  0.12509000000E+03 0.  0.
         25    1    4    4    0    0  0.42678613232E+02 -0.15631175213E+02  0.27620944426E+03  0.30660228777E+03  0.12509000000E+03 0.  0.
         25    1    3    3    0    0 -0.94009087102E+02  0.20840769402E+02  0.22989547774E+03  0.27887539317E+03  0.12509000000E+03 0.  0.
<mgrwt>
<rscale>  2 0.45661084E+03</rscale>
<asrwt>0</asrwt>
<pdfrwt beam="1">  1       21 0.15886200E+00 0.45661084E+03</pdfrwt>
<pdfrwt beam="2">  1       21 0.70956892E-02 0.45661084E+03</pdfrwt>
<totfact> 0.34078009E+04</totfact>
</mgrwt>
</event>
<event>
 7    0  0.4793433E-002  0.4556721E+03  0.7546771E-02  0.1026044E+00
         21   -1    0    0  502  501  0.00000000000E+00  0.00000000000E+00  0.37205879519E+02  0.37205879519E+02  0.00000000000E+00 0.  1.
         21   -1    0    0  501  502 -0.00000000000E+00 -0.00000000000E+00 -0.13951898133E+04  0.13951898133E+04  0.00000000000E+00 0.  1.
      99926    2    1    2    0    0  0.00000000000E+00  0.00000000000E+00 -0.13579839338E+04  0.14323956928E+04  0.45567209306E+03 0.  0.
      99925    2    3    3    0    0 -0.59724863874E+01 -0.81642391828E+02 -0.11024984827E+04  0.11363864455E+04  0.26300208783E+03 0.  0.
         25    1    3    3    0    0  0.59724863874E+01  0.81642391828E+02 -0.25548545102E+03  0.29600924736E+03  0.12509000000E+03 0.  0.
         25    1    4    4    0    0 -0.17733437705E+02 -0.61813028340E+02 -0.70981751877E+03  0.72361850677E+03  0.12509000000E+03 0.  0.
         25    1    4    4    0    0  0.11760951317E+02 -0.19829363488E+02 -0.39268096398E+03  0.41276793868E+03  0.12509000000E+03 0.  0.
<mgrwt>
<rscale>  2 0.45567209E+03</rscale>
<asrwt>0</asrwt>
<pdfrwt beam="1">  1       21 0.54714531E-02 0.45567209E+03</pdfrwt>
<pdfrwt beam="2">  1       21 0.20517496E+00 0.45567209E+03</pdfrwt>
<totfact> 0.25348746E+04</totfact>
</mgrwt>
</event>
<event>
 7    0  0.4793433E-002  0.4593207E+03  0.7546771E-02  0.1024978E+00
         21   -1    0    0  502  501  0.00000000000E+00  0.00000000000E+00  0.19553944081E+04  0.19553944081E+04  0.00000000000E+00 0. -1.
         21   -1    0    0  501  502 -0.00000000000E+00 -0.00000000000E+00 -0.26973517805E+02  0.26973517805E+02  0.00000000000E+00 0. -1.
      99926    2    1    2    0    0  0.14210854715E-13 -0.35527136788E-14  0.19284208903E+04  0.19823679259E+04  0.45932065437E+03 0.  0.
      99925    2    3    3    0    0  0.11510612349E+03 -0.74706390666E+01  0.12953528380E+04  0.13268315829E+04  0.26313085006E+03 0.  0.
         25    1    4    4    0    0  0.31991488324E+02  0.26988573996E+02  0.66096675164E+03  0.67400029179E+03  0.12509000000E+03 0.  0.
         25    1    3    3    0    0 -0.11510612349E+03  0.74706390666E+01  0.63306805228E+03  0.65553634302E+03  0.12509000000E+03 0.  0.
         25    1    4    4    0    0  0.83114635167E+02 -0.34459213063E+02  0.63438608639E+03  0.65283129111E+03  0.12509000000E+03 0.  0.
<mgrwt>
<rscale>  2 0.45932065E+03</rscale>
<asrwt>0</asrwt>
<pdfrwt beam="1">  1       21 0.28755791E+00 0.45932065E+03</pdfrwt>
<pdfrwt beam="2">  1       21 0.39666951E-02 0.45932065E+03</pdfrwt>
<totfact> 0.13540001E+04</totfact>
</mgrwt>
</event>
<event>
 7    0  0.4793433E-002  0.4586162E+03  0.7546771E-02  0.1025183E+00
         21   -1    0    0  502  501  0.00000000000E+00  0.00000000000E+00  0.80612120624E+02  0.80612120624E+02  0.00000000000E+00 0.  1.
         21   -1    0    0  501  502 -0.00000000000E+00 -0.00000000000E+00 -0.65228671945E+03  0.65228671945E+03  0.00000000000E+00 0.  1.
      99926    2    1    2    0    0  0.14210854715E-13  0.00000000000E+00 -0.57167459883E+03  0.73289884008E+03  0.45861624790E+03 0.  0.
      99925    2    3    3    0    0 -0.49497313931E+02  0.93798185268E+02 -0.43453843067E+03  0.51911876532E+03  0.26346263707E+03 0.  0.
         25    1    3    3    0    0  0.49497313931E+02 -0.93798185268E+02 -0.13713616816E+03  0.21378007476E+03  0.12509000000E+03 0.  0.
         25    1    4    4    0    0  0.10299168293E+02  0.43476155420E+02 -0.16459465616E+03  0.21150687434E+03  0.12509000000E+03 0.  0.
         25    1    4    4    0    0 -0.59796482224E+02  0.50322029849E+02 -0.26994377451E+03  0.30761189098E+03  0.12509000000E+03 0.  0.
<mgrwt>
<rscale>  2 0.45861625E+03</rscale>
<asrwt>0</asrwt>
<pdfrwt beam="1">  1       21 0.11854724E-01 0.45861625E+03</pdfrwt>
<pdfrwt beam="2">  1       21 0.95924512E-01 0.45861625E+03</pdfrwt>
<totfact> 0.49723895E+04</totfact>
</mgrwt>
</event>
<event>
 7    0  0.4793433E-002  0.4563239E+03  0.7546771E-02  0.1025853E+00
         21   -1    0    0  502  501  0.00000000000E+00  0.00000000000E+00  0.44572385585E+03  0.44572385585E+03  0.00000000000E+00 0. -1.
         21   -1    0    0  501  502 -0.00000000000E+00 -0.00000000000E+00 -0.11679400217E+03  0.11679400217E+03  0.00000000000E+00 0. -1.
      99926    2    1    2    0    0  0.00000000000E+00  0.00000000000E+00  0.32892985368E+03  0.56251785803E+03  0.45632388931E+03 0.  0.
      99925    2    3    3    0    0  0.93512581859E+02 -0.21873844470E+02  0.13004952028E+03  0.30869909759E+03  0.26298134361E+03 0.  0.
         25    1    4    4    0    0  0.78156237416E+02  0.55533435619E+01  0.93177807793E+02  0.17455328423E+03  0.12509000000E+03 0.  0.
         25    1    4    4    0    0  0.15356344443E+02 -0.27427188032E+02  0.36871712489E+02  0.13414581335E+03  0.12509000000E+03 0.  0.
         25    1    3    3    0    0 -0.93512581859E+02  0.21873844470E+02  0.19888033340E+03  0.25381876044E+03  0.12509000000E+03 0.  0.
<mgrwt>
<rscale>  2 0.45632389E+03</rscale>
<asrwt>0</asrwt>
<pdfrwt beam="1">  1       21 0.65547625E-01 0.45632389E+03</pdfrwt>
<pdfrwt beam="2">  1       21 0.17175589E-01 0.45632389E+03</pdfrwt>
<totfact> 0.60411753E+04</totfact>
</mgrwt>
</event>
<event>
 7    0  0.4793433E-002  0.4539102E+03  0.7546771E-02  0.1026562E+00
         21   -1    0    0  502  501  0.00000000000E+00  0.00000000000E+00  0.11184418166E+03  0.11184418166E+03  0.00000000000E+00 0. -1.
         21   -1    0    0  501  502 -0.00000000000E+00 -0.00000000000E+00 -0.46053918488E+03  0.46053918488E+03  0.00000000000E+00 0. -1.
      99926    2    1    2    0    0  0.00000000000E+00  0.00000000000E+00 -0.34869500323E+03  0.57238336654E+03  0.45391024776E+03 0.  0.
      99925    2    3    3    0    0  0.22958993348E+02  0.82769506431E+02 -0.12909442222E+03  0.30545672896E+03  0.26317396689E+03 0.  0.
         25    1    4    4    0    0  0.13016831215E+02  0.51106883177E+02 -0.22104229384E+02  0.13754074473E+03  0.12509000000E+03 0.  0.
         25    1    4    4    0    0  0.99421621327E+01  0.31662623254E+02 -0.10699019284E+03  0.16791598424E+03  0.12509000000E+03 0.  0.
         25    1    3    3    0    0 -0.22958993348E+02 -0.82769506431E+02 -0.21960058100E+03  0.26692663758E+03  0.12509000000E+03 0.  0.
<mgrwt>
<rscale>  2 0.45391025E+03</rscale>
<asrwt>0</asrwt>
<pdfrwt beam="1">  1       21 0.16447674E-01 0.45391025E+03</pdfrwt>
<pdfrwt beam="2">  1       21 0.67726351E-01 0.45391025E+03</pdfrwt>
<totfact> 0.60934559E+04</totfact>
</mgrwt>
</event>
<event>
 7    0  0.4793433E-002  0.4534606E+03  0.7546771E-02  0.1026695E+00
         21   -1    0    0  502  501  0.00000000000E+00  0.00000000000E+00  0.78672302304E+02  0.78672302304E+02  0.00000000000E+00 0.  1.
         21   -1    0    0  501  502 -0.00000000000E+00 -0.00000000000E+00 -0.65342714445E+03  0.65342714445E+03  0.00000000000E+00 0.  1.
      99926    2    1    2    0    0  0.00000000000E+00  0.00000000000E+00 -0.57475484214E+03  0.73209944675E+03  0.45346055106E+03 0.  0.
      99925    2    3    3    0    0  0.10027175389E+03 -0.40714286779E+02 -0.40723573538E+03  0.49668016757E+03  0.26294137543E+03 0.  0.
         25    1    4    4    0    0  0.20828322694E+02 -0.39956525114E+02 -0.15575384330E+03  0.20478552373E+03  0.12509000000E+03 0.  0.
         25    1    3    3    0    0 -0.10027175389E+03  0.40714286779E+02 -0.16751910677E+03  0.23541927918E+03  0.12509000000E+03 0.  0.
         25    1    4    4    0    0  0.79443431199E+02 -0.75776166561E+00 -0.25148189207E+03  0.29189464384E+03  0.12509000000E+03 0.  0.
<mgrwt>
<rscale>  2 0.45346055E+03</rscale>
<asrwt>0</asrwt>
<pdfrwt beam="1">  1       21 0.11569456E-01 0.45346055E+03</pdfrwt>
<pdfrwt beam="2">  1       21 0.96092227E-01 0.45346055E+03</pdfrwt>
<totfact> 0.51819021E+04</totfact>
</mgrwt>
</event>
<event>
 7    0  0.4793433E-002  0.4521213E+03  0.7546771E-02  0.1027091E+00
         21   -1    0    0  502  501  0.00000000000E+00  0.00000000000E+00  0.65582762502E+03  0.65582762502E+03  0.00000000000E+00 0. -1.
         21   -1    0    0  501  502 -0.00000000000E+00 -0.00000000000E+00 -0.77922023973E+02  0.77922023973E+02  0.00000000000E+00 0. -1.
      99926    2    1    2    0    0 -0.71054273576E-14 -0.14210854715E-13  0.57790560105E+03  0.73374964900E+03  0.45212129310E+03 0.  0.
      99925    2    3    3    0    0 -0.43315720247E+02 -0.73888388834E+02  0.47758606256E+03  0.55196058572E+03  0.26312790694E+03 0.  0.
         25    1    4    4    0    0 -0.41817516624E+02 -0.32665796918E+02  0.31253319260E+03  0.34079357911E+03  0.12509000000E+03 0.  0.
         25    1    4    4    0    0 -0.14982036233E+01 -0.41222591917E+02  0.16505286996E+03  0.21116700661E+03  0.12509000000E+03 0.  0.
         25    1    3    3    0    0  0.43315720247E+02  0.73888388834E+02  0.10031953849E+03  0.18178906328E+03  0.12509000000E+03 0.  0.
<mgrwt>
<rscale>  2 0.45212129E+03</rscale>
<asrwt>0</asrwt>
<pdfrwt beam="1">  1       21 0.96445236E-01 0.45212129E+03</pdfrwt>
<pdfrwt beam="2">  1       21 0.11459122E-01 0.45212129E+03</pdfrwt>
<totfact> 0.52281969E+04</totfact>
</mgrwt>
</event>
<event>
 7    0  0.4793433E-002  0.4479375E+03  0.7546771E-02  0.1028339E+00
         21   -1    0    0  502  501  0.00000000000E+00  0.00000000000E+00  0.52617778874E+02  0.52617778874E+02  0.00000000000E+00 0. -1.
         21   -1    0    0  501  502 -0.00000000000E+00 -0.00000000000E+00 -0.95332780861E+03  0.95332780861E+03  0.00000000000E+00 0. -1.
      99926    2    1    2    0    0  0.00000000000E+00  0.14210854715E-13 -0.90071002973E+03  0.10059455875E+04  0.44793745915E+03 0.  0.
      99925    2    3    3    0    0  0.30695755272E+02  0.66320750753E+02 -0.74366702756E+03  0.79228538060E+03  0.26331503007E+03 0.  0.
         25    1    3    3    0    0 -0.30695755272E+02 -0.66320750753E+02 -0.15704300217E+03  0.21366020688E+03  0.12509000000E+03 0.  0.
         25    1    4    4    0    0  0.64806717963E+01  0.44202365641E+02 -0.26455868308E+03  0.29603150699E+03  0.12509000000E+03 0.  0.
         25    1    4    4    0    0  0.24215083476E+02  0.22118385111E+02 -0.47910834448E+03  0.49625387362E+03  0.12509000000E+03 0.  0.
<mgrwt>
<rscale>  2 0.44793746E+03</rscale>
<asrwt>0</asrwt>
<pdfrwt beam="1">  1       21 0.77379088E-02 0.44793746E+03</pdfrwt>
<pdfrwt beam="2">  1       21 0.14019526E+00 0.44793746E+03</pdfrwt>
<totfact> 0.41159959E+04</totfact>
</mgrwt>
</event>
<event>
 7    0  0.4793433E-002  0.4544715E+03  0.7546771E-02  0.1026397E+00
         21   -1    0    0  502  501  0.00000000000E+00  0.00000000000E+00  0.36706167789E+03  0.36706167789E+03  0.00000000000E+00 0.  1.
         21   -1    0    0  501  502 -0.00000000000E+00 -0.00000000000E+00 -0.14067414866E+03  0.14067414866E+03  0.00000000000E+00 0.  1.
      99926    2    1    2    0    0  0.14210854715E-13  0.00000000000E+00  0.22638752924E+03  0.50773582655E+03  0.45447151305E+03 0.  0.
      99925    2    3    3    0    0  0.65637044896E+02 -0.91427359022E+02  0.14939100759E+03  0.32268676255E+03  0.26294845491E+03 0.  0.
         25    1    3    3    0    0 -0.65637044896E+02  0.91427359022E+02  0.76996521649E+02  0.18504906400E+03  0.12509000000E+03 0.  0.
         25    1    4    4    0    0  0.68978441494E+02 -0.31838313773E+02  0.62766383717E+02  0.15924456236E+03  0.12509000000E+03 0.  0.
         25    1    4    4    0    0 -0.33413965985E+01 -0.59589045249E+02  0.86624623869E+02  0.16344220020E+03  0.12509000000E+03 0.  0.
<mgrwt>
<rscale>  2 0.45447151E+03</rscale>
<asrwt>0</asrwt>
<pdfrwt beam="1">  1       21 0.53979659E-01 0.45447151E+03</pdfrwt>
<pdfrwt beam="2">  1       21 0.20687375E-01 0.45447151E+03</pdfrwt>
<totfact> 0.65002765E+04</totfact>
</mgrwt>
</event>
<event>
 7    0  0.4793433E-002  0.4247093E+03  0.7546771E-02  0.1035544E+00
         21   -1    0    0  502  501  0.00000000000E+00  0.00000000000E+00  0.21899963312E+03  0.21899963312E+03  0.00000000000E+00 0.  1.
         21   -1    0    0  501  502 -0.00000000000E+00 -0.00000000000E+00 -0.20591129448E+03  0.20591129448E+03  0.00000000000E+00 0.  1.
      99926    2    1    2    0    0  0.31918911958E-15  0.14210854715E-13  0.13088338639E+02  0.42491092759E+03  0.42470930267E+03 0.  0.
      99925    2    3    3    0    0  0.10652497454E+00 -0.69298050529E+02  0.51483083770E+02  0.27684372762E+03  0.26303937054E+03 0.  0.
         25    1    4    4    0    0  0.36083571426E+02 -0.50465506687E+02  0.15454716567E+02  0.14048184173E+03  0.12509000000E+03 0.  0.
         25    1    4    4    0    0 -0.35977046451E+02 -0.18832543842E+02  0.36028367203E+02  0.13636188589E+03  0.12509000000E+03 0.  0.
         25    1    3    3    0    0 -0.10652497454E+00  0.69298050529E+02 -0.38394745131E+02  0.14806719997E+03  0.12509000000E+03 0.  0.
<mgrwt>
<rscale>  2 0.42470930E+03</rscale>
<asrwt>0</asrwt>
<pdfrwt beam="1">  1       21 0.32205828E-01 0.42470930E+03</pdfrwt>
<pdfrwt beam="2">  1       21 0.30281073E-01 0.42470930E+03</pdfrwt>
<totfact> 0.90862171E+04</totfact>
</mgrwt>
</event>
<event>
 7    0  0.4793433E-002  0.4545594E+03  0.7546771E-02  0.1026371E+00
         21   -1    0    0  502  501  0.00000000000E+00  0.00000000000E+00  0.87675316331E+03  0.87675316331E+03  0.00000000000E+00 0.  1.
         21   -1    0    0  501  502 -0.00000000000E+00 -0.00000000000E+00 -0.58917455553E+02  0.58917455553E+02  0.00000000000E+00 0.  1.
      99926    2    1    2    0    0  0.00000000000E+00  0.00000000000E+00  0.81783570776E+03  0.93567061886E+03  0.45455941539E+03 0.  0.
      99925    2    3    3    0    0  0.57964674298E+02 -0.30652124016E+02  0.70373854027E+03  0.75410760528E+03  0.26292753964E+03 0.  0.
         25    1    4    4    0    0  0.30459243557E+02  0.16207604941E+02  0.41433426977E+03  0.43417835872E+03  0.12509000000E+03 0.  0.
         25    1    4    4    0    0  0.27505430741E+02 -0.46859728957E+02  0.28940427051E+03  0.31992924656E+03  0.12509000000E+03 0.  0.
         25    1    3    3    0    0 -0.57964674298E+02  0.30652124016E+02  0.11409716748E+03  0.18156301358E+03  0.12509000000E+03 0.  0.
<mgrwt>
<rscale>  2 0.45455942E+03</rscale>
<asrwt>0</asrwt>
<pdfrwt beam="1">  1       21 0.12893428E+00 0.45455942E+03</pdfrwt>
<pdfrwt beam="2">  1       21 0.86643322E-02 0.45455942E+03</pdfrwt>
<totfact> 0.41870654E+04</totfact>
</mgrwt>
</event>
<event>
 7    0  0.4793433E-002  0.4590723E+03  0.7546771E-02  0.1025051E+00
         21   -1    0    0  502  501  0.00000000000E+00  0.00000000000E+00  0.45502096182E+03  0.45502096182E+03  0.00000000000E+00 0.  1.
         21   -1    0    0  501  502 -0.00000000000E+00 -0.00000000000E+00 -0.11578994327E+03  0.11578994327E+03  0.00000000000E+00 0.  1.
      99926    2    1    2    0    0  0.00000000000E+00  0.00000000000E+00  0.33923101855E+03  0.57081090509E+03  0.45907233137E+03 0.  0.
      99925    2    3    3    0    0  0.91864534086E+02  0.26924040655E+02  0.29608049441E+03  0.40749075195E+03  0.26309894938E+03 0.  0.
         25    1    3    3    0    0 -0.91864534086E+02 -0.26924040655E+02  0.43150524138E+02  0.16332015314E+03  0.12509000000E+03 0.  0.
         25    1    4    4    0    0  0.83107394254E+02  0.30043310535E+02  0.14250821988E+03  0.20920215181E+03  0.12509000000E+03 0.  0.
         25    1    4    4    0    0  0.87571398325E+01 -0.31192698792E+01  0.15357227453E+03  0.19828860014E+03  0.12509000000E+03 0.  0.
<mgrwt>
<rscale>  2 0.45907233E+03</rscale>
<asrwt>0</asrwt>
<pdfrwt beam="1">  1       21 0.66914847E-01 0.45907233E+03</pdfrwt>
<pdfrwt beam="2">  1       21 0.17027933E-01 0.45907233E+03</pdfrwt>
<totfact> 0.58601820E+04</totfact>
</mgrwt>
</event>
<event>
 7    0  0.4793433E-002  0.4566351E+03  0.7546771E-02  0.1025762E+00
         21   -1    0    0  502  501  0.00000000000E+00  0.00000000000E+00  0.37532754369E+03  0.37532754369E+03  0.00000000000E+00 0. -1.
         21   -1    0    0  501  502 -0.00000000000E+00 -0.00000000000E+00 -0.13888908605E+03  0.13888908605E+03  0.00000000000E+00 0. -1.
      99926    2    1    2    0    0  0.00000000000E+00 -0.14210854715E-13  0.23643845765E+03  0.51421662974E+03  0.45663508193E+03 0.  0.
      99925    2    3    3    0    0  0.19496904971E+02 -0.68159263645E+02  0.47613556827E+02  0.27688107447E+03  0.26338235340E+03 0.  0.
         25    1    3    3    0    0 -0.19496904971E+02  0.68159263645E+02  0.18882490082E+03  0.23733555527E+03  0.12509000000E+03 0.  0.
         25    1    4    4    0    0  0.97807025983E+01 -0.69529287185E+02  0.22744743101E+01  0.14346659978E+03  0.12509000000E+03 0.  0.
         25    1    4    4    0    0  0.97162023729E+01  0.13700235393E+01  0.45339082517E+02  0.13341447469E+03  0.12509000000E+03 0.  0.
<mgrwt>
<rscale>  2 0.45663508E+03</rscale>
<asrwt>0</asrwt>
<pdfrwt beam="1">  1       21 0.55195227E-01 0.45663508E+03</pdfrwt>
<pdfrwt beam="2">  1       21 0.20424866E-01 0.45663508E+03</pdfrwt>
<totfact> 0.63455646E+04</totfact>
</mgrwt>
</event>
<event>
 7    0  0.4793433E-002  0.4633572E+03  0.7546771E-02  0.1023812E+00
         21   -1    0    0  502  501  0.00000000000E+00  0.00000000000E+00  0.35699754005E+03  0.35699754005E+03  0.00000000000E+00 0.  1.
         21   -1    0    0  501  502 -0.00000000000E+00 -0.00000000000E+00 -0.15035112927E+03  0.15035112927E+03  0.00000000000E+00 0.  1.
      99926    2    1    2    0    0  0.00000000000E+00  0.00000000000E+00  0.20664641078E+03  0.50734866932E+03  0.46335724141E+03 0.  0.
      99925    2    3    3    0    0 -0.49961588629E+02 -0.10916612222E+03  0.11378160030E+03  0.31066419178E+03  0.26296879075E+03 0.  0.
         25    1    4    4    0    0 -0.14228121177E+02 -0.85180619782E+02  0.88789529068E+02  0.17603768344E+03  0.12509000000E+03 0.  0.
         25    1    4    4    0    0 -0.35733467452E+02 -0.23985502438E+02  0.24992071230E+02  0.13462650834E+03  0.12509000000E+03 0.  0.
         25    1    3    3    0    0  0.49961588629E+02  0.10916612222E+03  0.92864810485E+02  0.19668447754E+03  0.12509000000E+03 0.  0.
<mgrwt>
<rscale>  2 0.46335724E+03</rscale>
<asrwt>0</asrwt>
<pdfrwt beam="1">  1       21 0.52499638E-01 0.46335724E+03</pdfrwt>
<pdfrwt beam="2">  1       21 0.22110460E-01 0.46335724E+03</pdfrwt>
<totfact> 0.60634190E+04</totfact>
</mgrwt>
</event>
<event>
 7    0  0.4793433E-002  0.4534288E+03  0.7546771E-02  0.1026704E+00
         21   -1    0    0  502  501  0.00000000000E+00  0.00000000000E+00  0.10156103214E+03  0.10156103214E+03  0.00000000000E+00 0.  1.
         21   -1    0    0  501  502 -0.00000000000E+00 -0.00000000000E+00 -0.50609395939E+03  0.50609395939E+03  0.00000000000E+00 0.  1.
      99926    2    1    2    0    0  0.71054273576E-14  0.00000000000E+00 -0.40453292725E+03  0.60765499152E+03  0.45342882517E+03 0.  0.
      99925    2    3    3    0    0  0.58857376912E+02  0.23483234091E+02 -0.13185304522E+03  0.30103229298E+03  0.26309610940E+03 0.  0.
         25    1    4    4    0    0  0.40837192552E+01  0.43311963392E+02 -0.70249415346E+02  0.14991694832E+03  0.12509000000E+03 0.  0.
         25    1    4    4    0    0  0.54773657657E+02 -0.19828729301E+02 -0.61603629873E+02  0.15111534466E+03  0.12509000000E+03 0.  0.
         25    1    3    3    0    0 -0.58857376912E+02 -0.23483234091E+02 -0.27267988203E+03  0.30662269855E+03  0.12509000000E+03 0.  0.
<mgrwt>
<rscale>  2 0.45342883E+03</rscale>
<asrwt>0</asrwt>
<pdfrwt beam="1">  1       21 0.14935446E-01 0.45342883E+03</pdfrwt>
<pdfrwt beam="2">  1       21 0.74425584E-01 0.45342883E+03</pdfrwt>
<totfact> 0.58937638E+04</totfact>
</mgrwt>
</event>
<event>
 7    0  0.4793433E-002  0.4202746E+03  0.7546771E-02  0.1036977E+00
         21   -1    0    0  502  501  0.00000000000E+00  0.00000000000E+00  0.30530442956E+03  0.30530442956E+03  0.00000000000E+00 0.  1.
         21   -1    0    0  501  502 -0.00000000000E+00 -0.00000000000E+00 -0.14463491456E+03  0.14463491456E+03  0.00000000000E+00 0.  1.
      99926    2    1    2    0    0 -0.88817841970E-15  0.00000000000E+00  0.16066951499E+03  0.44993934412E+03  0.42027457732E+03 0.  0.
      99925    2    3    3    0    0  0.55036143934E+01 -0.75635014304E+02  0.96052931851E+02  0.29002137741E+03  0.26293590184E+03 0.  0.
         25    1    3    3    0    0 -0.55036143934E+01  0.75635014304E+02  0.64616583143E+02  0.15991796671E+03  0.12509000000E+03 0.  0.
         25    1    4    4    0    0 -0.20664429195E+02 -0.31396372541E+02  0.81609599006E+02  0.15401423828E+03  0.12509000000E+03 0.  0.
         25    1    4    4    0    0  0.26168043589E+02 -0.44238641763E+02  0.14443332846E+02  0.13600713913E+03  0.12509000000E+03 0.  0.
<mgrwt>
<rscale>  2 0.42027458E+03</rscale>
<asrwt>0</asrwt>
<pdfrwt beam="1">  1       21 0.44897710E-01 0.42027458E+03</pdfrwt>
<pdfrwt beam="2">  1       21 0.21269840E-01 0.42027458E+03</pdfrwt>
<totfact> 0.91749756E+04</totfact>
</mgrwt>
</event>
<event>
 7    0  0.4793433E-002  0.4483853E+03  0.7546771E-02  0.1028205E+00
         21   -1    0    0  502  501  0.00000000000E+00  0.00000000000E+00  0.77332652650E+02  0.77332652650E+02  0.00000000000E+00 0.  1.
         21   -1    0    0  501  502 -0.00000000000E+00 -0.00000000000E+00 -0.64994982638E+03  0.64994982638E+03  0.00000000000E+00 0.  1.
      99926    2    1    2    0    0  0.00000000000E+00  0.00000000000E+00 -0.57261717373E+03  0.72728247903E+03  0.44838529933E+03 0.  0.
      99925    2    3    3    0    0 -0.19731868045E+02  0.24725525863E+02 -0.19690969966E+03  0.33003656977E+03  0.26296389357E+03 0.  0.
         25    1    3    3    0    0  0.19731868045E+02 -0.24725525863E+02 -0.37570747407E+03  0.39724590925E+03  0.12509000000E+03 0.  0.
         25    1    4    4    0    0 -0.40958045986E+02  0.11769683380E+02 -0.13258258686E+03  0.18719438404E+03  0.12509000000E+03 0.  0.
         25    1    4    4    0    0  0.21226177941E+02  0.12955842484E+02 -0.64327112795E+02  0.14284218573E+03  0.12509000000E+03 0.  0.
<mgrwt>
<rscale>  2 0.44838530E+03</rscale>
<asrwt>0</asrwt>
<pdfrwt beam="1">  1       21 0.11372449E-01 0.44838530E+03</pdfrwt>
<pdfrwt beam="2">  1       21 0.95580857E-01 0.44838530E+03</pdfrwt>
<totfact> 0.54212090E+04</totfact>
</mgrwt>
</event>
<event>
 7    0  0.4793433E-002  0.4529522E+03  0.7546771E-02  0.1026845E+00
         21   -1    0    0  502  501  0.00000000000E+00  0.00000000000E+00  0.68328365941E+02  0.68328365941E+02  0.00000000000E+00 0.  1.
         21   -1    0    0  501  502 -0.00000000000E+00 -0.00000000000E+00 -0.75066083481E+03  0.75066083481E+03  0.00000000000E+00 0.  1.
      99926    2    1    2    0    0  0.00000000000E+00  0.00000000000E+00 -0.68233246887E+03  0.81898920075E+03  0.45295221920E+03 0.  0.
      99925    2    3    3    0    0  0.43656429588E+02 -0.91650937986E+02 -0.34865827949E+03  0.44846018564E+03  0.26315045881E+03 0.  0.
         25    1    3    3    0    0 -0.43656429588E+02  0.91650937986E+02 -0.33367418938E+03  0.37052901511E+03  0.12509000000E+03 0.  0.
         25    1    4    4    0    0  0.49341764457E+02 -0.61883869497E+02 -0.14280678688E+03  0.20568303163E+03  0.12509000000E+03 0.  0.
         25    1    4    4    0    0 -0.56853348688E+01 -0.29767068489E+02 -0.20585149261E+03  0.24277715401E+03  0.12509000000E+03 0.  0.
<mgrwt>
<rscale>  2 0.45295222E+03</rscale>
<asrwt>0</asrwt>
<pdfrwt beam="1">  1       21 0.10048290E-01 0.45295222E+03</pdfrwt>
<pdfrwt beam="2">  1       21 0.11039129E+00 0.45295222E+03</pdfrwt>
<totfact> 0.47620596E+04</totfact>
</mgrwt>
</event>
<event>
 7    0  0.4793433E-002  0.4553425E+03  0.7546771E-02  0.1026141E+00
         21   -1    0    0  502  501  0.00000000000E+00  0.00000000000E+00  0.18935766426E+03  0.18935766426E+03  0.00000000000E+00 0. -1.
         21   -1    0    0  501  502 -0.00000000000E+00 -0.00000000000E+00 -0.27373699910E+03  0.27373699910E+03  0.00000000000E+00 0. -1.
      99926    2    1    2    0    0  0.00000000000E+00  0.00000000000E+00 -0.84379334843E+02  0.46309466337E+03  0.45534250306E+03 0.  0.
      99925    2    3    3    0    0  0.70892178320E+02 -0.64761480077E+02 -0.11462750732E+03  0.30252626583E+03  0.26298845190E+03 0.  0.
         25    1    3    3    0    0 -0.70892178320E+02  0.64761480077E+02  0.30248172476E+02  0.16056839753E+03  0.12509000000E+03 0.  0.
         25    1    4    4    0    0  0.51102811593E+02 -0.61880785127E+02 -0.89157441104E+02  0.17331268368E+03  0.12509000000E+03 0.  0.
         25    1    4    4    0    0  0.19789366727E+02 -0.28806949498E+01 -0.25470066214E+02  0.12921358215E+03  0.12509000000E+03 0.  0.
<mgrwt>
<rscale>  2 0.45534250E+03</rscale>
<asrwt>0</asrwt>
<pdfrwt beam="1">  1       21 0.27846716E-01 0.45534250E+03</pdfrwt>
<pdfrwt beam="2">  1       21 0.40255441E-01 0.45534250E+03</pdfrwt>
<totfact> 0.67767123E+04</totfact>
</mgrwt>
</event>
<event>
 7    0  0.4793433E-002  0.4494352E+03  0.7546771E-02  0.1027891E+00
         21   -1    0    0  502  501  0.00000000000E+00  0.00000000000E+00  0.22823488173E+03  0.22823488173E+03  0.00000000000E+00 0.  1.
         21   -1    0    0  501  502 -0.00000000000E+00 -0.00000000000E+00 -0.22125447632E+03  0.22125447632E+03  0.00000000000E+00 0.  1.
      99926    2    1    2    0    0  0.00000000000E+00  0.00000000000E+00  0.69804054143E+01  0.44948935805E+03  0.44943515320E+03 0.  0.
      99925    2    3    3    0    0  0.88376507329E+02  0.60423138513E+01 -0.57731830177E+02  0.28310997789E+03  0.26262402549E+03 0.  0.
         25    1    4    4    0    0  0.37963197534E+02 -0.12275369067E+02  0.88405771743E+01  0.13159617380E+03  0.12509000000E+03 0.  0.
         25    1    3    3    0    0 -0.88376507329E+02 -0.60423138513E+01  0.64712235591E+02  0.16637938015E+03  0.12509000000E+03 0.  0.
         25    1    4    4    0    0  0.50413309795E+02  0.18317682918E+02 -0.66572407351E+02  0.15151380410E+03  0.12509000000E+03 0.  0.
<mgrwt>
<rscale>  2 0.44943515E+03</rscale>
<asrwt>0</asrwt>
<pdfrwt beam="1">  1       21 0.33563954E-01 0.44943515E+03</pdfrwt>
<pdfrwt beam="2">  1       21 0.32537423E-01 0.44943515E+03</pdfrwt>
<totfact> 0.72099967E+04</totfact>
</mgrwt>
</event>
<event>
 7    0  0.4793433E-002  0.4372790E+03  0.7546771E-02  0.1031585E+00
         21   -1    0    0  502  501  0.00000000000E+00  0.00000000000E+00  0.37272567609E+03  0.37272567609E+03  0.00000000000E+00 0. -1.
         21   -1    0    0  501  502 -0.00000000000E+00 -0.00000000000E+00 -0.12825312962E+03  0.12825312962E+03  0.00000000000E+00 0. -1.
      99926    2    1    2    0    0 -0.71054273576E-14  0.00000000000E+00  0.24447254646E+03  0.50097880571E+03  0.43727901596E+03 0.  0.
      99925    2    3    3    0    0  0.33866296391E+02  0.78167836917E+02  0.10666877226E+03  0.29629728470E+03  0.26297664760E+03 0.  0.
         25    1    4    4    0    0  0.55411672771E+02  0.30408189107E+02  0.64427127933E+02  0.15425133503E+03  0.12509000000E+03 0.  0.
         25    1    3    3    0    0 -0.33866296391E+02 -0.78167836917E+02  0.13780377420E+03  0.20468152101E+03  0.12509000000E+03 0.  0.
         25    1    4    4    0    0 -0.21545376380E+02  0.47759647810E+02  0.42241644324E+02  0.14204594967E+03  0.12509000000E+03 0.  0.
<mgrwt>
<rscale>  2 0.43727902E+03</rscale>
<asrwt>0</asrwt>
<pdfrwt beam="1">  1       21 0.54812599E-01 0.43727902E+03</pdfrwt>
<pdfrwt beam="2">  1       21 0.18860754E-01 0.43727902E+03</pdfrwt>
<totfact> 0.75239161E+04</totfact>
</mgrwt>
</event>
<event>
 7    0  0.4793433E-002  0.4582183E+03  0.7546771E-02  0.1025299E+00
         21   -1    0    0  502  501  0.00000000000E+00  0.00000000000E+00  0.15758527453E+03  0.15758527453E+03  0.00000000000E+00 0. -1.
         21   -1    0    0  501  502 -0.00000000000E+00 -0.00000000000E+00 -0.33309585216E+03  0.33309585216E+03  0.00000000000E+00 0. -1.
      99926    2    1    2    0    0  0.00000000000E+00  0.00000000000E+00 -0.17551057763E+03  0.49068112669E+03  0.45821829430E+03 0.  0.
      99925    2    3    3    0    0 -0.84947595916E+02  0.32275693514E+02 -0.18794852583E+03  0.33556818365E+03  0.26272332038E+03 0.  0.
         25    1    4    4    0    0 -0.70571322391E+02  0.47052953361E+02 -0.10628066840E+03  0.18476303889E+03  0.12509000000E+03 0.  0.
         25    1    3    3    0    0  0.84947595916E+02 -0.32275693514E+02  0.12437948195E+02  0.15511294304E+03  0.12509000000E+03 0.  0.
         25    1    4    4    0    0 -0.14376273525E+02 -0.14777259847E+02 -0.81667857425E+02  0.15080514476E+03  0.12509000000E+03 0.  0.
<mgrwt>
<rscale>  2 0.45821829E+03</rscale>
<asrwt>0</asrwt>
<pdfrwt beam="1">  1       21 0.23174305E-01 0.45821829E+03</pdfrwt>
<pdfrwt beam="2">  1       21 0.48984684E-01 0.45821829E+03</pdfrwt>
<totfact> 0.64272573E+04</totfact>
</mgrwt>
</event>
<event>
 7    0  0.4793433E-002  0.4181389E+03  0.7546771E-02  0.1037674E+00
         21   -1    0    0  502  501  0.00000000000E+00  0.00000000000E+00  0.88550584238E+03  0.88550584238E+03  0.00000000000E+00 0. -1.
         21   -1    0    0  501  502 -0.00000000000E+00 -0.00000000000E+00 -0.49361661650E+02  0.49361661650E+02  0.00000000000E+00 0. -1.
      99926    2    1    2    0    0  0.00000000000E+00  0.00000000000E+00  0.83614418073E+03  0.93486750403E+03  0.41813892323E+03 0.  0.
      99925    2    3    3    0    0 -0.60142160810E+02  0.39977309507E+02  0.57708863357E+03  0.63826583614E+03  0.26293862744E+03 0.  0.
         25    1    4    4    0    0 -0.51222322057E+02 -0.14112625265E+02  0.27578403426E+03  0.30745281609E+03  0.12509000000E+03 0.  0.
         25    1    3    3    0    0  0.60142160810E+02 -0.39977309507E+02  0.25905554715E+03  0.29660166789E+03  0.12509000000E+03 0.  0.
         25    1    4    4    0    0 -0.89198387530E+01  0.54089934771E+02  0.30130459931E+03  0.33081302005E+03  0.12509000000E+03 0.  0.
<mgrwt>
<rscale>  2 0.41813892E+03</rscale>
<asrwt>0</asrwt>
<pdfrwt beam="1">  1       21 0.13022144E+00 0.41813892E+03</pdfrwt>
<pdfrwt beam="2">  1       21 0.72590684E-02 0.41813892E+03</pdfrwt>
<totfact> 0.56328764E+04</totfact>
</mgrwt>
</event>
<event>
 7    0  0.4793433E-002  0.4308648E+03  0.7546771E-02  0.1033587E+00
         21   -1    0    0  502  501  0.00000000000E+00  0.00000000000E+00  0.18587194437E+03  0.18587194437E+03  0.00000000000E+00 0. -1.
         21   -1    0    0  501  502 -0.00000000000E+00 -0.00000000000E+00 -0.24969401612E+03  0.24969401612E+03  0.00000000000E+00 0. -1.
      99926    2    1    2    0    0  0.71054273576E-14  0.00000000000E+00 -0.63822071754E+02  0.43556596049E+03  0.43086476891E+03 0.  0.
      99925    2    3    3    0    0  0.47989874304E+02  0.73958189762E+02 -0.31423299116E+02  0.27913696561E+03  0.26297752751E+03 0.  0.
         25    1    3    3    0    0 -0.47989874304E+02 -0.73958189762E+02 -0.32398772638E+02  0.15642899487E+03  0.12509000000E+03 0.  0.
         25    1    4    4    0    0  0.43706218293E+02  0.41447930106E+02  0.19411915272E+02  0.14018735671E+03  0.12509000000E+03 0.  0.
         25    1    4    4    0    0  0.42836560107E+01  0.32510259656E+02 -0.50835214387E+02  0.13894960890E+03  0.12509000000E+03 0.  0.
<mgrwt>
<rscale>  2 0.43086477E+03</rscale>
<asrwt>0</asrwt>
<pdfrwt beam="1">  1       21 0.27334110E-01 0.43086477E+03</pdfrwt>
<pdfrwt beam="2">  1       21 0.36719708E-01 0.43086477E+03</pdfrwt>
<totfact> 0.85266026E+04</totfact>
</mgrwt>
</event>
<event>
 7    0  0.4793433E-002  0.4431735E+03  0.7546771E-02  0.1029778E+00
         21   -1    0    0  502  501  0.00000000000E+00  0.00000000000E+00  0.48333219180E+02  0.48333219180E+02  0.00000000000E+00 0. -1.
         21   -1    0    0  501  502 -0.00000000000E+00 -0.00000000000E+00 -0.10158785106E+04  0.10158785106E+04  0.00000000000E+00 0. -1.
      99926    2    1    2    0    0 -0.14210854715E-13  0.71054273576E-14 -0.96754529145E+03  0.10642117298E+04  0.44317345911E+03 0.  0.
      99925    2    3    3    0    0 -0.87240636429E+02  0.33459936187E+02 -0.51922972653E+03  0.58948565108E+03  0.26298921640E+03 0.  0.
         25    1    4    4    0    0 -0.84270223847E+01 -0.54739284473E+01 -0.25514982210E+03  0.28434120070E+03  0.12509000000E+03 0.  0.
         25    1    3    3    0    0  0.87240636429E+02 -0.33459936187E+02 -0.44831556492E+03  0.47472607873E+03  0.12509000000E+03 0.  0.
         25    1    4    4    0    0 -0.78813614045E+02  0.38933864634E+02 -0.26407990443E+03  0.30514445038E+03  0.12509000000E+03 0.  0.
<mgrwt>
<rscale>  2 0.44317346E+03</rscale>
<asrwt>0</asrwt>
<pdfrwt beam="1">  1       21 0.71078264E-02 0.44317346E+03</pdfrwt>
<pdfrwt beam="2">  1       21 0.14939390E+00 0.44317346E+03</pdfrwt>
<totfact> 0.40358359E+04</totfact>
</mgrwt>
</event>
<event>
 7    0  0.4793433E-002  0.4557343E+03  0.7546771E-02  0.1026026E+00
         21   -1    0    0  502  501  0.00000000000E+00  0.00000000000E+00  0.10740077157E+03  0.10740077157E+03  0.00000000000E+00 0.  1.
         21   -1    0    0  501  502 -0.00000000000E+00 -0.00000000000E+00 -0.48345507650E+03  0.48345507650E+03  0.00000000000E+00 0.  1.
      99926    2    1    2    0    0 -0.14210854715E-13  0.00000000000E+00 -0.37605430493E+03  0.59085584807E+03  0.45573434470E+03 0.  0.
      99925    2    3    3    0    0 -0.70544393857E+02  0.29886173230E+02 -0.34562135834E+03  0.44104474303E+03  0.26305255588E+03 0.  0.
         25    1    4    4    0    0 -0.76625150569E+01  0.22360834182E+02 -0.21245434659E+03  0.24767534905E+03  0.12509000000E+03 0.  0.
         25    1    4    4    0    0 -0.62881878800E+02  0.75253390478E+01 -0.13316701175E+03  0.19336939398E+03  0.12509000000E+03 0.  0.
         25    1    3    3    0    0  0.70544393857E+02 -0.29886173230E+02 -0.30432946587E+02  0.14981110504E+03  0.12509000000E+03 0.  0.
<mgrwt>
<rscale>  2 0.45573434E+03</rscale>
<asrwt>0</asrwt>
<pdfrwt beam="1">  1       21 0.15794231E-01 0.45573434E+03</pdfrwt>
<pdfrwt beam="2">  1       21 0.71096335E-01 0.45573434E+03</pdfrwt>
<totfact> 0.58902071E+04</totfact>
</mgrwt>
</event>
<event>
 7    0  0.4793433E-002  0.4753785E+03  0.7546771E-02  0.1020413E+00
         21   -1    0    0  502  501  0.00000000000E+00  0.00000000000E+00  0.17783621162E+03  0.17783621162E+03  0.00000000000E+00 0. -1.
         21   -1    0    0  501  502 -0.00000000000E+00 -0.00000000000E+00 -0.31768661400E+03  0.31768661400E+03  0.00000000000E+00 0. -1.
      99926    2    1    2    0    0 -0.35527136788E-14  0.14210854715E-13 -0.13985040238E+03  0.49552282562E+03  0.47537851831E+03 0.  0.
      99925    2    3    3    0    0  0.30318942575E+02 -0.12784749271E+03 -0.85863234224E+02  0.30624434799E+03  0.26296175770E+03 0.  0.
         25    1    4    4    0    0  0.55882399401E+02 -0.67573088233E+02 -0.45911257411E+02  0.15951274706E+03  0.12509000000E+03 0.  0.
         25    1    4    4    0    0 -0.25563456826E+02 -0.60274404480E+02 -0.39951976813E+02  0.14673160093E+03  0.12509000000E+03 0.  0.
         25    1    3    3    0    0 -0.30318942575E+02  0.12784749271E+03 -0.53987168151E+02  0.18927847764E+03  0.12509000000E+03 0.  0.
<mgrwt>
<rscale>  2 0.47537852E+03</rscale>
<asrwt>0</asrwt>
<pdfrwt beam="1">  1       21 0.26152384E-01 0.47537852E+03</pdfrwt>
<pdfrwt beam="2">  1       21 0.46718619E-01 0.47537852E+03</pdfrwt>
<totfact> 0.55969708E+04</totfact>
</mgrwt>
</event>
<event>
 7    0  0.4793433E-002  0.4948133E+03  0.7546771E-02  0.1015142E+00
         21   -1    0    0  502  501  0.00000000000E+00  0.00000000000E+00  0.10044905711E+03  0.10044905711E+03  0.00000000000E+00 0. -1.
         21   -1    0    0  501  502 -0.00000000000E+00 -0.00000000000E+00 -0.60936407331E+03  0.60936407331E+03  0.00000000000E+00 0. -1.
      99926    2    1    2    0    0  0.88817841970E-15 -0.19151347175E-14 -0.50891501620E+03  0.70981313042E+03  0.49481328438E+03 0.  0.
      99925    2    3    3    0    0  0.75534987114E+01  0.17601244596E+00 -0.98687590407E+02  0.28087125173E+03  0.26285420526E+03 0.  0.
         25    1    4    4    0    0  0.13726711149E+02  0.35877553782E+02 -0.66205012642E+02  0.14665003670E+03  0.12509000000E+03 0.  0.
         25    1    3    3    0    0 -0.75534987114E+01 -0.17601244596E+00 -0.41022742579E+03  0.42894187869E+03  0.12509000000E+03 0.  0.
         25    1    4    4    0    0 -0.61732124374E+01 -0.35701541336E+02 -0.32482577765E+02  0.13422121503E+03  0.12509000000E+03 0.  0.
<mgrwt>
<rscale>  2 0.49481328E+03</rscale>
<asrwt>0</asrwt>
<pdfrwt beam="1">  1       21 0.14771921E-01 0.49481328E+03</pdfrwt>
<pdfrwt beam="2">  1       21 0.89612360E-01 0.49481328E+03</pdfrwt>
<totfact> 0.38727596E+04</totfact>
</mgrwt>
</event>
<event>
 7    0  0.4793433E-002  0.4522947E+03  0.7546771E-02  0.1027040E+00
         21   -1    0    0  502  501  0.00000000000E+00  0.00000000000E+00  0.59896752518E+03  0.59896752518E+03  0.00000000000E+00 0.  1.
         21   -1    0    0  501  502 -0.00000000000E+00 -0.00000000000E+00 -0.85384636976E+02  0.85384636976E+02  0.00000000000E+00 0.  1.
      99926    2    1    2    0    0  0.00000000000E+00  0.71054273576E-14  0.51358288820E+03  0.68435216215E+03  0.45229470348E+03 0.  0.
      99925    2    3    3    0    0  0.88779283783E+02  0.33918792123E+02  0.23822114883E+03  0.36732875403E+03  0.26296169322E+03 0.  0.
         25    1    4    4    0    0  0.16003173763E+02  0.38657735971E+02  0.14007353802E+03  0.19240225122E+03  0.12509000000E+03 0.  0.
         25    1    4    4    0    0  0.72776110020E+02 -0.47389438486E+01  0.98147610811E+02  0.17492650281E+03  0.12509000000E+03 0.  0.
         25    1    3    3    0    0 -0.88779283783E+02 -0.33918792123E+02  0.27536173937E+03  0.31702340812E+03  0.12509000000E+03 0.  0.
<mgrwt>
<rscale>  2 0.45229470E+03</rscale>
<asrwt>0</asrwt>
<pdfrwt beam="1">  1       21 0.88083457E-01 0.45229470E+03</pdfrwt>
<pdfrwt beam="2">  1       21 0.12556565E-01 0.45229470E+03</pdfrwt>
<totfact> 0.54921516E+04</totfact>
</mgrwt>
</event>
<event>
 7    0  0.4793433E-002  0.4576848E+03  0.7546771E-02  0.1025455E+00
         21   -1    0    0  502  501  0.00000000000E+00  0.00000000000E+00  0.15463274632E+03  0.15463274632E+03  0.00000000000E+00 0. -1.
         21   -1    0    0  501  502 -0.00000000000E+00 -0.00000000000E+00 -0.33866592653E+03  0.33866592653E+03  0.00000000000E+00 0. -1.
      99926    2    1    2    0    0  0.14210854715E-13 -0.14210854715E-13 -0.18403318021E+03  0.49329867285E+03  0.45768479243E+03 0.  0.
      99925    2    3    3    0    0  0.79565063895E+02 -0.83910492528E+02 -0.11301294705E+03  0.30873716071E+03  0.26301166904E+03 0.  0.
         25    1    3    3    0    0 -0.79565063895E+02  0.83910492528E+02 -0.71020233156E+02  0.18456151215E+03  0.12509000000E+03 0.  0.
         25    1    4    4    0    0  0.76256470657E+02 -0.45960574971E+02 -0.83142546740E+02  0.17460703006E+03  0.12509000000E+03 0.  0.
         25    1    4    4    0    0  0.33085932381E+01 -0.37949917557E+02 -0.29870400312E+02  0.13413013064E+03  0.12509000000E+03 0.  0.
<mgrwt>
<rscale>  2 0.45768479E+03</rscale>
<asrwt>0</asrwt>
<pdfrwt beam="1">  1       21 0.22740110E-01 0.45768479E+03</pdfrwt>
<pdfrwt beam="2">  1       21 0.49803813E-01 0.45768479E+03</pdfrwt>
<totfact> 0.64361303E+04</totfact>
</mgrwt>
</event>
<event>
 7    0  0.4793433E-002  0.4589160E+03  0.7546771E-02  0.1025096E+00
         21   -1    0    0  502  501  0.00000000000E+00  0.00000000000E+00  0.52643951912E+02  0.52643951912E+02  0.00000000000E+00 0. -1.
         21   -1    0    0  501  502 -0.00000000000E+00 -0.00000000000E+00 -0.10001335339E+04  0.10001335339E+04  0.00000000000E+00 0. -1.
      99926    2    1    2    0    0 -0.71054273576E-14  0.00000000000E+00 -0.94748958199E+03  0.10527774858E+04  0.45891603443E+03 0.  0.
      99925    2    3    3    0    0  0.19646863317E+02 -0.10701198227E+03 -0.49719858228E+03  0.57293682882E+03  0.26308290710E+03 0.  0.
         25    1    3    3    0    0 -0.19646863317E+02  0.10701198227E+03 -0.45029099971E+03  0.47984065699E+03  0.12509000000E+03 0.  0.
         25    1    4    4    0    0 -0.24325151574E+02 -0.48196265318E+02 -0.19689450223E+03  0.23943589141E+03  0.12509000000E+03 0.  0.
         25    1    4    4    0    0  0.43972014891E+02 -0.58815716947E+02 -0.30030408005E+03  0.33350093741E+03  0.12509000000E+03 0.  0.
<mgrwt>
<rscale>  2 0.45891603E+03</rscale>
<asrwt>0</asrwt>
<pdfrwt beam="1">  1       21 0.77417576E-02 0.45891603E+03</pdfrwt>
<pdfrwt beam="2">  1       21 0.14707846E+00 0.45891603E+03</pdfrwt>
<totfact> 0.36060771E+04</totfact>
</mgrwt>
</event>
<event>
 7    0  0.4793433E-002  0.4013322E+03  0.7546771E-02  0.1043319E+00
         21   -1    0    0  502  501  0.00000000000E+00  0.00000000000E+00  0.22064907422E+02  0.22064907422E+02  0.00000000000E+00 0.  1.
         21   -1    0    0  501  502 -0.00000000000E+00 -0.00000000000E+00 -0.18249291723E+04  0.18249291723E+04  0.00000000000E+00 0.  1.
      99926    2    1    2    0    0  0.00000000000E+00  0.00000000000E+00 -0.18028642649E+04  0.18469940797E+04  0.40133224759E+03 0.  0.
      99925    2    3    3    0    0  0.30730343862E+02  0.36048294136E+02 -0.11726544663E+04  0.12027458885E+04  0.26312609425E+03 0.  0.
         25    1    4    4    0    0  0.28204161780E+02  0.21159811449E+01 -0.42473077869E+03  0.44367070512E+03  0.12509000000E+03 0.  0.
         25    1    4    4    0    0  0.25261820824E+01  0.33932312991E+02 -0.74792368761E+03  0.75907518340E+03  0.12509000000E+03 0.  0.
         25    1    3    3    0    0 -0.30730343862E+02 -0.36048294136E+02 -0.63020979860E+03  0.64424819123E+03  0.12509000000E+03 0.  0.
<mgrwt>
<rscale>  2 0.40133225E+03</rscale>
<asrwt>0</asrwt>
<pdfrwt beam="1">  1       21 0.32448377E-02 0.40133225E+03</pdfrwt>
<pdfrwt beam="2">  1       21 0.26837207E+00 0.40133225E+03</pdfrwt>
<totfact> 0.25433706E+04</totfact>
</mgrwt>
</event>
<event>
 7    0  0.4793433E-002  0.4538160E+03  0.7546771E-02  0.1026590E+00
         21   -1    0    0  502  501  0.00000000000E+00  0.00000000000E+00  0.19286793506E+03  0.19286793506E+03  0.00000000000E+00 0.  1.
         21   -1    0    0  501  502 -0.00000000000E+00 -0.00000000000E+00 -0.26695589400E+03  0.26695589400E+03  0.00000000000E+00 0.  1.
      99926    2    1    2    0    0  0.00000000000E+00 -0.71054273576E-14 -0.74087958947E+02  0.45982382906E+03  0.45381596282E+03 0.  0.
      99925    2    3    3    0    0 -0.61853637861E+02  0.57169884030E+02 -0.12143364838E+03  0.30176247842E+03  0.26309730951E+03 0.  0.
         25    1    3    3    0    0  0.61853637861E+02 -0.57169884030E+02  0.47345689435E+02  0.15806135064E+03  0.12509000000E+03 0.  0.
         25    1    4    4    0    0 -0.35590691975E+01  0.56624642750E+02 -0.48487460472E+02  0.14566248338E+03  0.12509000000E+03 0.  0.
         25    1    4    4    0    0 -0.58294568663E+02  0.54524128075E+00 -0.72946187910E+02  0.15609999505E+03  0.12509000000E+03 0.  0.
<mgrwt>
<rscale>  2 0.45381596E+03</rscale>
<asrwt>0</asrwt>
<pdfrwt beam="1">  1       21 0.28362932E-01 0.45381596E+03</pdfrwt>
<pdfrwt beam="2">  1       21 0.39258220E-01 0.45381596E+03</pdfrwt>
<totfact> 0.68841064E+04</totfact>
</mgrwt>
</event>
<event>
 7    0  0.4793433E-002  0.4425323E+03  0.7546771E-02  0.1029973E+00
         21   -1    0    0  502  501  0.00000000000E+00  0.00000000000E+00  0.31401248262E+03  0.31401248262E+03  0.00000000000E+00 0.  1.
         21   -1    0    0  501  502 -0.00000000000E+00 -0.00000000000E+00 -0.15591325329E+03  0.15591325329E+03  0.00000000000E+00 0.  1.
      99926    2    1    2    0    0 -0.13322676296E-14 -0.71054273576E-14  0.15809922933E+03  0.46992573591E+03  0.44253229369E+03 0.  0.
      99925    2    3    3    0    0  0.27764095870E+01  0.43447419890E+02  0.37033291516E+01  0.26650255917E+03  0.26289639148E+03 0.  0.
         25    1    4    4    0    0 -0.62282347191E+01 -0.88276446861E+01 -0.24015223558E+02  0.12783175381E+03  0.12509000000E+03 0.  0.
         25    1    3    3    0    0 -0.27764095870E+01 -0.43447419890E+02  0.15439590018E+03  0.20342317675E+03  0.12509000000E+03 0.  0.
         25    1    4    4    0    0  0.90046443061E+01  0.52275064576E+02  0.27718552710E+02  0.13867080536E+03  0.12509000000E+03 0.  0.
<mgrwt>
<rscale>  2 0.44253229E+03</rscale>
<asrwt>0</asrwt>
<pdfrwt beam="1">  1       21 0.46178306E-01 0.44253229E+03</pdfrwt>
<pdfrwt beam="2">  1       21 0.22928420E-01 0.44253229E+03</pdfrwt>
<totfact> 0.74549092E+04</totfact>
</mgrwt>
</event>
<event>
 7    0  0.4793433E-002  0.4609675E+03  0.7546771E-02  0.1024501E+00
         21   -1    0    0  502  501  0.00000000000E+00  0.00000000000E+00  0.43183755324E+03  0.43183755324E+03  0.00000000000E+00 0. -1.
         21   -1    0    0  501  502 -0.00000000000E+00 -0.00000000000E+00 -0.12301561615E+03  0.12301561615E+03  0.00000000000E+00 0. -1.
      99926    2    1    2    0    0  0.00000000000E+00  0.71054273576E-14  0.30882193710E+03  0.55485316939E+03  0.46096751593E+03 0.  0.
      99925    2    3    3    0    0 -0.92189140616E+02 -0.49679385768E+02  0.26047357225E+03  0.38470043946E+03  0.26302294057E+03 0.  0.
         25    1    3    3    0    0  0.92189140616E+02  0.49679385768E+02  0.48348364848E+02  0.17015272993E+03  0.12509000000E+03 0.  0.
         25    1    4    4    0    0 -0.76061924070E+02 -0.12448589552E+02  0.17195735244E+03  0.22617962515E+03  0.12509000000E+03 0.  0.
         25    1    4    4    0    0 -0.16127216546E+02 -0.37230796216E+02  0.88516219807E+02  0.15852081431E+03  0.12509000000E+03 0.  0.
<mgrwt>
<rscale>  2 0.46096752E+03</rscale>
<asrwt>0</asrwt>
<pdfrwt beam="1">  1       21 0.63505522E-01 0.46096752E+03</pdfrwt>
<pdfrwt beam="2">  1       21 0.18090532E-01 0.46096752E+03</pdfrwt>
<totfact> 0.58725082E+04</totfact>
</mgrwt>
</event>
<event>
 7    0  0.4793433E-002  0.4771873E+03  0.7546771E-02  0.1019911E+00
         21   -1    0    0  502  501  0.00000000000E+00  0.00000000000E+00  0.22167797917E+03  0.22167797917E+03  0.00000000000E+00 0. -1.
         21   -1    0    0  501  502 -0.00000000000E+00 -0.00000000000E+00 -0.25680014319E+03  0.25680014319E+03  0.00000000000E+00 0. -1.
      99926    2    1    2    0    0  0.00000000000E+00  0.00000000000E+00 -0.35122164021E+02  0.47847812237E+03  0.47718732923E+03 0.  0.
      99925    2    3    3    0    0  0.86196756554E+02  0.94545115761E+02 -0.57318611427E+02  0.29817601442E+03  0.26316316726E+03 0.  0.
         25    1    4    4    0    0  0.37297615950E+02  0.53523686564E+02 -0.69398511697E+02  0.15722454867E+03  0.12509000000E+03 0.  0.
         25    1    3    3    0    0 -0.86196756554E+02 -0.94545115761E+02  0.22196447406E+02  0.18030210795E+03  0.12509000000E+03 0.  0.
         25    1    4    4    0    0  0.48899140604E+02  0.41021429197E+02  0.12079900270E+02  0.14095146575E+03  0.12509000000E+03 0.  0.
<mgrwt>
<rscale>  2 0.47718733E+03</rscale>
<asrwt>0</asrwt>
<pdfrwt beam="1">  1       21 0.32599703E-01 0.47718733E+03</pdfrwt>
<pdfrwt beam="2">  1       21 0.37764727E-01 0.47718733E+03</pdfrwt>
<totfact> 0.56226415E+04</totfact>
</mgrwt>
</event>
<event>
 7    0  0.4793433E-002  0.4568354E+03  0.7546771E-02  0.1025703E+00
         21   -1    0    0  502  501  0.00000000000E+00  0.00000000000E+00  0.55974181289E+03  0.55974181289E+03  0.00000000000E+00 0. -1.
         21   -1    0    0  501  502 -0.00000000000E+00 -0.00000000000E+00 -0.93211987785E+02  0.93211987785E+02  0.00000000000E+00 0. -1.
      99926    2    1    2    0    0  0.00000000000E+00  0.14210854715E-13  0.46652982510E+03  0.65295380067E+03  0.45683540592E+03 0.  0.
      99925    2    3    3    0    0 -0.99432102805E+01 -0.10575082095E+03  0.23038194701E+03  0.36538566615E+03  0.26296147999E+03 0.  0.
         25    1    3    3    0    0  0.99432102805E+01  0.10575082095E+03  0.23614787809E+03  0.28756813452E+03  0.12509000000E+03 0.  0.
         25    1    4    4    0    0  0.81633392867E+01 -0.15759379387E+02  0.12566708676E+03  0.17819854921E+03  0.12509000000E+03 0.  0.
         25    1    4    4    0    0 -0.18106549567E+02 -0.89991441562E+02  0.10471486025E+03  0.18718711694E+03  0.12509000000E+03 0.  0.
<mgrwt>
<rscale>  2 0.45683541E+03</rscale>
<asrwt>0</asrwt>
<pdfrwt beam="1">  1       21 0.82314971E-01 0.45683541E+03</pdfrwt>
<pdfrwt beam="2">  1       21 0.13707646E-01 0.45683541E+03</pdfrwt>
<totfact> 0.54734865E+04</totfact>
</mgrwt>
</event>
<event>
 7    0  0.4793433E-002  0.4541003E+03  0.7546771E-02  0.1026506E+00
         21   -1    0    0  502  501  0.00000000000E+00  0.00000000000E+00  0.77593368372E+02  0.77593368372E+02  0.00000000000E+00 0.  1.
         21   -1    0    0  501  502 -0.00000000000E+00 -0.00000000000E+00 -0.66438363455E+03  0.66438363455E+03  0.00000000000E+00 0.  1.
      99926    2    1    2    0    0 -0.35527136788E-14  0.14210854715E-13 -0.58679026618E+03  0.74197700292E+03  0.45410027129E+03 0.  0.
      99925    2    3    3    0    0 -0.27154655214E+02  0.10556698157E+03 -0.32580620339E+03  0.43271667241E+03  0.26308225619E+03 0.  0.
         25    1    4    4    0    0 -0.45060555455E+02  0.80278508042E+02 -0.19180053158E+03  0.24679960398E+03  0.12509000000E+03 0.  0.
         25    1    3    3    0    0  0.27154655214E+02 -0.10556698157E+03 -0.26098406279E+03  0.30926033051E+03  0.12509000000E+03 0.  0.
         25    1    4    4    0    0  0.17905900241E+02  0.25288473524E+02 -0.13400567181E+03  0.18591706843E+03  0.12509000000E+03 0.  0.
<mgrwt>
<rscale>  2 0.45410027E+03</rscale>
<asrwt>0</asrwt>
<pdfrwt beam="1">  1       21 0.11410790E-01 0.45410027E+03</pdfrwt>
<pdfrwt beam="2">  1       21 0.97703474E-01 0.45410027E+03</pdfrwt>
<totfact> 0.51042482E+04</totfact>
</mgrwt>
</event>
<event>
 7    0  0.4793433E-002  0.4566407E+03  0.7546771E-02  0.1025760E+00
         21   -1    0    0  502  501  0.00000000000E+00  0.00000000000E+00  0.26324912593E+03  0.26324912593E+03  0.00000000000E+00 0. -1.
         21   -1    0    0  501  502 -0.00000000000E+00 -0.00000000000E+00 -0.19802601210E+03  0.19802601210E+03  0.00000000000E+00 0. -1.
      99926    2    1    2    0    0  0.00000000000E+00  0.35527136788E-14  0.65223113829E+02  0.46127513803E+03  0.45664066659E+03 0.  0.
      99925    2    3    3    0    0 -0.86821093912E+02  0.22416137803E+02 -0.30556030075E+02  0.27999762125E+03  0.26348550501E+03 0.  0.
         25    1    4    4    0    0 -0.26540286848E+02  0.34464041431E+02  0.15185148900E+02  0.13330511552E+03  0.12509000000E+03 0.  0.
         25    1    3    3    0    0  0.86821093912E+02 -0.22416137803E+02  0.95779143904E+02  0.18127751678E+03  0.12509000000E+03 0.  0.
         25    1    4    4    0    0 -0.60280807064E+02 -0.12047903628E+02 -0.45741178975E+02  0.14669250573E+03  0.12509000000E+03 0.  0.
<mgrwt>
<rscale>  2 0.45664067E+03</rscale>
<asrwt>0</asrwt>
<pdfrwt beam="1">  1       21 0.38713107E-01 0.45664067E+03</pdfrwt>
<pdfrwt beam="2">  1       21 0.29121472E-01 0.45664067E+03</pdfrwt>
<totfact> 0.67204143E+04</totfact>
</mgrwt>
</event>
<event>
 7    0  0.4793433E-002  0.4588794E+03  0.7546771E-02  0.1025107E+00
         21   -1    0    0  502  501  0.00000000000E+00  0.00000000000E+00  0.91110595804E+03  0.91110595804E+03  0.00000000000E+00 0. -1.
         21   -1    0    0  501  502 -0.00000000000E+00 -0.00000000000E+00 -0.57778763553E+02  0.57778763553E+02  0.00000000000E+00 0. -1.
      99926    2    1    2    0    0  0.00000000000E+00  0.00000000000E+00  0.85332719449E+03  0.96888472159E+03  0.45887939906E+03 0.  0.
      99925    2    3    3    0    0 -0.77691701413E+02 -0.73991432116E+02  0.63228836477E+03  0.69317399485E+03  0.26304159068E+03 0.  0.
         25    1    3    3    0    0  0.77691701413E+02  0.73991432116E+02  0.22103882972E+03  0.27571072674E+03  0.12509000000E+03 0.  0.
         25    1    4    4    0    0 -0.42352225055E+02 -0.12787796235E+02  0.22403850702E+03  0.26038048972E+03  0.12509000000E+03 0.  0.
         25    1    4    4    0    0 -0.35339476357E+02 -0.61203635881E+02  0.40824985774E+03  0.43279350513E+03  0.12509000000E+03 0.  0.
<mgrwt>
<rscale>  2 0.45887940E+03</rscale>
<asrwt>0</asrwt>
<pdfrwt beam="1">  1       21 0.13398616E+00 0.45887940E+03</pdfrwt>
<pdfrwt beam="2">  1       21 0.84968776E-02 0.45887940E+03</pdfrwt>
<totfact> 0.39183457E+04</totfact>
</mgrwt>
</event>
<event>
 7    0  0.4793433E-002  0.4559491E+03  0.7546771E-02  0.1025963E+00
         21   -1    0    0  502  501  0.00000000000E+00  0.00000000000E+00  0.19577201740E+03  0.19577201740E+03  0.00000000000E+00 0. -1.
         21   -1    0    0  501  502 -0.00000000000E+00 -0.00000000000E+00 -0.26547409544E+03  0.26547409544E+03  0.00000000000E+00 0. -1.
      99926    2    1    2    0    0  0.00000000000E+00  0.00000000000E+00 -0.69702078040E+02  0.46124611283E+03  0.45594911659E+03 0.  0.
      99925    2    3    3    0    0  0.57520752106E+02 -0.56222600031E+02 -0.12554386198E+03  0.30238947743E+03  0.26307511684E+03 0.  0.
         25    1    4    4    0    0 -0.10098958133E+02 -0.25483562760E+02 -0.42787519663E+02  0.13501733542E+03  0.12509000000E+03 0.  0.
         25    1    4    4    0    0  0.67619710238E+02 -0.30739037271E+02 -0.82756342322E+02  0.16737214201E+03  0.12509000000E+03 0.  0.
         25    1    3    3    0    0 -0.57520752106E+02  0.56222600031E+02  0.55841783944E+02  0.15885663540E+03  0.12509000000E+03 0.  0.
<mgrwt>
<rscale>  2 0.45594912E+03</rscale>
<asrwt>0</asrwt>
<pdfrwt beam="1">  1       21 0.28790003E-01 0.45594912E+03</pdfrwt>
<pdfrwt beam="2">  1       21 0.39040308E-01 0.45594912E+03</pdfrwt>
<totfact> 0.67576913E+04</totfact>
</mgrwt>
</event>
<event>
 7    0  0.4793433E-002  0.4551022E+03  0.7546771E-02  0.1026211E+00
         21   -1    0    0  502  501  0.00000000000E+00  0.00000000000E+00  0.26468266753E+03  0.26468266753E+03  0.00000000000E+00 0. -1.
         21   -1    0    0  501  502 -0.00000000000E+00 -0.00000000000E+00 -0.19562865278E+03  0.19562865278E+03  0.00000000000E+00 0. -1.
      99926    2    1    2    0    0  0.00000000000E+00  0.00000000000E+00  0.69054014750E+02  0.46031132031E+03  0.45510224637E+03 0.  0.
      99925    2    3    3    0    0  0.36432631165E+02 -0.84004216796E+02  0.11090196423E+03  0.29974107391E+03  0.26298559022E+03 0.  0.
         25    1    4    4    0    0  0.35720584709E+02 -0.57987416920E+02  0.22076218647E+02  0.14412969237E+03  0.12509000000E+03 0.  0.
         25    1    4    4    0    0  0.71204645589E+00 -0.26016799876E+02  0.88825745583E+02  0.15561138154E+03  0.12509000000E+03 0.  0.
         25    1    3    3    0    0 -0.36432631165E+02  0.84004216796E+02 -0.41847949480E+02  0.16057024640E+03  0.12509000000E+03 0.  0.
<mgrwt>
<rscale>  2 0.45510225E+03</rscale>
<asrwt>0</asrwt>
<pdfrwt beam="1">  1       21 0.38923922E-01 0.45510225E+03</pdfrwt>
<pdfrwt beam="2">  1       21 0.28768919E-01 0.45510225E+03</pdfrwt>
<totfact> 0.68102336E+04</totfact>
</mgrwt>
</event>
<event>
 7    0  0.4793433E-002  0.4577046E+03  0.7546771E-02  0.1025449E+00
         21   -1    0    0  502  501  0.00000000000E+00  0.00000000000E+00  0.23157458630E+03  0.23157458630E+03  0.00000000000E+00 0.  1.
         21   -1    0    0  501  502 -0.00000000000E+00 -0.00000000000E+00 -0.22616197823E+03  0.22616197823E+03  0.00000000000E+00 0.  1.
      99926    2    1    2    0    0  0.00000000000E+00 -0.71054273576E-14  0.54126080679E+01  0.45773656453E+03  0.45770456212E+03 0.  0.
      99925    2    3    3    0    0 -0.65722884466E+02  0.45871891766E+02  0.86924926991E+02  0.28828009746E+03  0.26291775075E+03 0.  0.
         25    1    4    4    0    0 -0.62576116786E+02  0.49483328995E+01  0.66866155799E+02  0.15510914635E+03  0.12509000000E+03 0.  0.
         25    1    3    3    0    0  0.65722884466E+02 -0.45871891766E+02 -0.81512318923E+02  0.16945646707E+03  0.12509000000E+03 0.  0.
         25    1    4    4    0    0 -0.31467676800E+01  0.40923558867E+02  0.20058771192E+02  0.13317095111E+03  0.12509000000E+03 0.  0.
<mgrwt>
<rscale>  2 0.45770456E+03</rscale>
<asrwt>0</asrwt>
<pdfrwt beam="1">  1       21 0.34055086E-01 0.45770456E+03</pdfrwt>
<pdfrwt beam="2">  1       21 0.33259114E-01 0.45770456E+03</pdfrwt>
<totfact> 0.66890609E+04</totfact>
</mgrwt>
</event>
<event>
 7    0  0.4793433E-002  0.4703105E+03  0.7546771E-02  0.1021833E+00
         21   -1    0    0  502  501  0.00000000000E+00  0.00000000000E+00  0.11419923269E+03  0.11419923269E+03  0.00000000000E+00 0.  1.
         21   -1    0    0  501  502 -0.00000000000E+00 -0.00000000000E+00 -0.48422394603E+03  0.48422394603E+03  0.00000000000E+00 0.  1.
      99926    2    1    2    0    0 -0.14210854715E-13  0.00000000000E+00 -0.37002471334E+03  0.59842317872E+03  0.47031054884E+03 0.  0.
      99925    2    3    3    0    0  0.91593481483E+02  0.73364808455E+02 -0.16801463042E+03  0.33341875862E+03  0.26299694218E+03 0.  0.
         25    1    3    3    0    0 -0.91593481483E+02 -0.73364808455E+02 -0.20201008293E+03  0.26500442010E+03  0.12509000000E+03 0.  0.
         25    1    4    4    0    0  0.31851515922E+02  0.11312671453E+02 -0.11286088662E+03  0.17183592008E+03  0.12509000000E+03 0.  0.
         25    1    4    4    0    0  0.59741965561E+02  0.62052137002E+02 -0.55153743796E+02  0.16158283854E+03  0.12509000000E+03 0.  0.
<mgrwt>
<rscale>  2 0.47031055E+03</rscale>
<asrwt>0</asrwt>
<pdfrwt beam="1">  1       21 0.16794005E-01 0.47031055E+03</pdfrwt>
<pdfrwt beam="2">  1       21 0.71209404E-01 0.47031055E+03</pdfrwt>
<totfact> 0.52171031E+04</totfact>
</mgrwt>
</event>
<event>
 7    0  0.4793433E-002  0.4511293E+03  0.7546771E-02  0.1027386E+00
         21   -1    0    0  502  501  0.00000000000E+00  0.00000000000E+00  0.94974998484E+02  0.94974998484E+02  0.00000000000E+00 0.  1.
         21   -1    0    0  501  502 -0.00000000000E+00 -0.00000000000E+00 -0.53571362297E+03  0.53571362297E+03  0.00000000000E+00 0.  1.
      99926    2    1    2    0    0  0.26645352591E-14  0.00000000000E+00 -0.44073862449E+03  0.63068862146E+03  0.45112925212E+03 0.  0.
      99925    2    3    3    0    0 -0.78332271572E+01 -0.43189102388E+02 -0.41864326230E+03  0.49629230029E+03  0.26290151814E+03 0.  0.
         25    1    4    4    0    0  0.12643989836E+02  0.15710986912E+02 -0.20449076873E+03  0.24056327273E+03  0.12509000000E+03 0.  0.
         25    1    4    4    0    0 -0.20477216993E+02 -0.58900089300E+02 -0.21415249357E+03  0.25572902756E+03  0.12509000000E+03 0.  0.
         25    1    3    3    0    0  0.78332271572E+01  0.43189102388E+02 -0.22095362185E+02  0.13439632117E+03  0.12509000000E+03 0.  0.
<mgrwt>
<rscale>  2 0.45112925E+03</rscale>
<asrwt>0</asrwt>
<pdfrwt beam="1">  1       21 0.13966912E-01 0.45112925E+03</pdfrwt>
<pdfrwt beam="2">  1       21 0.78781415E-01 0.45112925E+03</pdfrwt>
<totfact> 0.58597974E+04</totfact>
</mgrwt>
</event>
<event>
 7    0  0.4793433E-002  0.4349432E+03  0.7546771E-02  0.1032310E+00
         21   -1    0    0  502  501  0.00000000000E+00  0.00000000000E+00  0.66421945090E+02  0.66421945090E+02  0.00000000000E+00 0.  1.
         21   -1    0    0  501  502 -0.00000000000E+00 -0.00000000000E+00 -0.71202214792E+03  0.71202214792E+03  0.00000000000E+00 0.  1.
      99926    2    1    2    0    0  0.00000000000E+00  0.00000000000E+00 -0.64560020283E+03  0.77844409301E+03  0.43494319635E+03 0.  0.
      99925    2    3    3    0    0 -0.18371061836E+02 -0.41345896262E+01 -0.57741203434E+03  0.63473701188E+03  0.26292931770E+03 0.  0.
         25    1    3    3    0    0  0.18371061836E+02  0.41345896262E+01 -0.68188168484E+02  0.14370708113E+03  0.12509000000E+03 0.  0.
         25    1    4    4    0    0  0.24245059995E+02  0.16633085066E+02 -0.31481588358E+03  0.34003092669E+03  0.12509000000E+03 0.  0.
         25    1    4    4    0    0 -0.42616121831E+02 -0.20767674692E+02 -0.26259615076E+03  0.29470608519E+03  0.12509000000E+03 0.  0.
<mgrwt>
<rscale>  2 0.43494320E+03</rscale>
<asrwt>0</asrwt>
<pdfrwt beam="1">  1       21 0.97679319E-02 0.43494320E+03</pdfrwt>
<pdfrwt beam="2">  1       21 0.10470915E+00 0.43494320E+03</pdfrwt>
<totfact> 0.57332535E+04</totfact>
</mgrwt>
</event>
<event>
 7    0  0.4793433E-002  0.4531164E+03  0.7546771E-02  0.1026797E+00
         21   -1    0    0  502  501  0.00000000000E+00  0.00000000000E+00  0.23938161187E+03  0.23938161187E+03  0.00000000000E+00 0.  1.
         21   -1    0    0  501  502 -0.00000000000E+00 -0.00000000000E+00 -0.21442175522E+03  0.21442175522E+03  0.00000000000E+00 0.  1.
      99926    2    1    2    0    0  0.00000000000E+00  0.00000000000E+00  0.24959856650E+02  0.45380336710E+03  0.45311643266E+03 0.  0.
      99925    2    3    3    0    0  0.92751843249E+02  0.16744525277E+02  0.75210187101E+02  0.28931662793E+03  0.26299097969E+03 0.  0.
         25    1    4    4    0    0  0.57147873005E+02  0.43127241363E+02  0.19708932099E+02  0.14547091957E+03  0.12509000000E+03 0.  0.
         25    1    4    4    0    0  0.35603970244E+02 -0.26382716086E+02  0.55501255002E+02  0.14384570835E+03  0.12509000000E+03 0.  0.
         25    1    3    3    0    0 -0.92751843249E+02 -0.16744525277E+02 -0.50250330451E+02  0.16448673917E+03  0.12509000000E+03 0.  0.
<mgrwt>
<rscale>  2 0.45311643E+03</rscale>
<asrwt>0</asrwt>
<pdfrwt beam="1">  1       21 0.35203178E-01 0.45311643E+03</pdfrwt>
<pdfrwt beam="2">  1       21 0.31532611E-01 0.45311643E+03</pdfrwt>
<totfact> 0.69674824E+04</totfact>
</mgrwt>
</event>
<event>
 7    0  0.4793433E-002  0.4537034E+03  0.7546771E-02  0.1026623E+00
         21   -1    0    0  502  501  0.00000000000E+00  0.00000000000E+00  0.21826868956E+03  0.21826868956E+03  0.00000000000E+00 0. -1.
         21   -1    0    0  501  502 -0.00000000000E+00 -0.00000000000E+00 -0.23577218200E+03  0.23577218200E+03  0.00000000000E+00 0. -1.
      99926    2    1    2    0    0  0.71054273576E-14  0.14210854715E-13 -0.17503492439E+02  0.45404087157E+03  0.45370336213E+03 0.  0.
      99925    2    3    3    0    0 -0.53144075780E+02 -0.64904932415E+02  0.63539908283E+02  0.28300729608E+03  0.26271442033E+03 0.  0.
         25    1    4    4    0    0  0.15847616521E+01 -0.27547255782E+02  0.62454645584E+00  0.12809863750E+03  0.12509000000E+03 0.  0.
         25    1    4    4    0    0 -0.54728837432E+02 -0.37357676633E+02  0.62915361827E+02  0.15490865858E+03  0.12509000000E+03 0.  0.
         25    1    3    3    0    0  0.53144075780E+02  0.64904932415E+02 -0.81043400722E+02  0.17103357548E+03  0.12509000000E+03 0.  0.
<mgrwt>
<rscale>  2 0.45370336E+03</rscale>
<asrwt>0</asrwt>
<pdfrwt beam="1">  1       21 0.32098337E-01 0.45370336E+03</pdfrwt>
<pdfrwt beam="2">  1       21 0.34672380E-01 0.45370336E+03</pdfrwt>
<totfact> 0.69330638E+04</totfact>
</mgrwt>
</event>
<event>
 7    0  0.4793433E-002  0.4505674E+03  0.7546771E-02  0.1027553E+00
         21   -1    0    0  502  501  0.00000000000E+00  0.00000000000E+00  0.71608688884E+03  0.71608688884E+03  0.00000000000E+00 0. -1.
         21   -1    0    0  501  502 -0.00000000000E+00 -0.00000000000E+00 -0.70875110084E+02  0.70875110084E+02  0.00000000000E+00 0. -1.
      99926    2    1    2    0    0 -0.71054273576E-14 -0.17763568394E-14  0.64521177876E+03  0.78696199893E+03  0.45056736267E+03 0.  0.
      99925    2    3    3    0    0  0.60755668641E+02  0.97626570242E+01  0.56473833214E+03  0.62599602595E+03  0.26297353475E+03 0.  0.
         25    1    4    4    0    0  0.57994709588E+02 -0.20363397730E+02  0.25541055443E+03  0.29096411071E+03  0.12509000000E+03 0.  0.
         25    1    4    4    0    0  0.27609590533E+01  0.30126054755E+02  0.30932777770E+03  0.33503191524E+03  0.12509000000E+03 0.  0.
         25    1    3    3    0    0 -0.60755668641E+02 -0.97626570242E+01  0.80473446623E+02  0.16096597297E+03  0.12509000000E+03 0.  0.
<mgrwt>
<rscale>  2 0.45056736E+03</rscale>
<asrwt>0</asrwt>
<pdfrwt beam="1">  1       21 0.10530689E+00 0.45056736E+03</pdfrwt>
<pdfrwt beam="2">  1       21 0.10422811E-01 0.45056736E+03</pdfrwt>
<totfact> 0.50123126E+04</totfact>
</mgrwt>
</event>
<event>
 7    0  0.4793433E-002  0.4544767E+03  0.7546771E-02  0.1026395E+00
         21   -1    0    0  502  501  0.00000000000E+00  0.00000000000E+00  0.14539462558E+03  0.14539462558E+03  0.00000000000E+00 0. -1.
         21   -1    0    0  501  502 -0.00000000000E+00 -0.00000000000E+00 -0.35515246922E+03  0.35515246922E+03  0.00000000000E+00 0. -1.
      99926    2    1    2    0    0  0.00000000000E+00  0.00000000000E+00 -0.20975784364E+03  0.50054709480E+03  0.45447666733E+03 0.  0.
      99925    2    3    3    0    0 -0.59473709683E+02  0.47716904522E+02 -0.40666876112E+02  0.27682117203E+03  0.26298696042E+03 0.  0.
         25    1    4    4    0    0 -0.70420796256E+01  0.33612156687E+02  0.12800193532E+02  0.13034845997E+03  0.12509000000E+03 0.  0.
         25    1    4    4    0    0 -0.52431630057E+02  0.14104747835E+02 -0.53467069644E+02  0.14647271206E+03  0.12509000000E+03 0.  0.
         25    1    3    3    0    0  0.59473709683E+02 -0.47716904522E+02 -0.16909096753E+03  0.22372592277E+03  0.12509000000E+03 0.  0.
<mgrwt>
<rscale>  2 0.45447667E+03</rscale>
<asrwt>0</asrwt>
<pdfrwt beam="1">  1       21 0.21381563E-01 0.45447667E+03</pdfrwt>
<pdfrwt beam="2">  1       21 0.52228304E-01 0.45447667E+03</pdfrwt>
<totfact> 0.65503937E+04</totfact>
</mgrwt>
</event>
<event>
 7    0  0.4793433E-002  0.4525043E+03  0.7546771E-02  0.1026978E+00
         21   -1    0    0  502  501  0.00000000000E+00  0.00000000000E+00  0.88920952748E+03  0.88920952748E+03  0.00000000000E+00 0. -1.
         21   -1    0    0  501  502 -0.00000000000E+00 -0.00000000000E+00 -0.57568020043E+02  0.57568020043E+02  0.00000000000E+00 0. -1.
      99926    2    1    2    0    0  0.00000000000E+00 -0.53290705182E-14  0.83164150743E+03  0.94677754752E+03  0.45250428462E+03 0.  0.
      99925    2    3    3    0    0 -0.95698081158E+02  0.10048952509E+02  0.40920962698E+03  0.49582820901E+03  0.26293343235E+03 0.  0.
         25    1    4    4    0    0 -0.29734128424E+02 -0.22193539394E+02  0.15008979953E+03  0.19887465300E+03  0.12509000000E+03 0.  0.
         25    1    4    4    0    0 -0.65963952734E+02  0.32242491903E+02  0.25911982745E+03  0.29695355600E+03  0.12509000000E+03 0.  0.
         25    1    3    3    0    0  0.95698081158E+02 -0.10048952509E+02  0.42243188045E+03  0.45094933851E+03  0.12509000000E+03 0.  0.
<mgrwt>
<rscale>  2 0.45250428E+03</rscale>
<asrwt>0</asrwt>
<pdfrwt beam="1">  1       21 0.13076610E+00 0.45250428E+03</pdfrwt>
<pdfrwt beam="2">  1       21 0.84658858E-02 0.45250428E+03</pdfrwt>
<totfact> 0.42086974E+04</totfact>
</mgrwt>
</event>
<event>
 7    0  0.4793433E-002  0.4553654E+03  0.7546771E-02  0.1026134E+00
         21   -1    0    0  502  501  0.00000000000E+00  0.00000000000E+00  0.10358670880E+04  0.10358670880E+04  0.00000000000E+00 0. -1.
         21   -1    0    0  501  502 -0.00000000000E+00 -0.00000000000E+00 -0.50044469491E+02  0.50044469491E+02  0.00000000000E+00 0. -1.
      99926    2    1    2    0    0  0.00000000000E+00  0.00000000000E+00  0.98582261846E+03  0.10859115574E+04  0.45536543075E+03 0.  0.
      99925    2    3    3    0    0 -0.42634993915E+02 -0.10394661637E+03  0.58164773221E+03  0.64815878642E+03  0.26300776846E+03 0.  0.
         25    1    4    4    0    0 -0.56111856068E+02 -0.41527566178E+02  0.25261130519E+03  0.29040154744E+03  0.12509000000E+03 0.  0.
         25    1    4    4    0    0  0.13476862153E+02 -0.62419050192E+02  0.32903642702E+03  0.35775723899E+03  0.12509000000E+03 0.  0.
         25    1    3    3    0    0  0.42634993915E+02  0.10394661637E+03  0.40417488625E+03  0.43775277102E+03  0.12509000000E+03 0.  0.
<mgrwt>
<rscale>  2 0.45536543E+03</rscale>
<asrwt>0</asrwt>
<pdfrwt beam="1">  1       21 0.15233338E+00 0.45536543E+03</pdfrwt>
<pdfrwt beam="2">  1       21 0.73594815E-02 0.45536543E+03</pdfrwt>
<totfact> 0.35884188E+04</totfact>
</mgrwt>
</event>
<event>
 7    0  0.4793433E-002  0.4494565E+03  0.7546771E-02  0.1027884E+00
         21   -1    0    0  502  501  0.00000000000E+00  0.00000000000E+00  0.78610778593E+02  0.78610778593E+02  0.00000000000E+00 0. -1.
         21   -1    0    0  501  502 -0.00000000000E+00 -0.00000000000E+00 -0.64244087406E+03  0.64244087406E+03  0.00000000000E+00 0. -1.
      99926    2    1    2    0    0  0.71054273576E-14  0.00000000000E+00 -0.56383009547E+03  0.72105165265E+03  0.44945645978E+03 0.  0.
      99925    2    3    3    0    0  0.37141594675E+02 -0.68385619851E+02 -0.23673658043E+03  0.36231251799E+03  0.26300201734E+03 0.  0.
         25    1    4    4    0    0 -0.11194928825E+02 -0.46270325743E+01 -0.10342865622E+03  0.16276280561E+03  0.12509000000E+03 0.  0.
         25    1    3    3    0    0 -0.37141594675E+02  0.68385619851E+02 -0.32709351504E+03  0.35873913466E+03  0.12509000000E+03 0.  0.
         25    1    4    4    0    0  0.48336523500E+02 -0.63758587276E+02 -0.13330792420E+03  0.19954971238E+03  0.12509000000E+03 0.  0.
<mgrwt>
<rscale>  2 0.44945646E+03</rscale>
<asrwt>0</asrwt>
<pdfrwt beam="1">  1       21 0.11560408E-01 0.44945646E+03</pdfrwt>
<pdfrwt beam="2">  1       21 0.94476604E-01 0.44945646E+03</pdfrwt>
<totfact> 0.54095221E+04</totfact>
</mgrwt>
</event>
<event>
 7    0  0.4793433E-002  0.4529130E+03  0.7546771E-02  0.1026857E+00
         21   -1    0    0  502  501  0.00000000000E+00  0.00000000000E+00  0.17444584004E+03  0.17444584004E+03  0.00000000000E+00 0. -1.
         21   -1    0    0  501  502 -0.00000000000E+00 -0.00000000000E+00 -0.29397407886E+03  0.29397407886E+03  0.00000000000E+00 0. -1.
      99926    2    1    2    0    0  0.00000000000E+00  0.00000000000E+00 -0.11952823882E+03  0.46841991890E+03  0.45291303862E+03 0.  0.
      99925    2    3    3    0    0 -0.19637242447E+02 -0.59391597988E+02  0.19728137300E+02  0.27105520678E+03  0.26299951049E+03 0.  0.
         25    1    4    4    0    0  0.16137712640E+02 -0.57264099086E+02 -0.49824310990E+01  0.13860712656E+03  0.12509000000E+03 0.  0.
         25    1    3    3    0    0  0.19637242447E+02  0.59391597988E+02 -0.13925637612E+03  0.19736471212E+03  0.12509000000E+03 0.  0.
         25    1    4    4    0    0 -0.35774955088E+02 -0.21274989023E+01  0.24710568399E+02  0.13244808022E+03  0.12509000000E+03 0.  0.
<mgrwt>
<rscale>  2 0.45291304E+03</rscale>
<asrwt>0</asrwt>
<pdfrwt beam="1">  1       21 0.25653800E-01 0.45291304E+03</pdfrwt>
<pdfrwt beam="2">  1       21 0.43231482E-01 0.45291304E+03</pdfrwt>
<totfact> 0.68683505E+04</totfact>
</mgrwt>
</event>
<event>
 7    0  0.4793433E-002  0.4545582E+03  0.7546771E-02  0.1026371E+00
         21   -1    0    0  502  501  0.00000000000E+00  0.00000000000E+00  0.34010992455E+03  0.34010992455E+03  0.00000000000E+00 0.  1.
         21   -1    0    0  501  502 -0.00000000000E+00 -0.00000000000E+00 -0.15187966905E+03  0.15187966905E+03  0.00000000000E+00 0.  1.
      99926    2    1    2    0    0  0.00000000000E+00  0.00000000000E+00  0.18823025550E+03  0.49198959360E+03  0.45455817133E+03 0.  0.
      99925    2    3    3    0    0 -0.27173390757E+02 -0.10541849534E+03  0.87443824358E+02  0.29793582495E+03  0.26318791964E+03 0.  0.
         25    1    3    3    0    0  0.27173390757E+02  0.10541849534E+03  0.10078643114E+03  0.19405376865E+03  0.12509000000E+03 0.  0.
         25    1    4    4    0    0 -0.22878047722E+01 -0.28182102330E+02  0.68144748672E+01  0.12842667211E+03  0.12509000000E+03 0.  0.
         25    1    4    4    0    0 -0.24885585985E+02 -0.77236393012E+02  0.80629349490E+02  0.16950915283E+03  0.12509000000E+03 0.  0.
<mgrwt>
<rscale>  2 0.45455817E+03</rscale>
<asrwt>0</asrwt>
<pdfrwt beam="1">  1       21 0.50016165E-01 0.45455817E+03</pdfrwt>
<pdfrwt beam="2">  1       21 0.22335245E-01 0.45455817E+03</pdfrwt>
<totfact> 0.66068590E+04</totfact>
</mgrwt>
</event>
<event>
 7    0  0.4793433E-002  0.4563675E+03  0.7546771E-02  0.1025840E+00
         21   -1    0    0  502  501  0.00000000000E+00  0.00000000000E+00  0.14694308724E+03  0.14694308724E+03  0.00000000000E+00 0.  1.
         21   -1    0    0  501  502 -0.00000000000E+00 -0.00000000000E+00 -0.35434002968E+03  0.35434002968E+03  0.00000000000E+00 0.  1.
      99926    2    1    2    0    0  0.00000000000E+00  0.00000000000E+00 -0.20739694244E+03  0.50128311691E+03  0.45636747427E+03 0.  0.
      99925    2    3    3    0    0  0.37366265167E+02  0.42889647563E+02 -0.23952606700E+03  0.36016065809E+03  0.26288248938E+03 0.  0.
         25    1    3    3    0    0 -0.37366265167E+02 -0.42889647563E+02  0.32129124558E+02  0.14112245883E+03  0.12509000000E+03 0.  0.
         25    1    4    4    0    0  0.82741621022E+01 -0.16866321973E+02 -0.12709699183E+03  0.17931561005E+03  0.12509000000E+03 0.  0.
         25    1    4    4    0    0  0.29092103064E+02  0.59755969536E+02 -0.11242907517E+03  0.18084504804E+03  0.12509000000E+03 0.  0.
<mgrwt>
<rscale>  2 0.45636747E+03</rscale>
<asrwt>0</asrwt>
<pdfrwt beam="1">  1       21 0.21609278E-01 0.45636747E+03</pdfrwt>
<pdfrwt beam="2">  1       21 0.52108828E-01 0.45636747E+03</pdfrwt>
<totfact> 0.64477859E+04</totfact>
</mgrwt>
</event>
<event>
 7    0  0.4793433E-002  0.4563546E+03  0.7546771E-02  0.1025844E+00
         21   -1    0    0  502  501  0.00000000000E+00  0.00000000000E+00  0.17791842579E+03  0.17791842579E+03  0.00000000000E+00 0.  1.
         21   -1    0    0  501  502 -0.00000000000E+00 -0.00000000000E+00 -0.29263347686E+03  0.29263347686E+03  0.00000000000E+00 0.  1.
      99926    2    1    2    0    0  0.35527136788E-14  0.00000000000E+00 -0.11471505107E+03  0.47055190266E+03  0.45635463200E+03 0.  0.
      99925    2    3    3    0    0 -0.11938160258E+02 -0.66872878455E+02 -0.16699457518E+03  0.31891035728E+03  0.26306297021E+03 0.  0.
         25    1    4    4    0    0 -0.37760880122E+02 -0.77456045049E+01 -0.77463767712E+02  0.15209872407E+03  0.12509000000E+03 0.  0.
         25    1    3    3    0    0  0.11938160258E+02  0.66872878455E+02  0.52279524110E+02  0.15164154538E+03  0.12509000000E+03 0.  0.
         25    1    4    4    0    0  0.25822719864E+02 -0.59127273950E+02 -0.89530807471E+02  0.16681163320E+03  0.12509000000E+03 0.  0.
<mgrwt>
<rscale>  2 0.45635463E+03</rscale>
<asrwt>0</asrwt>
<pdfrwt beam="1">  1       21 0.26164475E-01 0.45635463E+03</pdfrwt>
<pdfrwt beam="2">  1       21 0.43034334E-01 0.45635463E+03</pdfrwt>
<totfact> 0.66675319E+04</totfact>
</mgrwt>
</event>
<event>
 7    0  0.4793433E-002  0.4502445E+03  0.7546771E-02  0.1027649E+00
         21   -1    0    0  502  501  0.00000000000E+00  0.00000000000E+00  0.76859182906E+03  0.76859182906E+03  0.00000000000E+00 0. -1.
         21   -1    0    0  501  502 -0.00000000000E+00 -0.00000000000E+00 -0.65938799350E+02  0.65938799350E+02  0.00000000000E+00 0. -1.
      99926    2    1    2    0    0  0.00000000000E+00  0.00000000000E+00  0.70265302971E+03  0.83453062841E+03  0.45024447758E+03 0.  0.
      99925    2    3    3    0    0 -0.17927502685E+02  0.97395894583E+02  0.52722802109E+03  0.59740450715E+03  0.26289808540E+03 0.  0.
         25    1    3    3    0    0  0.17927502685E+02 -0.97395894583E+02  0.17542500862E+03  0.23712612126E+03  0.12509000000E+03 0.  0.
         25    1    4    4    0    0 -0.23119413474E+02  0.79512511131E+02  0.33812263659E+03  0.36990697774E+03  0.12509000000E+03 0.  0.
         25    1    4    4    0    0  0.51919107892E+01  0.17883383452E+02  0.18910538449E+03  0.22749752941E+03  0.12509000000E+03 0.  0.
<mgrwt>
<rscale>  2 0.45024448E+03</rscale>
<asrwt>0</asrwt>
<pdfrwt beam="1">  1       21 0.11302820E+00 0.45024448E+03</pdfrwt>
<pdfrwt beam="2">  1       21 0.96968827E-02 0.45024448E+03</pdfrwt>
<totfact> 0.47901895E+04</totfact>
</mgrwt>
</event>
<event>
 7    0  0.4793433E-002  0.4563760E+03  0.7546771E-02  0.1025838E+00
         21   -1    0    0  502  501  0.00000000000E+00  0.00000000000E+00  0.90387362920E+02  0.90387362920E+02  0.00000000000E+00 0.  1.
         21   -1    0    0  501  502 -0.00000000000E+00 -0.00000000000E+00 -0.57607355727E+03  0.57607355727E+03  0.00000000000E+00 0.  1.
      99926    2    1    2    0    0  0.00000000000E+00  0.35527136788E-14 -0.48568619435E+03  0.66646092019E+03  0.45637602781E+03 0.  0.
      99925    2    3    3    0    0 -0.62113712797E+02  0.23778276964E+02 -0.44128937222E+03  0.51799508005E+03  0.26298112699E+03 0.  0.
         25    1    4    4    0    0 -0.36538631533E+02 -0.28310835953E+02 -0.21476086576E+03  0.25279697899E+03  0.12509000000E+03 0.  0.
         25    1    3    3    0    0  0.62113712797E+02 -0.23778276964E+02 -0.44396822131E+02  0.14846584014E+03  0.12509000000E+03 0.  0.
         25    1    4    4    0    0 -0.25575081264E+02  0.52089112917E+02 -0.22652850646E+03  0.26519810106E+03  0.12509000000E+03 0.  0.
<mgrwt>
<rscale>  2 0.45637603E+03</rscale>
<asrwt>0</asrwt>
<pdfrwt beam="1">  1       21 0.13292259E-01 0.45637603E+03</pdfrwt>
<pdfrwt beam="2">  1       21 0.84716699E-01 0.45637603E+03</pdfrwt>
<totfact> 0.54171812E+04</totfact>
</mgrwt>
</event>
<event>
 7    0  0.4793433E-002  0.4151760E+03  0.7546771E-02  0.1038648E+00
         21   -1    0    0  502  501  0.00000000000E+00  0.00000000000E+00  0.38697847513E+03  0.38697847513E+03  0.00000000000E+00 0. -1.
         21   -1    0    0  501  502 -0.00000000000E+00 -0.00000000000E+00 -0.11135706440E+03  0.11135706440E+03  0.00000000000E+00 0. -1.
      99926    2    1    2    0    0  0.00000000000E+00  0.26645352591E-14  0.27562141073E+03  0.49833553952E+03  0.41517604446E+03 0.  0.
      99925    2    3    3    0    0 -0.68951093083E+02  0.41974402347E+01  0.18531701422E+03  0.32929630186E+03  0.26329030919E+03 0.  0.
         25    1    4    4    0    0 -0.32158415573E+02  0.39974409653E+02  0.11151476880E+03  0.17525743602E+03  0.12509000000E+03 0.  0.
         25    1    3    3    0    0  0.68951093083E+02 -0.41974402347E+01  0.90304396508E+02  0.16903923767E+03  0.12509000000E+03 0.  0.
         25    1    4    4    0    0 -0.36792677510E+02 -0.35776969419E+02  0.73802245423E+02  0.15403886584E+03  0.12509000000E+03 0.  0.
<mgrwt>
<rscale>  2 0.41517604E+03</rscale>
<asrwt>0</asrwt>
<pdfrwt beam="1">  1       21 0.56908599E-01 0.41517604E+03</pdfrwt>
<pdfrwt beam="2">  1       21 0.16376039E-01 0.41517604E+03</pdfrwt>
<totfact> 0.90865331E+04</totfact>
</mgrwt>
</event>
<event>
 7    0  0.4793433E-002  0.4488383E+03  0.7546771E-02  0.1028069E+00
         21   -1    0    0  502  501  0.00000000000E+00  0.00000000000E+00  0.48219762229E+03  0.48219762229E+03  0.00000000000E+00 0.  1.
         21   -1    0    0  501  502 -0.00000000000E+00 -0.00000000000E+00 -0.10444671903E+03  0.10444671903E+03  0.00000000000E+00 0.  1.
      99926    2    1    2    0    0 -0.71054273576E-14  0.00000000000E+00  0.37775090326E+03  0.58664434132E+03  0.44883832088E+03 0.  0.
      99925    2    3    3    0    0 -0.35978725074E+02  0.10187738849E+03  0.24605467868E+03  0.37530368122E+03  0.26198564330E+03 0.  0.
         25    1    3    3    0    0  0.35978725074E+02 -0.10187738849E+03  0.13169622457E+03  0.21134066010E+03  0.12509000000E+03 0.  0.
         25    1    4    4    0    0 -0.38031126586E+02  0.50672457421E+02  0.80914629173E+02  0.16189116667E+03  0.12509000000E+03 0.  0.
         25    1    4    4    0    0  0.20524015125E+01  0.51204931066E+02  0.16514004951E+03  0.21341251456E+03  0.12509000000E+03 0.  0.
<mgrwt>
<rscale>  2 0.44883832E+03</rscale>
<asrwt>0</asrwt>
<pdfrwt beam="1">  1       21 0.70911414E-01 0.44883832E+03</pdfrwt>
<pdfrwt beam="2">  1       21 0.15359812E-01 0.44883832E+03</pdfrwt>
<totfact> 0.62496533E+04</totfact>
</mgrwt>
</event>
<event>
 7    0  0.4793433E-002  0.4532942E+03  0.7546771E-02  0.1026744E+00
         21   -1    0    0  502  501  0.00000000000E+00  0.00000000000E+00  0.55563541489E+02  0.55563541489E+02  0.00000000000E+00 0. -1.
         21   -1    0    0  501  502 -0.00000000000E+00 -0.00000000000E+00 -0.92450745905E+03  0.92450745905E+03  0.00000000000E+00 0. -1.
      99926    2    1    2    0    0  0.88817841970E-15  0.00000000000E+00 -0.86894391757E+03  0.98007100054E+03  0.45329420273E+03 0.  0.
      99925    2    3    3    0    0 -0.69327062172E+01  0.90108682085E+02 -0.40673263418E+03  0.49277805416E+03  0.26311810648E+03 0.  0.
         25    1    4    4    0    0  0.14572418306E+02  0.65469024142E+02 -0.26714505399E+03  0.30251039068E+03  0.12509000000E+03 0.  0.
         25    1    3    3    0    0  0.69327062172E+01 -0.90108682085E+02 -0.46221128339E+03  0.48729294638E+03  0.12509000000E+03 0.  0.
         25    1    4    4    0    0 -0.21505124523E+02  0.24639657943E+02 -0.13958758019E+03  0.19026766348E+03  0.12509000000E+03 0.  0.
<mgrwt>
<rscale>  2 0.45329420E+03</rscale>
<asrwt>0</asrwt>
<pdfrwt beam="1">  1       21 0.81711084E-02 0.45329420E+03</pdfrwt>
<pdfrwt beam="2">  1       21 0.13595699E+00 0.45329420E+03</pdfrwt>
<totfact> 0.40483519E+04</totfact>
</mgrwt>
</event>
<event>
 7    0  0.4793433E-002  0.4508763E+03  0.7546771E-02  0.1027461E+00
         21   -1    0    0  502  501  0.00000000000E+00  0.00000000000E+00  0.32507398230E+03  0.32507398230E+03  0.00000000000E+00 0. -1.
         21   -1    0    0  501  502 -0.00000000000E+00 -0.00000000000E+00 -0.15634092316E+03  0.15634092316E+03  0.00000000000E+00 0. -1.
      99926    2    1    2    0    0  0.00000000000E+00  0.00000000000E+00  0.16873305914E+03  0.48141490545E+03  0.45087633110E+03 0.  0.
      99925    2    3    3    0    0 -0.96024283388E+02  0.33338048154E+02  0.14935288741E+03  0.31907209653E+03  0.26299929534E+03 0.  0.
         25    1    4    4    0    0 -0.84878994484E+02 -0.27393944652E+01  0.84357451795E+02  0.17313473297E+03  0.12509000000E+03 0.  0.
         25    1    4    4    0    0 -0.11145288904E+02  0.36077442619E+02  0.64995435618E+02  0.14593736356E+03  0.12509000000E+03 0.  0.
         25    1    3    3    0    0  0.96024283388E+02 -0.33338048154E+02  0.19380171725E+02  0.16234280893E+03  0.12509000000E+03 0.  0.
<mgrwt>
<rscale>  2 0.45087633E+03</rscale>
<asrwt>0</asrwt>
<pdfrwt beam="1">  1       21 0.47804997E-01 0.45087633E+03</pdfrwt>
<pdfrwt beam="2">  1       21 0.22991312E-01 0.45087633E+03</pdfrwt>
<totfact> 0.68822683E+04</totfact>
</mgrwt>
</event>
<event>
 7    0  0.4793433E-002  0.4505221E+03  0.7546771E-02  0.1027566E+00
         21   -1    0    0  502  501  0.00000000000E+00  0.00000000000E+00  0.25213448173E+03  0.25213448173E+03  0.00000000000E+00 0. -1.
         21   -1    0    0  501  502 -0.00000000000E+00 -0.00000000000E+00 -0.20125188498E+03  0.20125188498E+03  0.00000000000E+00 0. -1.
      99926    2    1    2    0    0 -0.14210854715E-13 -0.71054273576E-14  0.50882596751E+02  0.45338636670E+03  0.45052209586E+03 0.  0.
      99925    2    3    3    0    0 -0.68547933661E+02 -0.50219748467E+02 -0.36404478255E+02  0.27877999824E+03  0.26300600570E+03 0.  0.
         25    1    4    4    0    0 -0.19780174335E+02 -0.38600074886E+02 -0.53780497572E+02  0.14290231313E+03  0.12509000000E+03 0.  0.
         25    1    3    3    0    0  0.68547933661E+02  0.50219748467E+02  0.87287075007E+02  0.17460636847E+03  0.12509000000E+03 0.  0.
         25    1    4    4    0    0 -0.48767759326E+02 -0.11619673581E+02  0.17376019317E+02  0.13587768511E+03  0.12509000000E+03 0.  0.
<mgrwt>
<rscale>  2 0.45052210E+03</rscale>
<asrwt>0</asrwt>
<pdfrwt beam="1">  1       21 0.37078600E-01 0.45052210E+03</pdfrwt>
<pdfrwt beam="2">  1       21 0.29595865E-01 0.45052210E+03</pdfrwt>
<totfact> 0.71173092E+04</totfact>
</mgrwt>
</event>
<event>
 6    0  0.6923266E-002  0.4146929E+03  0.7546771E-02  0.1038808E+00
         21   -1    0    0  502  501  0.00000000000E+00  0.00000000000E+00  0.97618613446E+03  0.97618613446E+03  0.00000000000E+00 0.  1.
         21   -1    0    0  501  502 -0.00000000000E+00 -0.00000000000E+00 -0.44041335462E+02  0.44041335462E+02  0.00000000000E+00 0.  1.
      99926    2    1    2    0    0 -0.88817841970E-15  0.00000000000E+00  0.93214479900E+03  0.10202274699E+04  0.41469285512E+03 0.  0.
         25    1    3    3    0    0  0.36955205739E+01  0.59946376714E+02  0.28158502153E+03  0.31391855218E+03  0.12509000000E+03 0.  0.
         25    1    3    3    0    0  0.42867490027E+02 -0.42813337588E+02  0.29395602955E+03  0.32515882117E+03  0.12509000000E+03 0.  0.
         25    1    3    3    0    0 -0.46563010601E+02 -0.17133039126E+02  0.35660374792E+03  0.38115009657E+03  0.12509000000E+03 0.  0.
<mgrwt>
<rscale>  2 0.41469286E+03</rscale>
<asrwt>0</asrwt>
<pdfrwt beam="1">  1       21 0.14355677E+00 0.41469286E+03</pdfrwt>
<pdfrwt beam="2">  1       21 0.64766676E-02 0.41469286E+03</pdfrwt>
<totfact> 0.53285329E+04</totfact>
</mgrwt>
</event>
<event>
 7    0  0.4793433E-002  0.4511678E+03  0.7546771E-02  0.1027374E+00
         21   -1    0    0  502  501  0.00000000000E+00  0.00000000000E+00  0.53280122492E+03  0.53280122492E+03  0.00000000000E+00 0. -1.
         21   -1    0    0  501  502 -0.00000000000E+00 -0.00000000000E+00 -0.95510478602E+02  0.95510478602E+02  0.00000000000E+00 0. -1.
      99926    2    1    2    0    0  0.00000000000E+00  0.00000000000E+00  0.43729074632E+03  0.62831170353E+03  0.45116781797E+03 0.  0.
      99925    2    3    3    0    0 -0.68790932449E+02  0.18966401484E+02  0.39187126761E+03  0.47730722042E+03  0.26299653137E+03 0.  0.
         25    1    3    3    0    0  0.68790932449E+02 -0.18966401484E+02  0.45419478715E+02  0.15100448311E+03  0.12509000000E+03 0.  0.
         25    1    4    4    0    0 -0.46759497444E+02  0.42297025794E+02  0.24061087460E+03  0.27841801319E+03  0.12509000000E+03 0.  0.
         25    1    4    4    0    0 -0.22031435004E+02 -0.23330624310E+02  0.15126039301E+03  0.19888920723E+03  0.12509000000E+03 0.  0.
<mgrwt>
<rscale>  2 0.45116782E+03</rscale>
<asrwt>0</asrwt>
<pdfrwt beam="1">  1       21 0.78353120E-01 0.45116782E+03</pdfrwt>
<pdfrwt beam="2">  1       21 0.14045659E-01 0.45116782E+03</pdfrwt>
<totfact> 0.58725094E+04</totfact>
</mgrwt>
</event>
<event>
 7    0  0.4793433E-002  0.4523844E+03  0.7546771E-02  0.1027013E+00
         21   -1    0    0  502  501  0.00000000000E+00  0.00000000000E+00  0.80104674824E+02  0.80104674824E+02  0.00000000000E+00 0.  1.
         21   -1    0    0  501  502 -0.00000000000E+00 -0.00000000000E+00 -0.63870062708E+03  0.63870062708E+03  0.00000000000E+00 0.  1.
      99926    2    1    2    0    0  0.00000000000E+00  0.71054273576E-14 -0.55859595226E+03  0.71880530191E+03  0.45238437657E+03 0.  0.
      99925    2    3    3    0    0  0.48403720198E+02 -0.31406041880E+02 -0.50244815055E+03  0.57004595486E+03  0.26299997542E+03 0.  0.
         25    1    4    4    0    0 -0.12584584775E+02  0.10946180452E+01 -0.25449454540E+03  0.28385656889E+03  0.12509000000E+03 0.  0.
         25    1    3    3    0    0 -0.48403720198E+02  0.31406041880E+02 -0.56147801710E+02  0.14875934704E+03  0.12509000000E+03 0.  0.
         25    1    4    4    0    0  0.60988304973E+02 -0.32500659925E+02 -0.24795360515E+03  0.28618938597E+03  0.12509000000E+03 0.  0.
<mgrwt>
<rscale>  2 0.45238438E+03</rscale>
<asrwt>0</asrwt>
<pdfrwt beam="1">  1       21 0.11780099E-01 0.45238438E+03</pdfrwt>
<pdfrwt beam="2">  1       21 0.93926564E-01 0.45238438E+03</pdfrwt>
<totfact> 0.52975381E+04</totfact>
</mgrwt>
</event>
<event>
 7    0  0.4793433E-002  0.4383273E+03  0.7546771E-02  0.1031261E+00
         21   -1    0    0  502  501  0.00000000000E+00  0.00000000000E+00  0.17635914688E+03  0.17635914688E+03  0.00000000000E+00 0. -1.
         21   -1    0    0  501  502 -0.00000000000E+00 -0.00000000000E+00 -0.27235734700E+03  0.27235734700E+03  0.00000000000E+00 0. -1.
      99926    2    1    2    0    0  0.11102230246E-14  0.71054273576E-14 -0.95998200117E+02  0.44871649388E+03  0.43832731771E+03 0.  0.
      99925    2    3    3    0    0  0.14072470333E+01  0.62383470111E+02 -0.13724635314E+03  0.30296809452E+03  0.26279160405E+03 0.  0.
         25    1    3    3    0    0 -0.14072470333E+01 -0.62383470111E+02  0.41248153022E+02  0.14574839936E+03  0.12509000000E+03 0.  0.
         25    1    4    4    0    0 -0.14274927066E+02  0.67118375485E+02 -0.87417873780E+02  0.16732615643E+03  0.12509000000E+03 0.  0.
         25    1    4    4    0    0  0.15682174099E+02 -0.47349053748E+01 -0.49828479358E+02  0.13564193809E+03  0.12509000000E+03 0.  0.
<mgrwt>
<rscale>  2 0.43832732E+03</rscale>
<asrwt>0</asrwt>
<pdfrwt beam="1">  1       21 0.25935169E-01 0.43832732E+03</pdfrwt>
<pdfrwt beam="2">  1       21 0.40052550E-01 0.43832732E+03</pdfrwt>
<totfact> 0.78992721E+04</totfact>
</mgrwt>
</event>
<event>
 7    0  0.4793433E-002  0.4463688E+03  0.7546771E-02  0.1028810E+00
         21   -1    0    0  502  501  0.00000000000E+00  0.00000000000E+00  0.38947867719E+03  0.38947867719E+03  0.00000000000E+00 0.  1.
         21   -1    0    0  501  502 -0.00000000000E+00 -0.00000000000E+00 -0.12789215779E+03  0.12789215779E+03  0.00000000000E+00 0.  1.
      99926    2    1    2    0    0 -0.71054273576E-14  0.14210854715E-13  0.26158651940E+03  0.51737083498E+03  0.44636876431E+03 0.  0.
      99925    2    3    3    0    0 -0.45666330655E+02  0.91720836049E+02  0.14042342891E+03  0.31531606983E+03  0.26307291572E+03 0.  0.
         25    1    4    4    0    0 -0.54779286978E+01  0.23229623882E+02  0.30839671635E+02  0.13102754128E+03  0.12509000000E+03 0.  0.
         25    1    4    4    0    0 -0.40188401957E+02  0.68491212167E+02  0.10958375727E+03  0.18428852855E+03  0.12509000000E+03 0.  0.
         25    1    3    3    0    0  0.45666330655E+02 -0.91720836049E+02  0.12116309049E+03  0.20205476515E+03  0.12509000000E+03 0.  0.
<mgrwt>
<rscale>  2 0.44636876E+03</rscale>
<asrwt>0</asrwt>
<pdfrwt beam="1">  1       21 0.57276276E-01 0.44636876E+03</pdfrwt>
<pdfrwt beam="2">  1       21 0.18807670E-01 0.44636876E+03</pdfrwt>
<totfact> 0.68648010E+04</totfact>
</mgrwt>
</event>
<event>
 7    0  0.4793433E-002  0.4430889E+03  0.7546771E-02  0.1029803E+00
         21   -1    0    0  502  501  0.00000000000E+00  0.00000000000E+00  0.22494781756E+03  0.22494781756E+03  0.00000000000E+00 0. -1.
         21   -1    0    0  501  502 -0.00000000000E+00 -0.00000000000E+00 -0.21819252714E+03  0.21819252714E+03  0.00000000000E+00 0. -1.
      99926    2    1    2    0    0  0.00000000000E+00  0.00000000000E+00  0.67552904149E+01  0.44314034470E+03  0.44308885244E+03 0.  0.
      99925    2    3    3    0    0  0.85626459050E+02  0.52984031904E+02 -0.42924239008E+01  0.28217836715E+03  0.26356594594E+03 0.  0.
         25    1    4    4    0    0  0.48142809319E+02  0.67790744933E+02  0.62623790072E+01  0.15033309908E+03  0.12509000000E+03 0.  0.
         25    1    3    3    0    0 -0.85626459050E+02 -0.52984031904E+02  0.11047714316E+02  0.16096197755E+03  0.12509000000E+03 0.  0.
         25    1    4    4    0    0  0.37483649732E+02 -0.14806713029E+02 -0.10554802908E+02  0.13184526807E+03  0.12509000000E+03 0.  0.
<mgrwt>
<rscale>  2 0.44308885E+03</rscale>
<asrwt>0</asrwt>
<pdfrwt beam="1">  1       21 0.33080562E-01 0.44308885E+03</pdfrwt>
<pdfrwt beam="2">  1       21 0.32087136E-01 0.44308885E+03</pdfrwt>
<totfact> 0.76433399E+04</totfact>
</mgrwt>
</event>
<event>
 7    0  0.4793433E-002  0.4521494E+03  0.7546771E-02  0.1027083E+00
         21   -1    0    0  502  501  0.00000000000E+00  0.00000000000E+00  0.70524713141E+03  0.70524713141E+03  0.00000000000E+00 0.  1.
         21   -1    0    0  501  502 -0.00000000000E+00 -0.00000000000E+00 -0.72470717840E+02  0.72470717840E+02  0.00000000000E+00 0.  1.
      99926    2    1    2    0    0  0.00000000000E+00  0.00000000000E+00  0.63277641357E+03  0.77771784925E+03  0.45214938181E+03 0.  0.
      99925    2    3    3    0    0  0.23563432276E+02 -0.87163380071E+02  0.28969428257E+03  0.40154561891E+03  0.26298938486E+03 0.  0.
         25    1    4    4    0    0  0.47172554092E+02 -0.58685704611E+02  0.17444629988E+03  0.22748248598E+03  0.12509000000E+03 0.  0.
         25    1    3    3    0    0 -0.23563432276E+02  0.87163380071E+02  0.34308213100E+03  0.37617223034E+03  0.12509000000E+03 0.  0.
         25    1    4    4    0    0 -0.23609121816E+02 -0.28477675460E+02  0.11524798269E+03  0.17406313294E+03  0.12509000000E+03 0.  0.
<mgrwt>
<rscale>  2 0.45214938E+03</rscale>
<asrwt>0</asrwt>
<pdfrwt beam="1">  1       21 0.10371281E+00 0.45214938E+03</pdfrwt>
<pdfrwt beam="2">  1       21 0.10657459E-01 0.45214938E+03</pdfrwt>
<totfact> 0.49970262E+04</totfact>
</mgrwt>
</event>
<event>
 7    0  0.4793433E-002  0.4580297E+03  0.7546771E-02  0.1025354E+00
         21   -1    0    0  502  501  0.00000000000E+00  0.00000000000E+00  0.62768929996E+03  0.62768929996E+03  0.00000000000E+00 0.  1.
         21   -1    0    0  501  502 -0.00000000000E+00 -0.00000000000E+00 -0.83556936765E+02  0.83556936765E+02  0.00000000000E+00 0.  1.
      99926    2    1    2    0    0  0.00000000000E+00  0.00000000000E+00  0.54413236319E+03  0.71124623672E+03  0.45802967216E+03 0.  0.
      99925    2    3    3    0    0  0.32238205813E+02  0.10949678984E+03  0.37335480402E+03  0.47074398784E+03  0.26301567160E+03 0.  0.
         25    1    3    3    0    0 -0.32238205813E+02 -0.10949678984E+03  0.17077755917E+03  0.24050224888E+03  0.12509000000E+03 0.  0.
         25    1    4    4    0    0 -0.19795342511E+02  0.71162225322E+02  0.17378945594E+03  0.22650872167E+03  0.12509000000E+03 0.  0.
         25    1    4    4    0    0  0.52033548324E+02  0.38334564514E+02  0.19956534808E+03  0.24423526617E+03  0.12509000000E+03 0.  0.
<mgrwt>
<rscale>  2 0.45802967E+03</rscale>
<asrwt>0</asrwt>
<pdfrwt beam="1">  1       21 0.92307247E-01 0.45802967E+03</pdfrwt>
<pdfrwt beam="2">  1       21 0.12287785E-01 0.45802967E+03</pdfrwt>
<totfact> 0.51068436E+04</totfact>
</mgrwt>
</event>
<event>
 7    0  0.4793433E-002  0.4656779E+03  0.7546771E-02  0.1023147E+00
         21   -1    0    0  502  501  0.00000000000E+00  0.00000000000E+00  0.16621807678E+04  0.16621807678E+04  0.00000000000E+00 0. -1.
         21   -1    0    0  501  502 -0.00000000000E+00 -0.00000000000E+00 -0.32616167664E+02  0.32616167664E+02  0.00000000000E+00 0. -1.
      99926    2    1    2    0    0  0.00000000000E+00  0.14210854715E-13  0.16295646002E+04  0.16947969355E+04  0.46567785694E+03 0.  0.
      99925    2    3    3    0    0  0.38429927392E+02  0.65879248433E+02  0.13666385786E+04  0.13938076739E+04  0.26302450940E+03 0.  0.
         25    1    4    4    0    0  0.32802496638E+02  0.60724327273E+02  0.86697149537E+03  0.87866405958E+03  0.12509000000E+03 0.  0.
         25    1    4    4    0    0  0.56274307539E+01  0.51549211598E+01  0.49966708324E+03  0.51514361431E+03  0.12509000000E+03 0.  0.
         25    1    3    3    0    0 -0.38429927392E+02 -0.65879248433E+02  0.26292602157E+03  0.30098926162E+03  0.12509000000E+03 0.  0.
<mgrwt>
<rscale>  2 0.46567786E+03</rscale>
<asrwt>0</asrwt>
<pdfrwt beam="1">  1       21 0.24443829E+00 0.46567786E+03</pdfrwt>
<pdfrwt beam="2">  1       21 0.47964964E-02 0.46567786E+03</pdfrwt>
<totfact> 0.17844257E+04</totfact>
</mgrwt>
</event>
<event>
 7    0  0.4793433E-002  0.4381537E+03  0.7546771E-02  0.1031315E+00
         21   -1    0    0  502  501  0.00000000000E+00  0.00000000000E+00  0.41527530384E+03  0.41527530384E+03  0.00000000000E+00 0. -1.
         21   -1    0    0  501  502 -0.00000000000E+00 -0.00000000000E+00 -0.11557313190E+03  0.11557313190E+03  0.00000000000E+00 0. -1.
      99926    2    1    2    0    0 -0.71054273576E-14  0.00000000000E+00  0.29970217194E+03  0.53084843573E+03  0.43815370574E+03 0.  0.
      99925    2    3    3    0    0  0.35267086134E+02 -0.85498183794E+02  0.15831611695E+03  0.32063133024E+03  0.26303374356E+03 0.  0.
         25    1    4    4    0    0 -0.91984427691E+01 -0.24708985998E+02  0.44026734753E+02  0.13520727352E+03  0.12509000000E+03 0.  0.
         25    1    4    4    0    0  0.44465528903E+02 -0.60789197796E+02  0.11428938220E+03  0.18542405673E+03  0.12509000000E+03 0.  0.
         25    1    3    3    0    0 -0.35267086134E+02  0.85498183794E+02  0.14138605499E+03  0.21021710549E+03  0.12509000000E+03 0.  0.
<mgrwt>
<rscale>  2 0.43815371E+03</rscale>
<asrwt>0</asrwt>
<pdfrwt beam="1">  1       21 0.61069897E-01 0.43815371E+03</pdfrwt>
<pdfrwt beam="2">  1       21 0.16996049E-01 0.43815371E+03</pdfrwt>
<totfact> 0.72322407E+04</totfact>
</mgrwt>
</event>
<event>
 7    0  0.4793433E-002  0.4551847E+03  0.7546771E-02  0.1026187E+00
         21   -1    0    0  502  501  0.00000000000E+00  0.00000000000E+00  0.13303703533E+03  0.13303703533E+03  0.00000000000E+00 0.  1.
         21   -1    0    0  501  502 -0.00000000000E+00 -0.00000000000E+00 -0.38935228486E+03  0.38935228486E+03  0.00000000000E+00 0.  1.
      99926    2    1    2    0    0  0.00000000000E+00  0.00000000000E+00 -0.25631524953E+03  0.52238932019E+03  0.45518468198E+03 0.  0.
      99925    2    3    3    0    0 -0.82999999221E+02  0.72447744916E+02 -0.19209292675E+03  0.34375648318E+03  0.26292803504E+03 0.  0.
         25    1    3    3    0    0  0.82999999221E+02 -0.72447744916E+02 -0.64222322785E+02  0.17863283701E+03  0.12509000000E+03 0.  0.
         25    1    4    4    0    0 -0.19489541312E+01  0.38250815976E+02 -0.72105492708E+02  0.14937748667E+03  0.12509000000E+03 0.  0.
         25    1    4    4    0    0 -0.81051045089E+02  0.34196928941E+02 -0.11998743404E+03  0.19437899651E+03  0.12509000000E+03 0.  0.
<mgrwt>
<rscale>  2 0.45518468E+03</rscale>
<asrwt>0</asrwt>
<pdfrwt beam="1">  1       21 0.19564270E-01 0.45518468E+03</pdfrwt>
<pdfrwt beam="2">  1       21 0.57257688E-01 0.45518468E+03</pdfrwt>
<totfact> 0.63631384E+04</totfact>
</mgrwt>
</event>
<event>
 7    0  0.4793433E-002  0.4541678E+03  0.7546771E-02  0.1026486E+00
         21   -1    0    0  502  501  0.00000000000E+00  0.00000000000E+00  0.78727220162E+03  0.78727220162E+03  0.00000000000E+00 0.  1.
         21   -1    0    0  501  502 -0.00000000000E+00 -0.00000000000E+00 -0.65500965377E+02  0.65500965377E+02  0.00000000000E+00 0.  1.
      99926    2    1    2    0    0  0.71054273576E-14  0.00000000000E+00  0.72177123624E+03  0.85277316700E+03  0.45416776293E+03 0.  0.
      99925    2    3    3    0    0 -0.47911579624E+02 -0.57322620082E+02  0.29686960578E+03  0.40358466992E+03  0.26299737779E+03 0.  0.
         25    1    4    4    0    0  0.10152317217E+02 -0.15061293504E+02  0.16739657658E+03  0.20975946715E+03  0.12509000000E+03 0.  0.
         25    1    3    3    0    0  0.47911579624E+02  0.57322620082E+02  0.42490163046E+03  0.44918849707E+03  0.12509000000E+03 0.  0.
         25    1    4    4    0    0 -0.58063896841E+02 -0.42261326578E+02  0.12947302920E+03  0.19382520278E+03  0.12509000000E+03 0.  0.
<mgrwt>
<rscale>  2 0.45416776E+03</rscale>
<asrwt>0</asrwt>
<pdfrwt beam="1">  1       21 0.11577532E+00 0.45416776E+03</pdfrwt>
<pdfrwt beam="2">  1       21 0.96324954E-02 0.45416776E+03</pdfrwt>
<totfact> 0.45612620E+04</totfact>
</mgrwt>
</event>
<event>
 7    0  0.4793433E-002  0.4242669E+03  0.7546771E-02  0.1035686E+00
         21   -1    0    0  502  501  0.00000000000E+00  0.00000000000E+00  0.26426658238E+04  0.26426658238E+04  0.00000000000E+00 0. -1.
         21   -1    0    0  501  502 -0.00000000000E+00 -0.00000000000E+00 -0.17028489956E+02  0.17028489956E+02  0.00000000000E+00 0. -1.
      99926    2    1    2    0    0  0.88817841970E-15  0.00000000000E+00  0.26256373338E+04  0.26596943137E+04  0.42426693691E+03 0.  0.
      99925    2    3    3    0    0 -0.30000492180E+01  0.64153918716E+02  0.13923222726E+04  0.14183892449E+04  0.26294869021E+03 0.  0.
         25    1    4    4    0    0  0.25409384871E+01  0.24348258328E+02  0.89383837947E+03  0.90288086189E+03  0.12509000000E+03 0.  0.
         25    1    3    3    0    0  0.30000492180E+01 -0.64153918716E+02  0.12333150612E+04  0.12413050688E+04  0.12509000000E+03 0.  0.
         25    1    4    4    0    0 -0.55409877050E+01  0.39805660389E+02  0.49848389317E+03  0.51550838305E+03  0.12509000000E+03 0.  0.
<mgrwt>
<rscale>  2 0.42426694E+03</rscale>
<asrwt>0</asrwt>
<pdfrwt beam="1">  1       21 0.38862704E+00 0.42426694E+03</pdfrwt>
<pdfrwt beam="2">  1       21 0.25041915E-02 0.42426694E+03</pdfrwt>
<totfact> 0.72063076E+03</totfact>
</mgrwt>
</event>
<event>
 7    0  0.4793433E-002  0.4238259E+03  0.7546771E-02  0.1035828E+00
         21   -1    0    0  502  501  0.00000000000E+00  0.00000000000E+00  0.12251374126E+04  0.12251374126E+04  0.00000000000E+00 0.  1.
         21   -1    0    0  501  502 -0.00000000000E+00 -0.00000000000E+00 -0.36654739234E+02  0.36654739234E+02  0.00000000000E+00 0.  1.
      99926    2    1    2    0    0  0.00000000000E+00  0.88817841970E-15  0.11884826734E+04  0.12617921519E+04  0.42382587172E+03 0.  0.
      99925    2    3    3    0    0 -0.31317137011E+02 -0.55093855478E+01  0.99165768810E+03  0.10264228690E+04  0.26295972914E+03 0.  0.
         25    1    4    4    0    0 -0.80364285799E+01 -0.30293684055E+02  0.38342600225E+03  0.40453096146E+03  0.12509000000E+03 0.  0.
         25    1    3    3    0    0  0.31317137011E+02  0.55093855478E+01  0.19682498530E+03  0.23536928291E+03  0.12509000000E+03 0.  0.
         25    1    4    4    0    0 -0.23280708431E+02  0.24784298507E+02  0.60823168585E+03  0.62189190749E+03  0.12509000000E+03 0.  0.
<mgrwt>
<rscale>  2 0.42382587E+03</rscale>
<asrwt>0</asrwt>
<pdfrwt beam="1">  1       21 0.18016724E+00 0.42382587E+03</pdfrwt>
<pdfrwt beam="2">  1       21 0.53904036E-02 0.42382587E+03</pdfrwt>
<totfact> 0.38845924E+04</totfact>
</mgrwt>
</event>
<event>
 7    0  0.4793433E-002  0.4551112E+03  0.7546771E-02  0.1026209E+00
         21   -1    0    0  502  501  0.00000000000E+00  0.00000000000E+00  0.58980409595E+03  0.58980409595E+03  0.00000000000E+00 0.  1.
         21   -1    0    0  501  502 -0.00000000000E+00 -0.00000000000E+00 -0.87794486292E+02  0.87794486292E+02  0.00000000000E+00 0.  1.
      99926    2    1    2    0    0 -0.35527136788E-14  0.00000000000E+00  0.50200960966E+03  0.67759858224E+03  0.45511118473E+03 0.  0.
      99925    2    3    3    0    0  0.72438279393E+01 -0.37268291072E+02  0.15718141309E+03  0.30882305185E+03  0.26310507820E+03 0.  0.
         25    1    4    4    0    0 -0.28704762334E+02 -0.41451451171E+02  0.68443629114E+02  0.15124227138E+03  0.12509000000E+03 0.  0.
         25    1    4    4    0    0  0.35948590273E+02  0.41831600991E+01  0.88737783973E+02  0.15758078048E+03  0.12509000000E+03 0.  0.
         25    1    3    3    0    0 -0.72438279393E+01  0.37268291072E+02  0.34482819657E+03  0.36877553039E+03  0.12509000000E+03 0.  0.
<mgrwt>
<rscale>  2 0.45511118E+03</rscale>
<asrwt>0</asrwt>
<pdfrwt beam="1">  1       21 0.86735895E-01 0.45511118E+03</pdfrwt>
<pdfrwt beam="2">  1       21 0.12910954E-01 0.45511118E+03</pdfrwt>
<totfact> 0.54089335E+04</totfact>
</mgrwt>
</event>
<event>
 7    0  0.4793433E-002  0.4554422E+03  0.7546771E-02  0.1026111E+00
         21   -1    0    0  502  501  0.00000000000E+00  0.00000000000E+00  0.23584744705E+03  0.23584744705E+03  0.00000000000E+00 0. -1.
         21   -1    0    0  501  502 -0.00000000000E+00 -0.00000000000E+00 -0.21987473342E+03  0.21987473342E+03  0.00000000000E+00 0. -1.
      99926    2    1    2    0    0  0.00000000000E+00 -0.17763568394E-14  0.15972713631E+02  0.45572218047E+03  0.45544217876E+03 0.  0.
      99925    2    3    3    0    0 -0.64027360085E+02 -0.81389366189E+01  0.10365861710E+03  0.28988469708E+03  0.26291117050E+03 0.  0.
         25    1    4    4    0    0  0.66954560074E+00 -0.27343193431E+02  0.58262943286E+02  0.14067756459E+03  0.12509000000E+03 0.  0.
         25    1    4    4    0    0 -0.64696905686E+02  0.19204256812E+02  0.45395673815E+02  0.14920713249E+03  0.12509000000E+03 0.  0.
         25    1    3    3    0    0  0.64027360085E+02  0.81389366189E+01 -0.87685903470E+02  0.16583748339E+03  0.12509000000E+03 0.  0.
<mgrwt>
<rscale>  2 0.45544218E+03</rscale>
<asrwt>0</asrwt>
<pdfrwt beam="1">  1       21 0.34683448E-01 0.45544218E+03</pdfrwt>
<pdfrwt beam="2">  1       21 0.32334520E-01 0.45544218E+03</pdfrwt>
<totfact> 0.68251815E+04</totfact>
</mgrwt>
</event>
<event>
 7    0  0.4793433E-002  0.4631591E+03  0.7546771E-02  0.1023869E+00
         21   -1    0    0  502  501  0.00000000000E+00  0.00000000000E+00  0.99672030882E+02  0.99672030882E+02  0.00000000000E+00 0. -1.
         21   -1    0    0  501  502 -0.00000000000E+00 -0.00000000000E+00 -0.53805556605E+03  0.53805556605E+03  0.00000000000E+00 0. -1.
      99926    2    1    2    0    0  0.00000000000E+00  0.71054273576E-14 -0.43838353517E+03  0.63772759693E+03  0.46315911303E+03 0.  0.
      99925    2    3    3    0    0 -0.45471239548E+02 -0.48237961198E+02 -0.41198735338E+03  0.49371787143E+03  0.26387349752E+03 0.  0.
         25    1    3    3    0    0  0.45471239548E+02  0.48237961198E+02 -0.26396181783E+02  0.14400972550E+03  0.12509000000E+03 0.  0.
         25    1    4    4    0    0 -0.11329112720E+01 -0.33383706033E+01 -0.14007115693E+03  0.18782935157E+03  0.12509000000E+03 0.  0.
         25    1    4    4    0    0 -0.44338328276E+02 -0.44899590595E+02 -0.27191619645E+03  0.30588851986E+03  0.12509000000E+03 0.  0.
<mgrwt>
<rscale>  2 0.46315911E+03</rscale>
<asrwt>0</asrwt>
<pdfrwt beam="1">  1       21 0.14657652E-01 0.46315911E+03</pdfrwt>
<pdfrwt beam="2">  1       21 0.79125817E-01 0.46315911E+03</pdfrwt>
<totfact> 0.52922809E+04</totfact>
</mgrwt>
</event>
<event>
 7    0  0.4793433E-002  0.4559638E+03  0.7546771E-02  0.1025958E+00
         21   -1    0    0  502  501  0.00000000000E+00  0.00000000000E+00  0.66749908379E+02  0.66749908379E+02  0.00000000000E+00 0.  1.
         21   -1    0    0  501  502 -0.00000000000E+00 -0.00000000000E+00 -0.77866399645E+03  0.77866399645E+03  0.00000000000E+00 0.  1.
      99926    2    1    2    0    0  0.00000000000E+00  0.00000000000E+00 -0.71191408807E+03  0.84541390483E+03  0.45596381620E+03 0.  0.
      99925    2    3    3    0    0 -0.10758581071E+03 -0.26503987212E+02 -0.49779247398E+03  0.57380252487E+03  0.26301106894E+03 0.  0.
         25    1    4    4    0    0 -0.74093104004E+02 -0.48542169467E+02 -0.24705014945E+03  0.29073598801E+03  0.12509000000E+03 0.  0.
         25    1    4    4    0    0 -0.33492706708E+02  0.22038182255E+02 -0.25074232453E+03  0.28306653686E+03  0.12509000000E+03 0.  0.
         25    1    3    3    0    0  0.10758581071E+03  0.26503987212E+02 -0.21412161409E+03  0.27161137996E+03  0.12509000000E+03 0.  0.
<mgrwt>
<rscale>  2 0.45596382E+03</rscale>
<asrwt>0</asrwt>
<pdfrwt beam="1">  1       21 0.98161629E-02 0.45596382E+03</pdfrwt>
<pdfrwt beam="2">  1       21 0.11450941E+00 0.45596382E+03</pdfrwt>
<totfact> 0.45301727E+04</totfact>
</mgrwt>
</event>
<event>
 7    0  0.4793433E-002  0.4546806E+03  0.7546771E-02  0.1026335E+00
         21   -1    0    0  502  501  0.00000000000E+00  0.00000000000E+00  0.34509011343E+02  0.34509011343E+02  0.00000000000E+00 0.  1.
         21   -1    0    0  501  502 -0.00000000000E+00 -0.00000000000E+00 -0.14976841988E+04  0.14976841988E+04  0.00000000000E+00 0.  1.
      99926    2    1    2    0    0  0.00000000000E+00  0.00000000000E+00 -0.14631751874E+04  0.15321932101E+04  0.45468055161E+03 0.  0.
      99925    2    3    3    0    0  0.71065385002E+02 -0.87231926865E+02 -0.94809006671E+03  0.99032617136E+03  0.26308069687E+03 0.  0.
         25    1    4    4    0    0  0.27485061641E+02 -0.73149407836E+02 -0.40137463377E+03  0.42761591319E+03  0.12509000000E+03 0.  0.
         25    1    4    4    0    0  0.43580323361E+02 -0.14082519029E+02 -0.54671543295E+03  0.56271025817E+03  0.12509000000E+03 0.  0.
         25    1    3    3    0    0 -0.71065385002E+02  0.87231926865E+02 -0.51508512071E+03  0.54186703876E+03  0.12509000000E+03 0.  0.
<mgrwt>
<rscale>  2 0.45468055E+03</rscale>
<asrwt>0</asrwt>
<pdfrwt beam="1">  1       21 0.50748561E-02 0.45468055E+03</pdfrwt>
<pdfrwt beam="2">  1       21 0.22024761E+00 0.45468055E+03</pdfrwt>
<totfact> 0.23058204E+04</totfact>
</mgrwt>
</event>
<event>
 7    0  0.4793433E-002  0.4593458E+03  0.7546771E-02  0.1024971E+00
         21   -1    0    0  502  501  0.00000000000E+00  0.00000000000E+00  0.37925749250E+03  0.37925749250E+03  0.00000000000E+00 0.  1.
         21   -1    0    0  501  502 -0.00000000000E+00 -0.00000000000E+00 -0.13908662319E+03  0.13908662319E+03  0.00000000000E+00 0.  1.
      99926    2    1    2    0    0  0.00000000000E+00  0.71054273576E-14  0.24017086930E+03  0.51834411569E+03  0.45934581288E+03 0.  0.
      99925    2    3    3    0    0  0.73199134743E+02 -0.36996550054E+02  0.56181108392E+02  0.28122263150E+03  0.26306461846E+03 0.  0.
         25    1    4    4    0    0  0.28701122981E+02 -0.46519306540E+02 -0.58830866232E+00  0.13651247030E+03  0.12509000000E+03 0.  0.
         25    1    4    4    0    0  0.44498011762E+02  0.95227564860E+01  0.56769417054E+02  0.14471016120E+03  0.12509000000E+03 0.  0.
         25    1    3    3    0    0 -0.73199134743E+02  0.36996550054E+02  0.18398976091E+03  0.23712148419E+03  0.12509000000E+03 0.  0.
<mgrwt>
<rscale>  2 0.45934581E+03</rscale>
<asrwt>0</asrwt>
<pdfrwt beam="1">  1       21 0.55773161E-01 0.45934581E+03</pdfrwt>
<pdfrwt beam="2">  1       21 0.20453915E-01 0.45934581E+03</pdfrwt>
<totfact> 0.61840095E+04</totfact>
</mgrwt>
</event>
<event>
 7    0  0.4793433E-002  0.4461643E+03  0.7546771E-02  0.1028872E+00
         21   -1    0    0  502  501  0.00000000000E+00  0.00000000000E+00  0.26293257119E+03  0.26293257119E+03  0.00000000000E+00 0.  1.
         21   -1    0    0  501  502 -0.00000000000E+00 -0.00000000000E+00 -0.18927148410E+03  0.18927148410E+03  0.00000000000E+00 0.  1.
      99926    2    1    2    0    0  0.00000000000E+00  0.00000000000E+00  0.73661087095E+02  0.45220405529E+03  0.44616426556E+03 0.  0.
      99925    2    3    3    0    0 -0.36392964757E+02  0.89526608875E+02  0.87545396484E+02  0.29352279071E+03  0.26296762280E+03 0.  0.
         25    1    4    4    0    0 -0.38092007172E+02  0.52492621963E+02  0.81802726312E+02  0.16292842141E+03  0.12509000000E+03 0.  0.
         25    1    3    3    0    0  0.36392964757E+02 -0.89526608875E+02 -0.13884309389E+02  0.15868126458E+03  0.12509000000E+03 0.  0.
         25    1    4    4    0    0  0.16990424148E+01  0.37033986912E+02  0.57426701721E+01  0.13059436930E+03  0.12509000000E+03 0.  0.
<mgrwt>
<rscale>  2 0.44616427E+03</rscale>
<asrwt>0</asrwt>
<pdfrwt beam="1">  1       21 0.38666555E-01 0.44616427E+03</pdfrwt>
<pdfrwt beam="2">  1       21 0.27834042E-01 0.44616427E+03</pdfrwt>
<totfact> 0.73818149E+04</totfact>
</mgrwt>
</event>
<event>
 7    0  0.4793433E-002  0.4570477E+03  0.7546771E-02  0.1025641E+00
         21   -1    0    0  502  501  0.00000000000E+00  0.00000000000E+00  0.14136753893E+03  0.14136753893E+03  0.00000000000E+00 0. -1.
         21   -1    0    0  501  502 -0.00000000000E+00 -0.00000000000E+00 -0.36941395924E+03  0.36941395924E+03  0.00000000000E+00 0. -1.
      99926    2    1    2    0    0  0.00000000000E+00  0.00000000000E+00 -0.22804642031E+03  0.51078149818E+03  0.45704766607E+03 0.  0.
      99925    2    3    3    0    0 -0.88350836777E+02  0.66691189012E+02 -0.17847192576E+03  0.33654394866E+03  0.26297531452E+03 0.  0.
         25    1    3    3    0    0  0.88350836777E+02 -0.66691189012E+02 -0.49574494558E+02  0.17423754952E+03  0.12509000000E+03 0.  0.
         25    1    4    4    0    0 -0.82955021228E+02  0.30740323270E+02 -0.11541434011E+03  0.19181887557E+03  0.12509000000E+03 0.  0.
         25    1    4    4    0    0 -0.53958155490E+01  0.35950865742E+02 -0.63057585646E+02  0.14472507309E+03  0.12509000000E+03 0.  0.
<mgrwt>
<rscale>  2 0.45704767E+03</rscale>
<asrwt>0</asrwt>
<pdfrwt beam="1">  1       21 0.20789344E-01 0.45704767E+03</pdfrwt>
<pdfrwt beam="2">  1       21 0.54325581E-01 0.45704767E+03</pdfrwt>
<totfact> 0.63481738E+04</totfact>
</mgrwt>
</event>
<event>
 7    0  0.4793433E-002  0.4580867E+03  0.7546771E-02  0.1025338E+00
         21   -1    0    0  502  501  0.00000000000E+00  0.00000000000E+00  0.87212809277E+02  0.87212809277E+02  0.00000000000E+00 0. -1.
         21   -1    0    0  501  502 -0.00000000000E+00 -0.00000000000E+00 -0.60152705836E+03  0.60152705836E+03  0.00000000000E+00 0. -1.
      99926    2    1    2    0    0  0.35527136788E-14 -0.14210854715E-13 -0.51431424908E+03  0.68873986763E+03  0.45808673683E+03 0.  0.
      99925    2    3    3    0    0  0.31711525435E+02 -0.70242708879E+02 -0.19276137732E+03  0.33520993053E+03  0.26319021627E+03 0.  0.
         25    1    3    3    0    0 -0.31711525435E+02  0.70242708879E+02 -0.32155287176E+03  0.35352993711E+03  0.12509000000E+03 0.  0.
         25    1    4    4    0    0  0.11914489206E+02 -0.24750619585E+02 -0.14241449548E+03  0.19153053241E+03  0.12509000000E+03 0.  0.
         25    1    4    4    0    0  0.19797036228E+02 -0.45492089294E+02 -0.50346881846E+02  0.14367939812E+03  0.12509000000E+03 0.  0.
<mgrwt>
<rscale>  2 0.45808674E+03</rscale>
<asrwt>0</asrwt>
<pdfrwt beam="1">  1       21 0.12825412E-01 0.45808674E+03</pdfrwt>
<pdfrwt beam="2">  1       21 0.88459868E-01 0.45808674E+03</pdfrwt>
<totfact> 0.52237724E+04</totfact>
</mgrwt>
</event>
<event>
 7    0  0.4793433E-002  0.4624603E+03  0.7546771E-02  0.1024070E+00
         21   -1    0    0  502  501  0.00000000000E+00  0.00000000000E+00  0.37610313806E+02  0.37610313806E+02  0.00000000000E+00 0. -1.
         21   -1    0    0  501  502 -0.00000000000E+00 -0.00000000000E+00 -0.14216146975E+04  0.14216146975E+04  0.00000000000E+00 0. -1.
      99926    2    1    2    0    0  0.00000000000E+00 -0.17763568394E-14 -0.13840043837E+04  0.14592250113E+04  0.46246026806E+03 0.  0.
      99925    2    3    3    0    0  0.69187753251E+02 -0.82106665285E+01 -0.11737557409E+04  0.12048505626E+04  0.26288396434E+03 0.  0.
         25    1    4    4    0    0  0.47954073234E+02  0.15927828778E+01 -0.43333577432E+03  0.45357417420E+03  0.12509000000E+03 0.  0.
         25    1    4    4    0    0  0.21233680018E+02 -0.98034494063E+01 -0.74041996656E+03  0.75127638840E+03  0.12509000000E+03 0.  0.
         25    1    3    3    0    0 -0.69187753251E+02  0.82106665285E+01 -0.21024864277E+03  0.25437444866E+03  0.12509000000E+03 0.  0.
<mgrwt>
<rscale>  2 0.46246027E+03</rscale>
<asrwt>0</asrwt>
<pdfrwt beam="1">  1       21 0.55309298E-02 0.46246027E+03</pdfrwt>
<pdfrwt beam="2">  1       21 0.20906094E+00 0.46246027E+03</pdfrwt>
<totfact> 0.23409040E+04</totfact>
</mgrwt>
</event>
<event>
 7    0  0.4793433E-002  0.4314770E+03  0.7546771E-02  0.1033394E+00
         21   -1    0    0  502  501  0.00000000000E+00  0.00000000000E+00  0.32796823768E+03  0.32796823768E+03  0.00000000000E+00 0.  1.
         21   -1    0    0  501  502 -0.00000000000E+00 -0.00000000000E+00 -0.14191341470E+03  0.14191341470E+03  0.00000000000E+00 0.  1.
      99926    2    1    2    0    0  0.14210854715E-13  0.71054273576E-14  0.18605482299E+03  0.46988165238E+03  0.43147696357E+03 0.  0.
      99925    2    3    3    0    0 -0.78816083016E+02  0.42314198291E+02  0.12096358039E+03  0.30288810676E+03  0.26288124907E+03 0.  0.
         25    1    4    4    0    0 -0.59886022105E+01  0.27411042947E+02  0.31278330758E+02  0.13195859467E+03  0.12509000000E+03 0.  0.
         25    1    4    4    0    0 -0.72827480806E+02  0.14903155343E+02  0.89685249637E+02  0.17092951209E+03  0.12509000000E+03 0.  0.
         25    1    3    3    0    0  0.78816083016E+02 -0.42314198291E+02  0.65091242591E+02  0.16699354563E+03  0.12509000000E+03 0.  0.
<mgrwt>
<rscale>  2 0.43147696E+03</rscale>
<asrwt>0</asrwt>
<pdfrwt beam="1">  1       21 0.48230623E-01 0.43147696E+03</pdfrwt>
<pdfrwt beam="2">  1       21 0.20869620E-01 0.43147696E+03</pdfrwt>
<totfact> 0.81659296E+04</totfact>
</mgrwt>
</event>
<event>
 7    0  0.4793433E-002  0.4544441E+03  0.7546771E-02  0.1026405E+00
         21   -1    0    0  502  501  0.00000000000E+00  0.00000000000E+00  0.90271598327E+03  0.90271598327E+03  0.00000000000E+00 0.  1.
         21   -1    0    0  501  502 -0.00000000000E+00 -0.00000000000E+00 -0.57193917083E+02  0.57193917083E+02  0.00000000000E+00 0.  1.
      99926    2    1    2    0    0  0.71054273576E-14  0.00000000000E+00  0.84552206619E+03  0.95990990036E+03  0.45444411360E+03 0.  0.
      99925    2    3    3    0    0 -0.37011852701E+02  0.10113629176E+03  0.46231523908E+03  0.54266487978E+03  0.26296647069E+03 0.  0.
         25    1    3    3    0    0  0.37011852701E+02 -0.10113629176E+03  0.38320682711E+03  0.41724502058E+03  0.12509000000E+03 0.  0.
         25    1    4    4    0    0 -0.47582123834E+02  0.58883635911E+02  0.29516937640E+03  0.32939916507E+03  0.12509000000E+03 0.  0.
         25    1    4    4    0    0  0.10570271133E+02  0.42252655852E+02  0.16714586268E+03  0.21326571471E+03  0.12509000000E+03 0.  0.
<mgrwt>
<rscale>  2 0.45444411E+03</rscale>
<asrwt>0</asrwt>
<pdfrwt beam="1">  1       21 0.13275234E+00 0.45444411E+03</pdfrwt>
<pdfrwt beam="2">  1       21 0.84108707E-02 0.45444411E+03</pdfrwt>
<totfact> 0.40919703E+04</totfact>
</mgrwt>
</event>
<event>
 7    0  0.4793433E-002  0.4603523E+03  0.7546771E-02  0.1024679E+00
         21   -1    0    0  502  501  0.00000000000E+00  0.00000000000E+00  0.11366279303E+03  0.11366279303E+03  0.00000000000E+00 0. -1.
         21   -1    0    0  501  502 -0.00000000000E+00 -0.00000000000E+00 -0.46612488453E+03  0.46612488453E+03  0.00000000000E+00 0. -1.
      99926    2    1    2    0    0  0.00000000000E+00  0.00000000000E+00 -0.35246209150E+03  0.57978767755E+03  0.46035228369E+03 0.  0.
      99925    2    3    3    0    0  0.18672897124E+02  0.97283482729E+02 -0.30176931603E+03  0.41236599830E+03  0.26299856151E+03 0.  0.
         25    1    4    4    0    0  0.24498410016E+02  0.67083406631E+02 -0.10951427218E+03  0.18094540461E+03  0.12509000000E+03 0.  0.
         25    1    3    3    0    0 -0.18672897124E+02 -0.97283482729E+02 -0.50692775468E+02  0.16742167925E+03  0.12509000000E+03 0.  0.
         25    1    4    4    0    0 -0.58255128921E+01  0.30200076099E+02 -0.19225504386E+03  0.23142059369E+03  0.12509000000E+03 0.  0.
<mgrwt>
<rscale>  2 0.46035228E+03</rscale>
<asrwt>0</asrwt>
<pdfrwt beam="1">  1       21 0.16715117E-01 0.46035228E+03</pdfrwt>
<pdfrwt beam="2">  1       21 0.68547776E-01 0.46035228E+03</pdfrwt>
<totfact> 0.57469291E+04</totfact>
</mgrwt>
</event>
<event>
 6    0  0.5363075E-002  0.4313011E+03  0.7546771E-02  0.1033450E+00
         21   -1    0    0  502  501  0.00000000000E+00  0.00000000000E+00  0.96377599339E+03  0.96377599339E+03  0.00000000000E+00 0. -1.
         21   -1    0    0  501  502 -0.00000000000E+00 -0.00000000000E+00 -0.48253088548E+02  0.48253088548E+02  0.00000000000E+00 0. -1.
      99926    2    1    2    0    0 -0.35527136788E-14  0.00000000000E+00  0.91552290485E+03  0.10120290819E+04  0.43130114004E+03 0.  0.
         25    1    3    3    0    0  0.83498228798E+01 -0.63861133729E+02  0.20192073963E+03  0.24610456545E+03  0.12509000000E+03 0.  0.
         25    1    3    3    0    0 -0.37330580723E+02  0.27138246116E+02  0.24828103475E+03  0.28181738231E+03  0.12509000000E+03 0.  0.
         25    1    3    3    0    0  0.28980757843E+02  0.36722887612E+02  0.46532113047E+03  0.48410713418E+03  0.12509000000E+03 0.  0.
<mgrwt>
<rscale>  2 0.43130114E+03</rscale>
<asrwt>0</asrwt>
<pdfrwt beam="1">  1       21 0.14173175E+00 0.43130114E+03</pdfrwt>
<pdfrwt beam="2">  1       21 0.70960430E-02 0.43130114E+03</pdfrwt>
<totfact> 0.46777189E+04</totfact>
</mgrwt>
</event>
<event>
 7    0  0.4793433E-002  0.4444977E+03  0.7546771E-02  0.1029376E+00
         21   -1    0    0  502  501  0.00000000000E+00  0.00000000000E+00  0.37725910358E+02  0.37725910358E+02  0.00000000000E+00 0.  1.
         21   -1    0    0  501  502 -0.00000000000E+00 -0.00000000000E+00 -0.13093004221E+04  0.13093004221E+04  0.00000000000E+00 0.  1.
      99926    2    1    2    0    0  0.00000000000E+00  0.26645352591E-14 -0.12715745117E+04  0.13470263324E+04  0.44449769563E+03 0.  0.
      99925    2    3    3    0    0  0.26247789584E+02 -0.68070153214E+01 -0.50711537554E+03  0.57192597706E+03  0.26305519803E+03 0.  0.
         25    1    3    3    0    0 -0.26247789584E+02  0.68070153214E+01 -0.76445913618E+03  0.77510035537E+03  0.12509000000E+03 0.  0.
         25    1    4    4    0    0  0.26951016068E+02 -0.41135098819E+02 -0.27217283314E+03  0.30355232303E+03  0.12509000000E+03 0.  0.
         25    1    4    4    0    0 -0.70322648350E+00  0.34328083498E+02 -0.23494254240E+03  0.26837365403E+03  0.12509000000E+03 0.  0.
<mgrwt>
<rscale>  2 0.44449770E+03</rscale>
<asrwt>0</asrwt>
<pdfrwt beam="1">  1       21 0.55479281E-02 0.44449770E+03</pdfrwt>
<pdfrwt beam="2">  1       21 0.19254418E+00 0.44449770E+03</pdfrwt>
<totfact> 0.30167155E+04</totfact>
</mgrwt>
</event>
<event>
 7    0  0.4793433E-002  0.4004567E+03  0.7546771E-02  0.1043622E+00
         21   -1    0    0  502  501  0.00000000000E+00  0.00000000000E+00  0.46050781455E+03  0.46050781455E+03  0.00000000000E+00 0. -1.
         21   -1    0    0  501  502 -0.00000000000E+00 -0.00000000000E+00 -0.87059102149E+02  0.87059102149E+02  0.00000000000E+00 0. -1.
      99926    2    1    2    0    0  0.00000000000E+00  0.00000000000E+00  0.37344871240E+03  0.54756691670E+03  0.40045672359E+03 0.  0.
      99925    2    3    3    0    0  0.21944467187E+02  0.33646874883E+02  0.21780911903E+03  0.34388858463E+03  0.26306819359E+03 0.  0.
         25    1    4    4    0    0  0.21381582375E+02  0.33243553512E+02  0.64995197196E+02  0.14640419964E+03  0.12509000000E+03 0.  0.
         25    1    4    4    0    0  0.56288481171E+00  0.40332137087E+00  0.15281392184E+03  0.19748438499E+03  0.12509000000E+03 0.  0.
         25    1    3    3    0    0 -0.21944467187E+02 -0.33646874883E+02  0.15563959337E+03  0.20367833207E+03  0.12509000000E+03 0.  0.
<mgrwt>
<rscale>  2 0.40045672E+03</rscale>
<asrwt>0</asrwt>
<pdfrwt beam="1">  1       21 0.67721736E-01 0.40045672E+03</pdfrwt>
<pdfrwt beam="2">  1       21 0.12802809E-01 0.40045672E+03</pdfrwt>
<totfact> 0.97928313E+04</totfact>
</mgrwt>
</event>
<event>
 7    0  0.4793433E-002  0.4351768E+03  0.7546771E-02  0.1032237E+00
         21   -1    0    0  502  501  0.00000000000E+00  0.00000000000E+00  0.95530978889E+02  0.95530978889E+02  0.00000000000E+00 0. -1.
         21   -1    0    0  501  502 -0.00000000000E+00 -0.00000000000E+00 -0.49559535365E+03  0.49559535365E+03  0.00000000000E+00 0. -1.
      99926    2    1    2    0    0  0.00000000000E+00 -0.71054273576E-14 -0.40006437476E+03  0.59112633254E+03  0.43517678829E+03 0.  0.
      99925    2    3    3    0    0 -0.71412676492E+02  0.57327199310E+02 -0.23072502801E+03  0.36154083517E+03  0.26285273215E+03 0.  0.
         25    1    3    3    0    0  0.71412676492E+02 -0.57327199310E+02 -0.16933934675E+03  0.22958549737E+03  0.12509000000E+03 0.  0.
         25    1    4    4    0    0 -0.61134601587E+02  0.27752056532E+02 -0.16205880354E+03  0.21544878755E+03  0.12509000000E+03 0.  0.
         25    1    4    4    0    0 -0.10278074905E+02  0.29575142778E+02 -0.68666224472E+02  0.14609204762E+03  0.12509000000E+03 0.  0.
<mgrwt>
<rscale>  2 0.43517679E+03</rscale>
<asrwt>0</asrwt>
<pdfrwt beam="1">  1       21 0.14048673E-01 0.43517679E+03</pdfrwt>
<pdfrwt beam="2">  1       21 0.72881670E-01 0.43517679E+03</pdfrwt>
<totfact> 0.69490729E+04</totfact>
</mgrwt>
</event>
<event>
 7    0  0.4793433E-002  0.4554813E+03  0.7546771E-02  0.1026100E+00
         21   -1    0    0  502  501  0.00000000000E+00  0.00000000000E+00  0.76796739198E+03  0.76796739198E+03  0.00000000000E+00 0. -1.
         21   -1    0    0  501  502 -0.00000000000E+00 -0.00000000000E+00 -0.67536459430E+02  0.67536459430E+02  0.00000000000E+00 0. -1.
      99926    2    1    2    0    0  0.00000000000E+00  0.00000000000E+00  0.70043093255E+03  0.83550385141E+03  0.45548127782E+03 0.  0.
      99925    2    3    3    0    0  0.47565693953E+02 -0.98137483096E+02  0.38180534739E+03  0.47625013542E+03  0.26295514326E+03 0.  0.
         25    1    4    4    0    0 -0.83034910840E+01 -0.21154676459E+02  0.18317257989E+03  0.22297123228E+03  0.12509000000E+03 0.  0.
         25    1    4    4    0    0  0.55869185037E+02 -0.76982806638E+02  0.19863276750E+03  0.25327890314E+03  0.12509000000E+03 0.  0.
         25    1    3    3    0    0 -0.47565693953E+02  0.98137483096E+02  0.31862558516E+03  0.35925371599E+03  0.12509000000E+03 0.  0.
<mgrwt>
<rscale>  2 0.45548128E+03</rscale>
<asrwt>0</asrwt>
<pdfrwt beam="1">  1       21 0.11293638E+00 0.45548128E+03</pdfrwt>
<pdfrwt beam="2">  1       21 0.99318327E-02 0.45548128E+03</pdfrwt>
<totfact> 0.45921325E+04</totfact>
</mgrwt>
</event>
<event>
 7    0  0.4793433E-002  0.4118310E+03  0.7546771E-02  0.1039758E+00
         21   -1    0    0  502  501  0.00000000000E+00  0.00000000000E+00  0.11869179882E+03  0.11869179882E+03  0.00000000000E+00 0. -1.
         21   -1    0    0  501  502 -0.00000000000E+00 -0.00000000000E+00 -0.35723782128E+03  0.35723782128E+03  0.00000000000E+00 0. -1.
      99926    2    1    2    0    0 -0.35527136788E-14  0.88817841970E-15 -0.23854602247E+03  0.47592962010E+03  0.41183103144E+03 0.  0.
      99925    2    3    3    0    0  0.31200350757E+02  0.50773456375E+01 -0.91632452669E+02  0.28040379977E+03  0.26311697630E+03 0.  0.
         25    1    4    4    0    0 -0.54651343451E+00  0.17154872622E+02 -0.81731617499E+02  0.15040662795E+03  0.12509000000E+03 0.  0.
         25    1    3    3    0    0 -0.31200350757E+02 -0.50773456375E+01 -0.14691356980E+03  0.19552582033E+03  0.12509000000E+03 0.  0.
         25    1    4    4    0    0  0.31746864192E+02 -0.12077526985E+02 -0.99008351702E+01  0.12999717182E+03  0.12509000000E+03 0.  0.
<mgrwt>
<rscale>  2 0.41183103E+03</rscale>
<asrwt>0</asrwt>
<pdfrwt beam="1">  1       21 0.17454676E-01 0.41183103E+03</pdfrwt>
<pdfrwt beam="2">  1       21 0.52534974E-01 0.41183103E+03</pdfrwt>
<totfact> 0.95861329E+04</totfact>
</mgrwt>
</event>
<event>
 7    0  0.4793433E-002  0.4562308E+03  0.7546771E-02  0.1025880E+00
         21   -1    0    0  502  501  0.00000000000E+00  0.00000000000E+00  0.30968223782E+03  0.30968223782E+03  0.00000000000E+00 0.  1.
         21   -1    0    0  501  502 -0.00000000000E+00 -0.00000000000E+00 -0.16803238046E+03  0.16803238046E+03  0.00000000000E+00 0.  1.
      99926    2    1    2    0    0  0.00000000000E+00  0.31086244690E-14  0.14164985736E+03  0.47771461828E+03  0.45623083458E+03 0.  0.
      99925    2    3    3    0    0 -0.10473747489E+03  0.33821551013E+01  0.13691374889E+03  0.31446230913E+03  0.26298249297E+03 0.  0.
         25    1    3    3    0    0  0.10473747489E+03 -0.33821551013E+01  0.47361084656E+01  0.16325230915E+03  0.12509000000E+03 0.  0.
         25    1    4    4    0    0 -0.53808079550E+02  0.26684782221E+02  0.33445452470E+02  0.14273574681E+03  0.12509000000E+03 0.  0.
         25    1    4    4    0    0 -0.50929395336E+02 -0.23302627119E+02  0.10346829642E+03  0.17172656232E+03  0.12509000000E+03 0.  0.
<mgrwt>
<rscale>  2 0.45623083E+03</rscale>
<asrwt>0</asrwt>
<pdfrwt beam="1">  1       21 0.45541506E-01 0.45623083E+03</pdfrwt>
<pdfrwt beam="2">  1       21 0.24710644E-01 0.45623083E+03</pdfrwt>
<totfact> 0.66217613E+04</totfact>
</mgrwt>
</event>
<event>
 7    0  0.4793433E-002  0.4552768E+03  0.7546771E-02  0.1026160E+00
         21   -1    0    0  502  501  0.00000000000E+00  0.00000000000E+00  0.46654021991E+03  0.46654021991E+03  0.00000000000E+00 0. -1.
         21   -1    0    0  501  502 -0.00000000000E+00 -0.00000000000E+00 -0.11107132588E+03  0.11107132588E+03  0.00000000000E+00 0. -1.
      99926    2    1    2    0    0  0.14210854715E-13  0.00000000000E+00  0.35546889403E+03  0.57761154579E+03  0.45527679845E+03 0.  0.
      99925    2    3    3    0    0 -0.10114238620E+03 -0.21731719879E+02  0.28254947964E+03  0.39965986968E+03  0.26304325320E+03 0.  0.
         25    1    4    4    0    0 -0.64256301863E+02  0.11757352945E+02  0.18827061220E+03  0.23528799203E+03  0.12509000000E+03 0.  0.
         25    1    3    3    0    0  0.10114238620E+03  0.21731719879E+02  0.72919414395E+02  0.17795167611E+03  0.12509000000E+03 0.  0.
         25    1    4    4    0    0 -0.36886084334E+02 -0.33489072825E+02  0.94278867439E+02  0.16437187765E+03  0.12509000000E+03 0.  0.
<mgrwt>
<rscale>  2 0.45527680E+03</rscale>
<asrwt>0</asrwt>
<pdfrwt beam="1">  1       21 0.68608855E-01 0.45527680E+03</pdfrwt>
<pdfrwt beam="2">  1       21 0.16334019E-01 0.45527680E+03</pdfrwt>
<totfact> 0.59946644E+04</totfact>
</mgrwt>
</event>
<event>
 7    0  0.4793433E-002  0.4585711E+03  0.7546771E-02  0.1025196E+00
         21   -1    0    0  502  501  0.00000000000E+00  0.00000000000E+00  0.35333592731E+02  0.35333592731E+02  0.00000000000E+00 0. -1.
         21   -1    0    0  501  502 -0.00000000000E+00 -0.00000000000E+00 -0.14878719256E+04  0.14878719256E+04  0.00000000000E+00 0. -1.
      99926    2    1    2    0    0 -0.71054273576E-14  0.00000000000E+00 -0.14525383329E+04  0.15232055183E+04  0.45857108786E+03 0.  0.
      99925    2    3    3    0    0  0.55196542590E+02  0.55257929766E+02 -0.62437240005E+03  0.68201207001E+03  0.26305792628E+03 0.  0.
         25    1    3    3    0    0 -0.55196542590E+02 -0.55257929766E+02 -0.82816593281E+03  0.84119344831E+03  0.12509000000E+03 0.  0.
         25    1    4    4    0    0  0.67003542200E+02  0.38706261760E+02 -0.31306090408E+03  0.34589346211E+03  0.12509000000E+03 0.  0.
         25    1    4    4    0    0 -0.11806999609E+02  0.16551668006E+02 -0.31131149597E+03  0.33611860790E+03  0.12509000000E+03 0.  0.
<mgrwt>
<rscale>  2 0.45857109E+03</rscale>
<asrwt>0</asrwt>
<pdfrwt beam="1">  1       21 0.51961163E-02 0.45857109E+03</pdfrwt>
<pdfrwt beam="2">  1       21 0.21880471E+00 0.45857109E+03</pdfrwt>
<totfact> 0.22583187E+04</totfact>
</mgrwt>
</event>
<event>
 7    0  0.4793433E-002  0.4512589E+03  0.7546771E-02  0.1027347E+00
         21   -1    0    0  502  501  0.00000000000E+00  0.00000000000E+00  0.63236585195E+03  0.63236585195E+03  0.00000000000E+00 0.  1.
         21   -1    0    0  501  502 -0.00000000000E+00 -0.00000000000E+00 -0.80505052396E+02  0.80505052396E+02  0.00000000000E+00 0.  1.
      99926    2    1    2    0    0  0.00000000000E+00  0.00000000000E+00  0.55186079956E+03  0.71287090435E+03  0.45125888820E+03 0.  0.
      99925    2    3    3    0    0 -0.26990167965E+02 -0.50289145962E+02  0.49616132139E+03  0.56452196658E+03  0.26315684780E+03 0.  0.
         25    1    4    4    0    0 -0.22735481290E+02 -0.34849384571E+02  0.33414066738E+03  0.35920589557E+03  0.12509000000E+03 0.  0.
         25    1    3    3    0    0  0.26990167965E+02  0.50289145962E+02  0.55699478169E+02  0.14834893777E+03  0.12509000000E+03 0.  0.
         25    1    4    4    0    0 -0.42546866752E+01 -0.15439761391E+02  0.16202065401E+03  0.20531607101E+03  0.12509000000E+03 0.  0.
<mgrwt>
<rscale>  2 0.45125889E+03</rscale>
<asrwt>0</asrwt>
<pdfrwt beam="1">  1       21 0.92994976E-01 0.45125889E+03</pdfrwt>
<pdfrwt beam="2">  1       21 0.11838979E-01 0.45125889E+03</pdfrwt>
<totfact> 0.53775017E+04</totfact>
</mgrwt>
</event>
<event>
 7    0  0.4793433E-002  0.4636699E+03  0.7546771E-02  0.1023722E+00
         21   -1    0    0  502  501  0.00000000000E+00  0.00000000000E+00  0.50786637334E+02  0.50786637334E+02  0.00000000000E+00 0.  1.
         21   -1    0    0  501  502 -0.00000000000E+00 -0.00000000000E+00 -0.10582988910E+04  0.10582988910E+04  0.00000000000E+00 0.  1.
      99926    2    1    2    0    0  0.00000000000E+00  0.35527136788E-14 -0.10075122537E+04  0.11090855284E+04  0.46366989107E+03 0.  0.
      99925    2    3    3    0    0 -0.12006224443E+03  0.19508147279E+02 -0.62958594705E+03  0.69282682070E+03  0.26236430477E+03 0.  0.
         25    1    4    4    0    0 -0.82327799278E+02  0.31675288842E+02 -0.40149751243E+03  0.42968471120E+03  0.12509000000E+03 0.  0.
         25    1    4    4    0    0 -0.37734445147E+02 -0.12167141564E+02 -0.22808843462E+03  0.26314210950E+03  0.12509000000E+03 0.  0.
         25    1    3    3    0    0  0.12006224443E+03 -0.19508147279E+02 -0.37792630665E+03  0.41625870767E+03  0.12509000000E+03 0.  0.
<mgrwt>
<rscale>  2 0.46366989E+03</rscale>
<asrwt>0</asrwt>
<pdfrwt beam="1">  1       21 0.74686237E-02 0.46366989E+03</pdfrwt>
<pdfrwt beam="2">  1       21 0.15563218E+00 0.46366989E+03</pdfrwt>
<totfact> 0.32897250E+04</totfact>
</mgrwt>
</event>
<event>
 7    0  0.4793433E-002  0.4412702E+03  0.7546771E-02  0.1030358E+00
         21   -1    0    0  502  501  0.00000000000E+00  0.00000000000E+00  0.37029071760E+03  0.37029071760E+03  0.00000000000E+00 0. -1.
         21   -1    0    0  501  502 -0.00000000000E+00 -0.00000000000E+00 -0.13146385950E+03  0.13146385950E+03  0.00000000000E+00 0. -1.
      99926    2    1    2    0    0  0.00000000000E+00  0.00000000000E+00  0.23882685809E+03  0.50175457710E+03  0.44127019783E+03 0.  0.
      99925    2    3    3    0    0  0.82650361149E+02  0.35559611385E+02  0.20137488527E+03  0.34318053595E+03  0.26291722590E+03 0.  0.
         25    1    3    3    0    0 -0.82650361149E+02 -0.35559611385E+02  0.37451972822E+02  0.15857404115E+03  0.12509000000E+03 0.  0.
         25    1    4    4    0    0  0.34524816511E+02  0.31041386482E+02  0.14685483445E+03  0.19841718960E+03  0.12509000000E+03 0.  0.
         25    1    4    4    0    0  0.48125544638E+02  0.45182249025E+01  0.54520050825E+02  0.14476334634E+03  0.12509000000E+03 0.  0.
<mgrwt>
<rscale>  2 0.44127020E+03</rscale>
<asrwt>0</asrwt>
<pdfrwt beam="1">  1       21 0.54454517E-01 0.44127020E+03</pdfrwt>
<pdfrwt beam="2">  1       21 0.19332921E-01 0.44127020E+03</pdfrwt>
<totfact> 0.72758186E+04</totfact>
</mgrwt>
</event>
<event>
 7    0  0.4793433E-002  0.4533725E+03  0.7546771E-02  0.1026721E+00
         21   -1    0    0  502  501  0.00000000000E+00  0.00000000000E+00  0.54187486580E+03  0.54187486580E+03  0.00000000000E+00 0.  1.
         21   -1    0    0  501  502 -0.00000000000E+00 -0.00000000000E+00 -0.94831232879E+02  0.94831232879E+02  0.00000000000E+00 0.  1.
      99926    2    1    2    0    0  0.00000000000E+00 -0.71054273576E-14  0.44704363292E+03  0.63670609868E+03  0.45337252493E+03 0.  0.
      99925    2    3    3    0    0 -0.74382842266E+02 -0.48874935083E+02  0.37657192110E+03  0.46778204246E+03  0.26285368741E+03 0.  0.
         25    1    3    3    0    0  0.74382842266E+02  0.48874935083E+02  0.70471711827E+02  0.16892405622E+03  0.12509000000E+03 0.  0.
         25    1    4    4    0    0 -0.76004846514E+02 -0.40298694470E+02  0.19532129939E+03  0.24738358791E+03  0.12509000000E+03 0.  0.
         25    1    4    4    0    0  0.16220042476E+01 -0.85762406129E+01  0.18125062170E+03  0.22039845455E+03  0.12509000000E+03 0.  0.
<mgrwt>
<rscale>  2 0.45337252E+03</rscale>
<asrwt>0</asrwt>
<pdfrwt beam="1">  1       21 0.79687479E-01 0.45337252E+03</pdfrwt>
<pdfrwt beam="2">  1       21 0.13945770E-01 0.45337252E+03</pdfrwt>
<totfact> 0.57205160E+04</totfact>
</mgrwt>
</event>
<event>
 7    0  0.4793433E-002  0.4405809E+03  0.7546771E-02  0.1030569E+00
         21   -1    0    0  502  501  0.00000000000E+00  0.00000000000E+00  0.49874845559E+02  0.49874845559E+02  0.00000000000E+00 0.  1.
         21   -1    0    0  501  502 -0.00000000000E+00 -0.00000000000E+00 -0.97299316100E+03  0.97299316100E+03  0.00000000000E+00 0.  1.
      99926    2    1    2    0    0  0.00000000000E+00  0.00000000000E+00 -0.92311831544E+03  0.10228680066E+04  0.44058090578E+03 0.  0.
      99925    2    3    3    0    0  0.40758157112E+02 -0.90017074051E+02 -0.60292502380E+03  0.66518720878E+03  0.26304208295E+03 0.  0.
         25    1    4    4    0    0  0.20386460824E+02 -0.61372858954E+02 -0.40160485417E+03  0.42557749305E+03  0.12509000000E+03 0.  0.
         25    1    4    4    0    0  0.20371696288E+02 -0.28644215097E+02 -0.20132016964E+03  0.23960971573E+03  0.12509000000E+03 0.  0.
         25    1    3    3    0    0 -0.40758157112E+02  0.90017074051E+02 -0.32019329164E+03  0.35768079779E+03  0.12509000000E+03 0.  0.
<mgrwt>
<rscale>  2 0.44058091E+03</rscale>
<asrwt>0</asrwt>
<pdfrwt beam="1">  1       21 0.73345364E-02 0.44058091E+03</pdfrwt>
<pdfrwt beam="2">  1       21 0.14308722E+00 0.44058091E+03</pdfrwt>
<totfact> 0.42921097E+04</totfact>
</mgrwt>
</event>
<event>
 7    0  0.4793433E-002  0.4705081E+03  0.7546771E-02  0.1021777E+00
         21   -1    0    0  502  501  0.00000000000E+00  0.00000000000E+00  0.47441110544E+02  0.47441110544E+02  0.00000000000E+00 0. -1.
         21   -1    0    0  501  502 -0.00000000000E+00 -0.00000000000E+00 -0.11665931350E+04  0.11665931350E+04  0.00000000000E+00 0. -1.
      99926    2    1    2    0    0  0.14210854715E-13  0.00000000000E+00 -0.11191520244E+04  0.12140342455E+04  0.47050812480E+03 0.  0.
      99925    2    3    3    0    0 -0.74824945877E+02 -0.29316577164E+02 -0.44111957259E+03  0.51989179034E+03  0.26314019481E+03 0.  0.
         25    1    3    3    0    0  0.74824945877E+02  0.29316577164E+02 -0.67803245183E+03  0.69414245516E+03  0.12509000000E+03 0.  0.
         25    1    4    4    0    0 -0.68328083995E+02 -0.40620345882E+02 -0.21470537316E+03  0.26089201775E+03  0.12509000000E+03 0.  0.
         25    1    4    4    0    0 -0.64968618817E+01  0.11303768717E+02 -0.22641419943E+03  0.25899977259E+03  0.12509000000E+03 0.  0.
<mgrwt>
<rscale>  2 0.47050812E+03</rscale>
<asrwt>0</asrwt>
<pdfrwt beam="1">  1       21 0.69766336E-02 0.47050812E+03</pdfrwt>
<pdfrwt beam="2">  1       21 0.17155782E+00 0.47050812E+03</pdfrwt>
<totfact> 0.28156302E+04</totfact>
</mgrwt>
</event>
<event>
 7    0  0.4793433E-002  0.4479447E+03  0.7546771E-02  0.1028337E+00
         21   -1    0    0  502  501  0.00000000000E+00  0.00000000000E+00  0.31890376634E+03  0.31890376634E+03  0.00000000000E+00 0.  1.
         21   -1    0    0  501  502 -0.00000000000E+00 -0.00000000000E+00 -0.15730012934E+03  0.15730012934E+03  0.00000000000E+00 0.  1.
      99926    2    1    2    0    0  0.00000000000E+00  0.00000000000E+00  0.16160363700E+03  0.47620389568E+03  0.44794465592E+03 0.  0.
      99925    2    3    3    0    0  0.16335614390E+02  0.95972343072E+02  0.56636719124E+02  0.28609049562E+03  0.26298766283E+03 0.  0.
         25    1    4    4    0    0  0.33981135430E+02  0.55902146374E+02 -0.19738239743E+01  0.14117780143E+03  0.12509000000E+03 0.  0.
         25    1    4    4    0    0 -0.17645521040E+02  0.40070196698E+02  0.58610543098E+02  0.14491269419E+03  0.12509000000E+03 0.  0.
         25    1    3    3    0    0 -0.16335614390E+02 -0.95972343072E+02  0.10496691788E+03  0.19011340006E+03  0.12509000000E+03 0.  0.
<mgrwt>
<rscale>  2 0.44794466E+03</rscale>
<asrwt>0</asrwt>
<pdfrwt beam="1">  1       21 0.46897613E-01 0.44794466E+03</pdfrwt>
<pdfrwt beam="2">  1       21 0.23132372E-01 0.44794466E+03</pdfrwt>
<totfact> 0.70863579E+04</totfact>
</mgrwt>
</event>
<event>
 7    0  0.4793433E-002  0.4549221E+03  0.7546771E-02  0.1026264E+00
         21   -1    0    0  502  501  0.00000000000E+00  0.00000000000E+00  0.21867518694E+03  0.21867518694E+03  0.00000000000E+00 0.  1.
         21   -1    0    0  501  502 -0.00000000000E+00 -0.00000000000E+00 -0.23659995886E+03  0.23659995886E+03  0.00000000000E+00 0.  1.
      99926    2    1    2    0    0  0.00000000000E+00  0.00000000000E+00 -0.17924771919E+02  0.45527514580E+03  0.45492214822E+03 0.  0.
      99925    2    3    3    0    0 -0.15621273328E+02  0.73187936101E+02  0.73481608307E+02  0.28321953672E+03  0.26308413302E+03 0.  0.
         25    1    3    3    0    0  0.15621273328E+02 -0.73187936101E+02 -0.91406380226E+02  0.17205560908E+03  0.12509000000E+03 0.  0.
         25    1    4    4    0    0 -0.39716963401E+01  0.78249284574E+02  0.34468199456E+02  0.15157272110E+03  0.12509000000E+03 0.  0.
         25    1    4    4    0    0 -0.11649576988E+02 -0.50613484733E+01  0.39013408851E+02  0.13164681562E+03  0.12509000000E+03 0.  0.
<mgrwt>
<rscale>  2 0.45492215E+03</rscale>
<asrwt>0</asrwt>
<pdfrwt beam="1">  1       21 0.32158116E-01 0.45492215E+03</pdfrwt>
<pdfrwt beam="2">  1       21 0.34794112E-01 0.45492215E+03</pdfrwt>
<totfact> 0.68568241E+04</totfact>
</mgrwt>
</event>
<event>
 7    0  0.4793433E-002  0.4615692E+03  0.7546771E-02  0.1024327E+00
         21   -1    0    0  502  501  0.00000000000E+00  0.00000000000E+00  0.24081650451E+03  0.24081650451E+03  0.00000000000E+00 0. -1.
         21   -1    0    0  501  502 -0.00000000000E+00 -0.00000000000E+00 -0.22117060889E+03  0.22117060889E+03  0.00000000000E+00 0. -1.
      99926    2    1    2    0    0  0.00000000000E+00  0.14210854715E-13  0.19645895617E+02  0.46198711340E+03  0.46156920579E+03 0.  0.
      99925    2    3    3    0    0  0.76486790369E+02  0.90527454202E+02  0.25155210060E+02  0.28958261894E+03  0.26302064469E+03 0.  0.
         25    1    3    3    0    0 -0.76486790369E+02 -0.90527454202E+02 -0.55093144436E+01  0.17240449446E+03  0.12509000000E+03 0.  0.
         25    1    4    4    0    0  0.54786625237E+02  0.85449579152E+02  0.71230061644E+01  0.16124965178E+03  0.12509000000E+03 0.  0.
         25    1    4    4    0    0  0.21700165132E+02  0.50778750506E+01  0.18032203896E+02  0.12833296716E+03  0.12509000000E+03 0.  0.
<mgrwt>
<rscale>  2 0.46156921E+03</rscale>
<asrwt>0</asrwt>
<pdfrwt beam="1">  1       21 0.35414192E-01 0.46156921E+03</pdfrwt>
<pdfrwt beam="2">  1       21 0.32525090E-01 0.46156921E+03</pdfrwt>
<totfact> 0.64584771E+04</totfact>
</mgrwt>
</event>
<event>
 7    0  0.4793433E-002  0.4477985E+03  0.7546771E-02  0.1028381E+00
         21   -1    0    0  502  501  0.00000000000E+00  0.00000000000E+00  0.10503191976E+03  0.10503191976E+03  0.00000000000E+00 0.  1.
         21   -1    0    0  501  502 -0.00000000000E+00 -0.00000000000E+00 -0.47729184030E+03  0.47729184030E+03  0.00000000000E+00 0.  1.
      99926    2    1    2    0    0  0.00000000000E+00 -0.17763568394E-14 -0.37225992054E+03  0.58232376005E+03  0.44779851840E+03 0.  0.
      99925    2    3    3    0    0 -0.76401142681E+02 -0.12670469480E+02 -0.14094755944E+03  0.30818767724E+03  0.26289875331E+03 0.  0.
         25    1    3    3    0    0  0.76401142681E+02  0.12670469480E+02 -0.23131236110E+03  0.27413608281E+03  0.12509000000E+03 0.  0.
         25    1    4    4    0    0 -0.78560689509E+02 -0.75415411676E+01 -0.63522778866E+02  0.16096989878E+03  0.12509000000E+03 0.  0.
         25    1    4    4    0    0  0.21595468282E+01 -0.51289283128E+01 -0.77424780574E+02  0.14721777846E+03  0.12509000000E+03 0.  0.
<mgrwt>
<rscale>  2 0.44779852E+03</rscale>
<asrwt>0</asrwt>
<pdfrwt beam="1">  1       21 0.15445871E-01 0.44779852E+03</pdfrwt>
<pdfrwt beam="2">  1       21 0.70189976E-01 0.44779852E+03</pdfrwt>
<totfact> 0.63307402E+04</totfact>
</mgrwt>
</event>
<event>
 7    0  0.4793433E-002  0.4573763E+03  0.7546771E-02  0.1025545E+00
         21   -1    0    0  502  501  0.00000000000E+00  0.00000000000E+00  0.19315035357E+03  0.19315035357E+03  0.00000000000E+00 0.  1.
         21   -1    0    0  501  502 -0.00000000000E+00 -0.00000000000E+00 -0.27076458881E+03  0.27076458881E+03  0.00000000000E+00 0.  1.
      99926    2    1    2    0    0  0.00000000000E+00 -0.71054273576E-14 -0.77614235241E+02  0.46391494238E+03  0.45737632672E+03 0.  0.
      99925    2    3    3    0    0 -0.58834472999E+02 -0.55514006365E+02 -0.13232274081E+03  0.30522080639E+03  0.26288235543E+03 0.  0.
         25    1    4    4    0    0 -0.56070645870E+02  0.12876728971E+01 -0.75713751008E+02  0.15660669086E+03  0.12509000000E+03 0.  0.
         25    1    3    3    0    0  0.58834472999E+02  0.55514006365E+02  0.54708505573E+02  0.15869413599E+03  0.12509000000E+03 0.  0.
         25    1    4    4    0    0 -0.27638271295E+01 -0.56801679262E+02 -0.56608989806E+02  0.14861411553E+03  0.12509000000E+03 0.  0.
<mgrwt>
<rscale>  2 0.45737633E+03</rscale>
<asrwt>0</asrwt>
<pdfrwt beam="1">  1       21 0.28404464E-01 0.45737633E+03</pdfrwt>
<pdfrwt beam="2">  1       21 0.39818322E-01 0.45737633E+03</pdfrwt>
<totfact> 0.66623259E+04</totfact>
</mgrwt>
</event>
<event>
 7    0  0.4793433E-002  0.4613430E+03  0.7546771E-02  0.1024392E+00
         21   -1    0    0  502  501  0.00000000000E+00  0.00000000000E+00  0.39561617758E+03  0.39561617758E+03  0.00000000000E+00 0.  1.
         21   -1    0    0  501  502 -0.00000000000E+00 -0.00000000000E+00 -0.13449738131E+03  0.13449738131E+03  0.00000000000E+00 0.  1.
      99926    2    1    2    0    0 -0.17763568394E-14 -0.17763568394E-14  0.26111879627E+03  0.53011355890E+03  0.46134299557E+03 0.  0.
      99925    2    3    3    0    0  0.11186357952E+02  0.12200117299E+02  0.29878772284E+03  0.39843047876E+03  0.26305658254E+03 0.  0.
         25    1    4    4    0    0  0.28477407907E+02 -0.27238592477E+02  0.14244786779E+03  0.19362801145E+03  0.12509000000E+03 0.  0.
         25    1    3    3    0    0 -0.11186357952E+02 -0.12200117299E+02 -0.37668926570E+02  0.13168308014E+03  0.12509000000E+03 0.  0.
         25    1    4    4    0    0 -0.17291049955E+02  0.39438709776E+02  0.15633985505E+03  0.20480246731E+03  0.12509000000E+03 0.  0.
<mgrwt>
<rscale>  2 0.46134300E+03</rscale>
<asrwt>0</asrwt>
<pdfrwt beam="1">  1       21 0.58178849E-01 0.46134300E+03</pdfrwt>
<pdfrwt beam="2">  1       21 0.19779027E-01 0.46134300E+03</pdfrwt>
<totfact> 0.60118716E+04</totfact>
</mgrwt>
</event>
<event>
 7    0  0.4793433E-002  0.4622664E+03  0.7546771E-02  0.1024126E+00
         21   -1    0    0  502  501  0.00000000000E+00  0.00000000000E+00  0.32429527555E+03  0.32429527555E+03  0.00000000000E+00 0.  1.
         21   -1    0    0  501  502 -0.00000000000E+00 -0.00000000000E+00 -0.16473430993E+03  0.16473430993E+03  0.00000000000E+00 0.  1.
      99926    2    1    2    0    0  0.00000000000E+00  0.00000000000E+00  0.15956096562E+03  0.48902958547E+03  0.46226640990E+03 0.  0.
      99925    2    3    3    0    0  0.10793240173E+03  0.38877677624E+02  0.13578918459E+03  0.31764264655E+03  0.26324374845E+03 0.  0.
         25    1    4    4    0    0  0.69812524528E+02 -0.17356117162E+02  0.77792571421E+02  0.16393357085E+03  0.12509000000E+03 0.  0.
         25    1    4    4    0    0  0.38119877198E+02  0.56233794786E+02  0.57996613169E+02  0.15370907570E+03  0.12509000000E+03 0.  0.
         25    1    3    3    0    0 -0.10793240173E+03 -0.38877677624E+02  0.23771781032E+02  0.17138693892E+03  0.12509000000E+03 0.  0.
<mgrwt>
<rscale>  2 0.46226641E+03</rscale>
<asrwt>0</asrwt>
<pdfrwt beam="1">  1       21 0.47690482E-01 0.46226641E+03</pdfrwt>
<pdfrwt beam="2">  1       21 0.24225634E-01 0.46226641E+03</pdfrwt>
<totfact> 0.62372251E+04</totfact>
</mgrwt>
</event>
<event>
 7    0  0.4793433E-002  0.4537791E+03  0.7546771E-02  0.1026601E+00
         21   -1    0    0  502  501  0.00000000000E+00  0.00000000000E+00  0.10272440904E+03  0.10272440904E+03  0.00000000000E+00 0.  1.
         21   -1    0    0  501  502 -0.00000000000E+00 -0.00000000000E+00 -0.50113573109E+03  0.50113573109E+03  0.00000000000E+00 0.  1.
      99926    2    1    2    0    0  0.00000000000E+00 -0.14210854715E-13 -0.39841132204E+03  0.60386014013E+03  0.45377911731E+03 0.  0.
      99925    2    3    3    0    0  0.81444877454E+02  0.65323518781E+02 -0.30416438599E+03  0.41563043146E+03  0.26331018151E+03 0.  0.
         25    1    3    3    0    0 -0.81444877454E+02 -0.65323518781E+02 -0.94246936055E+02  0.18822970867E+03  0.12509000000E+03 0.  0.
         25    1    4    4    0    0  0.64657989981E+02 -0.41003530832E+00 -0.14481036095E+03  0.20198607015E+03  0.12509000000E+03 0.  0.
         25    1    4    4    0    0  0.16786887473E+02  0.65733554089E+02 -0.15935402504E+03  0.21364436131E+03  0.12509000000E+03 0.  0.
<mgrwt>
<rscale>  2 0.45377912E+03</rscale>
<asrwt>0</asrwt>
<pdfrwt beam="1">  1       21 0.15106531E-01 0.45377912E+03</pdfrwt>
<pdfrwt beam="2">  1       21 0.73696431E-01 0.45377912E+03</pdfrwt>
<totfact> 0.59008395E+04</totfact>
</mgrwt>
</event>
<event>
 7    0  0.4793433E-002  0.4558316E+03  0.7546771E-02  0.1025997E+00
         21   -1    0    0  502  501  0.00000000000E+00  0.00000000000E+00  0.74843651864E+03  0.74843651864E+03  0.00000000000E+00 0.  1.
         21   -1    0    0  501  502 -0.00000000000E+00 -0.00000000000E+00 -0.69405511717E+02  0.69405511717E+02  0.00000000000E+00 0.  1.
      99926    2    1    2    0    0  0.00000000000E+00  0.00000000000E+00  0.67903100693E+03  0.81784203036E+03  0.45583163367E+03 0.  0.
      99925    2    3    3    0    0  0.10852579897E+03 -0.21838302799E+02  0.46839982314E+03  0.54901538697E+03  0.26413015788E+03 0.  0.
         25    1    4    4    0    0  0.35559891793E+02 -0.46650255777E+02  0.25322291561E+03  0.28846161852E+03  0.12509000000E+03 0.  0.
         25    1    4    4    0    0  0.72965907181E+02  0.24811952978E+02  0.21517690752E+03  0.26055376845E+03  0.12509000000E+03 0.  0.
         25    1    3    3    0    0 -0.10852579897E+03  0.21838302799E+02  0.21063118379E+03  0.26882664339E+03  0.12509000000E+03 0.  0.
<mgrwt>
<rscale>  2 0.45583163E+03</rscale>
<asrwt>0</asrwt>
<pdfrwt beam="1">  1       21 0.11006419E+00 0.45583163E+03</pdfrwt>
<pdfrwt beam="2">  1       21 0.10206693E-01 0.45583163E+03</pdfrwt>
<totfact> 0.46608998E+04</totfact>
</mgrwt>
</event>
<event>
 7    0  0.4793433E-002  0.4344374E+03  0.7546771E-02  0.1032467E+00
         21   -1    0    0  502  501  0.00000000000E+00  0.00000000000E+00  0.25965920697E+03  0.25965920697E+03  0.00000000000E+00 0. -1.
         21   -1    0    0  501  502 -0.00000000000E+00 -0.00000000000E+00 -0.18171494003E+03  0.18171494003E+03  0.00000000000E+00 0. -1.
      99926    2    1    2    0    0 -0.14210854715E-13  0.71054273576E-14  0.77944266935E+02  0.44137414700E+03  0.43443737050E+03 0.  0.
      99925    2    3    3    0    0 -0.79418820505E+02  0.47005265186E+02  0.42700840768E+02  0.28198013458E+03  0.26300682594E+03 0.  0.
         25    1    3    3    0    0  0.79418820505E+02 -0.47005265186E+02  0.35243426167E+02  0.15939401241E+03  0.12509000000E+03 0.  0.
         25    1    4    4    0    0 -0.51286425365E+02 -0.14354777500E+02  0.30365285932E+02  0.13930511747E+03  0.12509000000E+03 0.  0.
         25    1    4    4    0    0 -0.28132395140E+02  0.61360042686E+02  0.12335554836E+02  0.14267501711E+03  0.12509000000E+03 0.  0.
<mgrwt>
<rscale>  2 0.43443737E+03</rscale>
<asrwt>0</asrwt>
<pdfrwt beam="1">  1       21 0.38185178E-01 0.43443737E+03</pdfrwt>
<pdfrwt beam="2">  1       21 0.26722785E-01 0.43443737E+03</pdfrwt>
<totfact> 0.82237261E+04</totfact>
</mgrwt>
</event>
<event>
 7    0  0.4793433E-002  0.4522164E+03  0.7546771E-02  0.1027063E+00
         21   -1    0    0  502  501  0.00000000000E+00  0.00000000000E+00  0.49306954609E+03  0.49306954609E+03  0.00000000000E+00 0.  1.
         21   -1    0    0  501  502 -0.00000000000E+00 -0.00000000000E+00 -0.10368702124E+03  0.10368702124E+03  0.00000000000E+00 0.  1.
      99926    2    1    2    0    0  0.35527136788E-14  0.35527136788E-14  0.38938252485E+03  0.59675656733E+03  0.45221637519E+03 0.  0.
      99925    2    3    3    0    0  0.27151659633E+02  0.24052023409E+02  0.10795781576E+03  0.28665483009E+03  0.26305966848E+03 0.  0.
         25    1    4    4    0    0  0.86938974722E+01 -0.25558796750E+02  0.68811988937E+02  0.14529774212E+03  0.12509000000E+03 0.  0.
         25    1    4    4    0    0  0.18457762161E+02  0.49610820159E+02  0.39145826821E+02  0.14135708797E+03  0.12509000000E+03 0.  0.
         25    1    3    3    0    0 -0.27151659633E+02 -0.24052023409E+02  0.28142470909E+03  0.31010173724E+03  0.12509000000E+03 0.  0.
<mgrwt>
<rscale>  2 0.45221638E+03</rscale>
<asrwt>0</asrwt>
<pdfrwt beam="1">  1       21 0.72510227E-01 0.45221638E+03</pdfrwt>
<pdfrwt beam="2">  1       21 0.15248092E-01 0.45221638E+03</pdfrwt>
<totfact> 0.60191434E+04</totfact>
</mgrwt>
</event>
<event>
 7    0  0.4793433E-002  0.4564496E+03  0.7546771E-02  0.1025816E+00
         21   -1    0    0  502  501  0.00000000000E+00  0.00000000000E+00  0.20485720964E+02  0.20485720964E+02  0.00000000000E+00 0. -1.
         21   -1    0    0  501  502 -0.00000000000E+00 -0.00000000000E+00 -0.25425786353E+04  0.25425786353E+04  0.00000000000E+00 0. -1.
      99926    2    1    2    0    0  0.00000000000E+00  0.14210854715E-13 -0.25220929143E+04  0.25630643563E+04  0.45644958736E+03 0.  0.
      99925    2    3    3    0    0 -0.13123143936E+02  0.90907764978E+02 -0.11991921678E+04  0.12310920097E+04  0.26284832598E+03 0.  0.
         25    1    4    4    0    0 -0.77017426094E+01  0.29021910074E+02 -0.41236907361E+03  0.43196915292E+03  0.12509000000E+03 0.  0.
         25    1    4    4    0    0 -0.54214013263E+01  0.61885854904E+02 -0.78682309416E+03  0.79912285679E+03  0.12509000000E+03 0.  0.
         25    1    3    3    0    0  0.13123143936E+02 -0.90907764978E+02 -0.13229007466E+04  0.13319723466E+04  0.12509000000E+03 0.  0.
<mgrwt>
<rscale>  2 0.45644959E+03</rscale>
<asrwt>0</asrwt>
<pdfrwt beam="1">  1       21 0.30126067E-02 0.45644959E+03</pdfrwt>
<pdfrwt beam="2">  1       21 0.37390854E+00 0.45644959E+03</pdfrwt>
<totfact> 0.64350856E+03</totfact>
</mgrwt>
</event>
<event>
 7    0  0.4793433E-002  0.4528299E+03  0.7546771E-02  0.1026882E+00
         21   -1    0    0  502  501  0.00000000000E+00  0.00000000000E+00  0.23547444578E+03  0.23547444578E+03  0.00000000000E+00 0. -1.
         21   -1    0    0  501  502 -0.00000000000E+00 -0.00000000000E+00 -0.21770395912E+03  0.21770395912E+03  0.00000000000E+00 0. -1.
      99926    2    1    2    0    0  0.00000000000E+00 -0.14210854715E-13  0.17770486662E+02  0.45317840490E+03  0.45282985378E+03 0.  0.
      99925    2    3    3    0    0  0.57268719193E+02 -0.94932600811E+02  0.25130069527E+01  0.28533263140E+03  0.26290015299E+03 0.  0.
         25    1    4    4    0    0  0.29786757718E+02 -0.56363826230E+02 -0.38230301453E+02  0.14551012299E+03  0.12509000000E+03 0.  0.
         25    1    3    3    0    0 -0.57268719193E+02  0.94932600811E+02  0.15257479709E+02  0.16784577350E+03  0.12509000000E+03 0.  0.
         25    1    4    4    0    0  0.27481961476E+02 -0.38568774581E+02  0.40743308406E+02  0.13982250841E+03  0.12509000000E+03 0.  0.
<mgrwt>
<rscale>  2 0.45282985E+03</rscale>
<asrwt>0</asrwt>
<pdfrwt beam="1">  1       21 0.34628595E-01 0.45282985E+03</pdfrwt>
<pdfrwt beam="2">  1       21 0.32015288E-01 0.45282985E+03</pdfrwt>
<totfact> 0.69881677E+04</totfact>
</mgrwt>
</event>
<event>
 7    0  0.4793433E-002  0.4494059E+03  0.7546771E-02  0.1027899E+00
         21   -1    0    0  502  501  0.00000000000E+00  0.00000000000E+00  0.60129789794E+03  0.60129789794E+03  0.00000000000E+00 0.  1.
         21   -1    0    0  501  502 -0.00000000000E+00 -0.00000000000E+00 -0.83970725733E+02  0.83970725733E+02  0.00000000000E+00 0.  1.
      99926    2    1    2    0    0 -0.44408920985E-15  0.00000000000E+00  0.51732717221E+03  0.68526862367E+03  0.44940592284E+03 0.  0.
      99925    2    3    3    0    0  0.32351538502E+01  0.38091783699E+02  0.48100110787E+03  0.54951686031E+03  0.26295487025E+03 0.  0.
         25    1    4    4    0    0  0.31385696748E+02  0.13394884128E+02  0.29521737910E+03  0.32243649593E+03  0.12509000000E+03 0.  0.
         25    1    4    4    0    0 -0.28150542897E+02  0.24696899571E+02  0.18578372877E+03  0.22708036438E+03  0.12509000000E+03 0.  0.
         25    1    3    3    0    0 -0.32351538502E+01 -0.38091783699E+02  0.36326064338E+02  0.13575176336E+03  0.12509000000E+03 0.  0.
<mgrwt>
<rscale>  2 0.44940592E+03</rscale>
<asrwt>0</asrwt>
<pdfrwt beam="1">  1       21 0.88426159E-01 0.44940592E+03</pdfrwt>
<pdfrwt beam="2">  1       21 0.12348636E-01 0.44940592E+03</pdfrwt>
<totfact> 0.56142353E+04</totfact>
</mgrwt>
</event>
<event>
 7    0  0.4793433E-002  0.4444746E+03  0.7546771E-02  0.1029383E+00
         21   -1    0    0  502  501  0.00000000000E+00  0.00000000000E+00  0.28605325006E+03  0.28605325006E+03  0.00000000000E+00 0. -1.
         21   -1    0    0  501  502 -0.00000000000E+00 -0.00000000000E+00 -0.17265810279E+03  0.17265810279E+03  0.00000000000E+00 0. -1.
      99926    2    1    2    0    0  0.00000000000E+00  0.00000000000E+00  0.11339514728E+03  0.45871135285E+03  0.44447457274E+03 0.  0.
      99925    2    3    3    0    0  0.50550671656E+01  0.98346040199E+02  0.10240530980E+03  0.29913133545E+03  0.26323983560E+03 0.  0.
         25    1    4    4    0    0 -0.17244131444E+02  0.41241938596E+02  0.87423248316E+02  0.15902386618E+03  0.12509000000E+03 0.  0.
         25    1    3    3    0    0 -0.50550671656E+01 -0.98346040199E+02  0.10989837480E+02  0.15958001740E+03  0.12509000000E+03 0.  0.
         25    1    4    4    0    0  0.22299198610E+02  0.57104101603E+02  0.14982061481E+02  0.14010746927E+03  0.12509000000E+03 0.  0.
<mgrwt>
<rscale>  2 0.44447457E+03</rscale>
<asrwt>0</asrwt>
<pdfrwt beam="1">  1       21 0.42066654E-01 0.44447457E+03</pdfrwt>
<pdfrwt beam="2">  1       21 0.25390898E-01 0.44447457E+03</pdfrwt>
<totfact> 0.74296644E+04</totfact>
</mgrwt>
</event>
<event>
 7    0  0.4793433E-002  0.4660428E+03  0.7546771E-02  0.1023043E+00
         21   -1    0    0  502  501  0.00000000000E+00  0.00000000000E+00  0.54894389484E+03  0.54894389484E+03  0.00000000000E+00 0. -1.
         21   -1    0    0  501  502 -0.00000000000E+00 -0.00000000000E+00 -0.98915358092E+02  0.98915358092E+02  0.00000000000E+00 0. -1.
      99926    2    1    2    0    0  0.00000000000E+00  0.00000000000E+00  0.45002853674E+03  0.64785925293E+03  0.46604283893E+03 0.  0.
      99925    2    3    3    0    0  0.10675501368E+03  0.28612902631E+02  0.20485593897E+03  0.35125776618E+03  0.26306031899E+03 0.  0.
         25    1    3    3    0    0 -0.10675501368E+03 -0.28612902631E+02  0.24517259777E+03  0.29660148675E+03  0.12509000000E+03 0.  0.
         25    1    4    4    0    0  0.66478112883E+02  0.10429362144E+02  0.58206928630E+02  0.15350461142E+03  0.12509000000E+03 0.  0.
         25    1    4    4    0    0  0.40276900798E+02  0.18183540487E+02  0.14664901034E+03  0.19775315476E+03  0.12509000000E+03 0.  0.
<mgrwt>
<rscale>  2 0.46604284E+03</rscale>
<asrwt>0</asrwt>
<pdfrwt beam="1">  1       21 0.80727042E-01 0.46604284E+03</pdfrwt>
<pdfrwt beam="2">  1       21 0.14546376E-01 0.46604284E+03</pdfrwt>
<totfact> 0.51214602E+04</totfact>
</mgrwt>
</event>
<event>
 7    0  0.4793433E-002  0.4432700E+03  0.7546771E-02  0.1029748E+00
         21   -1    0    0  502  501  0.00000000000E+00  0.00000000000E+00  0.19964515254E+03  0.19964515254E+03  0.00000000000E+00 0. -1.
         21   -1    0    0  501  502 -0.00000000000E+00 -0.00000000000E+00 -0.24604695414E+03  0.24604695414E+03  0.00000000000E+00 0. -1.
      99926    2    1    2    0    0 -0.71054273576E-14  0.35527136788E-14 -0.46401801602E+02  0.44569210669E+03  0.44327003821E+03 0.  0.
      99925    2    3    3    0    0 -0.51117259345E+02  0.31545338585E+02 -0.11222758661E+03  0.29210621976E+03  0.26291239955E+03 0.  0.
         25    1    4    4    0    0 -0.39019527411E+02  0.70819832226E+00 -0.94362884192E+02  0.16147720296E+03  0.12509000000E+03 0.  0.
         25    1    4    4    0    0 -0.12097731934E+02  0.30837140263E+02 -0.17864702423E+02  0.13062901680E+03  0.12509000000E+03 0.  0.
         25    1    3    3    0    0  0.51117259345E+02 -0.31545338585E+02  0.65825785012E+02  0.15358588692E+03  0.12509000000E+03 0.  0.
<mgrwt>
<rscale>  2 0.44327004E+03</rscale>
<asrwt>0</asrwt>
<pdfrwt beam="1">  1       21 0.29359582E-01 0.44327004E+03</pdfrwt>
<pdfrwt beam="2">  1       21 0.36183375E-01 0.44327004E+03</pdfrwt>
<totfact> 0.76110568E+04</totfact>
</mgrwt>
</event>
<event>
 7    0  0.4793433E-002  0.4584970E+03  0.7546771E-02  0.1025218E+00
         21   -1    0    0  502  501  0.00000000000E+00  0.00000000000E+00  0.59865315897E+03  0.59865315897E+03  0.00000000000E+00 0.  1.
         21   -1    0    0  501  502 -0.00000000000E+00 -0.00000000000E+00 -0.87788532110E+02  0.87788532110E+02  0.00000000000E+00 0.  1.
      99926    2    1    2    0    0  0.00000000000E+00  0.88817841970E-15  0.51086462686E+03  0.68644169108E+03  0.45849703192E+03 0.  0.
      99925    2    3    3    0    0 -0.26372356061E+02  0.38072132787E+01  0.49009381780E+03  0.55686958511E+03  0.26306232824E+03 0.  0.
         25    1    3    3    0    0  0.26372356061E+02 -0.38072132787E+01  0.20770809064E+02  0.12957210597E+03  0.12509000000E+03 0.  0.
         25    1    4    4    0    0  0.99504516112E+01 -0.30623295199E+02  0.25718454563E+03  0.28779888170E+03  0.12509000000E+03 0.  0.
         25    1    4    4    0    0 -0.36322807672E+02  0.34430508477E+02  0.23290927217E+03  0.26907070341E+03  0.12509000000E+03 0.  0.
<mgrwt>
<rscale>  2 0.45849703E+03</rscale>
<asrwt>0</asrwt>
<pdfrwt beam="1">  1       21 0.88037227E-01 0.45849703E+03</pdfrwt>
<pdfrwt beam="2">  1       21 0.12910079E-01 0.45849703E+03</pdfrwt>
<totfact> 0.52193586E+04</totfact>
</mgrwt>
</event>
<event>
 7    0  0.4793433E-002  0.4508481E+03  0.7546771E-02  0.1027469E+00
         21   -1    0    0  502  501  0.00000000000E+00  0.00000000000E+00  0.92167340373E+02  0.92167340373E+02  0.00000000000E+00 0.  1.
         21   -1    0    0  501  502 -0.00000000000E+00 -0.00000000000E+00 -0.55134503053E+03  0.55134503053E+03  0.00000000000E+00 0.  1.
      99926    2    1    2    0    0  0.00000000000E+00  0.00000000000E+00 -0.45917769016E+03  0.64351237091E+03  0.45084811230E+03 0.  0.
      99925    2    3    3    0    0  0.65266006874E+02 -0.81748688914E+02 -0.24517137932E+03  0.37446087217E+03  0.26300083604E+03 0.  0.
         25    1    4    4    0    0  0.60329792518E+02 -0.23241873967E+02 -0.15525120893E+03  0.20959559762E+03  0.12509000000E+03 0.  0.
         25    1    3    3    0    0 -0.65266006874E+02  0.81748688914E+02 -0.21400631084E+03  0.26905149874E+03  0.12509000000E+03 0.  0.
         25    1    4    4    0    0  0.49362143558E+01 -0.58506814947E+02 -0.89920170394E+02  0.16486527455E+03  0.12509000000E+03 0.  0.
<mgrwt>
<rscale>  2 0.45084811E+03</rscale>
<asrwt>0</asrwt>
<pdfrwt beam="1">  1       21 0.13554021E-01 0.45084811E+03</pdfrwt>
<pdfrwt beam="2">  1       21 0.81080151E-01 0.45084811E+03</pdfrwt>
<totfact> 0.57952095E+04</totfact>
</mgrwt>
</event>
<event>
 7    0  0.4793433E-002  0.4124228E+03  0.7546771E-02  0.1039561E+00
         21   -1    0    0  502  501  0.00000000000E+00  0.00000000000E+00  0.34900530043E+03  0.34900530043E+03  0.00000000000E+00 0. -1.
         21   -1    0    0  501  502 -0.00000000000E+00 -0.00000000000E+00 -0.12184097203E+03  0.12184097203E+03  0.00000000000E+00 0. -1.
      99926    2    1    2    0    0  0.35527136788E-14  0.00000000000E+00  0.22716432841E+03  0.47084627246E+03  0.41242281725E+03 0.  0.
      99925    2    3    3    0    0 -0.19085767294E+02 -0.41342169037E+02  0.95180447070E+02  0.28338775842E+03  0.26301304656E+03 0.  0.
         25    1    4    4    0    0  0.11698963827E+02 -0.39712282836E+02  0.78773594275E+02  0.15351455442E+03  0.12509000000E+03 0.  0.
         25    1    4    4    0    0 -0.30784731121E+02 -0.16298862006E+01  0.16406852796E+02  0.12987320400E+03  0.12509000000E+03 0.  0.
         25    1    3    3    0    0  0.19085767294E+02  0.41342169037E+02  0.13198388134E+03  0.18745851404E+03  0.12509000000E+03 0.  0.
<mgrwt>
<rscale>  2 0.41242282E+03</rscale>
<asrwt>0</asrwt>
<pdfrwt beam="1">  1       21 0.51324309E-01 0.41242282E+03</pdfrwt>
<pdfrwt beam="2">  1       21 0.17917790E-01 0.41242282E+03</pdfrwt>
<totfact> 0.95909065E+04</totfact>
</mgrwt>
</event>
<event>
 7    0  0.4793433E-002  0.4605916E+03  0.7546771E-02  0.1024610E+00
         21   -1    0    0  502  501  0.00000000000E+00  0.00000000000E+00  0.16604434778E+03  0.16604434778E+03  0.00000000000E+00 0. -1.
         21   -1    0    0  501  502 -0.00000000000E+00 -0.00000000000E+00 -0.31940958945E+03  0.31940958945E+03  0.00000000000E+00 0. -1.
      99926    2    1    2    0    0  0.00000000000E+00  0.00000000000E+00 -0.15336524166E+03  0.48545393723E+03  0.46059160633E+03 0.  0.
      99925    2    3    3    0    0 -0.10731486268E+03  0.49292634232E+02 -0.10382173544E+03  0.30643351758E+03  0.26301388634E+03 0.  0.
         25    1    4    4    0    0 -0.80715444491E+02 -0.53536492132E+01 -0.47064883512E+02  0.15622501688E+03  0.12509000000E+03 0.  0.
         25    1    4    4    0    0 -0.26599418185E+02  0.54646283446E+02 -0.56756851932E+02  0.15020850070E+03  0.12509000000E+03 0.  0.
         25    1    3    3    0    0  0.10731486268E+03 -0.49292634232E+02 -0.49543506220E+02  0.17902041964E+03  0.12509000000E+03 0.  0.
<mgrwt>
<rscale>  2 0.46059161E+03</rscale>
<asrwt>0</asrwt>
<pdfrwt beam="1">  1       21 0.24418286E-01 0.46059161E+03</pdfrwt>
<pdfrwt beam="2">  1       21 0.46971998E-01 0.46059161E+03</pdfrwt>
<totfact> 0.63442158E+04</totfact>
</mgrwt>
</event>
<event>
 7    0  0.4793433E-002  0.4550548E+03  0.7546771E-02  0.1026225E+00
         21   -1    0    0  502  501  0.00000000000E+00  0.00000000000E+00  0.10086245788E+03  0.10086245788E+03  0.00000000000E+00 0.  1.
         21   -1    0    0  501  502 -0.00000000000E+00 -0.00000000000E+00 -0.51326045230E+03  0.51326045230E+03  0.00000000000E+00 0.  1.
      99926    2    1    2    0    0  0.00000000000E+00  0.14210854715E-13 -0.41239799441E+03  0.61412291018E+03  0.45505476924E+03 0.  0.
      99925    2    3    3    0    0  0.46387092400E+02  0.72328510541E+02 -0.35710280205E+03  0.45260435961E+03  0.26447139605E+03 0.  0.
         25    1    3    3    0    0 -0.46387092400E+02 -0.72328510541E+02 -0.55295192367E+02  0.16151855057E+03  0.12509000000E+03 0.  0.
         25    1    4    4    0    0  0.38133228387E+02  0.69722808686E+02 -0.15258738523E+03  0.21271067531E+03  0.12509000000E+03 0.  0.
         25    1    4    4    0    0  0.82538640132E+01  0.26057018550E+01 -0.20451541681E+03  0.23989368430E+03  0.12509000000E+03 0.  0.
<mgrwt>
<rscale>  2 0.45505477E+03</rscale>
<asrwt>0</asrwt>
<pdfrwt beam="1">  1       21 0.14832714E-01 0.45505477E+03</pdfrwt>
<pdfrwt beam="2">  1       21 0.75479479E-01 0.45505477E+03</pdfrwt>
<totfact> 0.57792278E+04</totfact>
</mgrwt>
</event>
<event>
 7    0  0.4793433E-002  0.4522185E+03  0.7546771E-02  0.1027063E+00
         21   -1    0    0  502  501  0.00000000000E+00  0.00000000000E+00  0.23233564698E+03  0.23233564698E+03  0.00000000000E+00 0.  1.
         21   -1    0    0  501  502 -0.00000000000E+00 -0.00000000000E+00 -0.22004970288E+03  0.22004970288E+03  0.00000000000E+00 0.  1.
      99926    2    1    2    0    0  0.17763568394E-14  0.00000000000E+00  0.12285944102E+02  0.45238534987E+03  0.45221848741E+03 0.  0.
      99925    2    3    3    0    0  0.14370477843E+02  0.10712091088E+03 -0.15320808381E+02  0.28478152812E+03  0.26302925960E+03 0.  0.
         25    1    4    4    0    0 -0.59981118917E+01  0.23667477433E+02 -0.33953817431E+02  0.13189577951E+03  0.12509000000E+03 0.  0.
         25    1    4    4    0    0  0.20368589735E+02  0.83453433448E+02  0.18633009050E+02  0.15288574861E+03  0.12509000000E+03 0.  0.
         25    1    3    3    0    0 -0.14370477843E+02 -0.10712091088E+03  0.27606752483E+02  0.16760382175E+03  0.12509000000E+03 0.  0.
<mgrwt>
<rscale>  2 0.45221849E+03</rscale>
<asrwt>0</asrwt>
<pdfrwt beam="1">  1       21 0.34167007E-01 0.45221849E+03</pdfrwt>
<pdfrwt beam="2">  1       21 0.32360250E-01 0.45221849E+03</pdfrwt>
<totfact> 0.70284733E+04</totfact>
</mgrwt>
</event>
<event>
 7    0  0.4793433E-002  0.4484801E+03  0.7546771E-02  0.1028176E+00
         21   -1    0    0  502  501  0.00000000000E+00  0.00000000000E+00  0.16887708230E+04  0.16887708230E+04  0.00000000000E+00 0.  1.
         21   -1    0    0  501  502 -0.00000000000E+00 -0.00000000000E+00 -0.29775262530E+02  0.29775262530E+02  0.00000000000E+00 0.  1.
      99926    2    1    2    0    0  0.00000000000E+00  0.00000000000E+00  0.16589955605E+04  0.17185460855E+04  0.44848007584E+03 0.  0.
      99925    2    3    3    0    0  0.10411902960E+03  0.15328472943E+02  0.11238083285E+04  0.11589492523E+04  0.26294956887E+03 0.  0.
         25    1    4    4    0    0  0.38127207566E+02 -0.19834916080E+02  0.64634723909E+03  0.65974189607E+03  0.12509000000E+03 0.  0.
         25    1    4    4    0    0  0.65991822030E+02  0.35163389024E+02  0.47746108946E+03  0.49920735627E+03  0.12509000000E+03 0.  0.
         25    1    3    3    0    0 -0.10411902960E+03 -0.15328472943E+02  0.53518723190E+03  0.55959683317E+03  0.12509000000E+03 0.  0.
<mgrwt>
<rscale>  2 0.44848008E+03</rscale>
<asrwt>0</asrwt>
<pdfrwt beam="1">  1       21 0.24834859E+00 0.44848008E+03</pdfrwt>
<pdfrwt beam="2">  1       21 0.43787162E-02 0.44848008E+03</pdfrwt>
<totfact> 0.19865030E+04</totfact>
</mgrwt>
</event>
<event>
 7    0  0.4793433E-002  0.4435142E+03  0.7546771E-02  0.1029674E+00
         21   -1    0    0  502  501  0.00000000000E+00  0.00000000000E+00  0.14971810425E+03  0.14971810425E+03  0.00000000000E+00 0.  1.
         21   -1    0    0  501  502 -0.00000000000E+00 -0.00000000000E+00 -0.32845864556E+03  0.32845864556E+03  0.00000000000E+00 0.  1.
      99926    2    1    2    0    0  0.00000000000E+00  0.00000000000E+00 -0.17874054131E+03  0.47817674981E+03  0.44351417446E+03 0.  0.
      99925    2    3    3    0    0 -0.12807068080E+02 -0.79949018541E+02 -0.46778925737E+02  0.27913594333E+03  0.26300711095E+03 0.  0.
         25    1    4    4    0    0 -0.34717122501E+02 -0.10852089434E+02 -0.29123749308E+02  0.13348688068E+03  0.12509000000E+03 0.  0.
         25    1    3    3    0    0  0.12807068080E+02  0.79949018541E+02 -0.13196161557E+03  0.19904080648E+03  0.12509000000E+03 0.  0.
         25    1    4    4    0    0  0.21910054421E+02 -0.69096929107E+02 -0.17655176430E+02  0.14564906265E+03  0.12509000000E+03 0.  0.
<mgrwt>
<rscale>  2 0.44351417E+03</rscale>
<asrwt>0</asrwt>
<pdfrwt beam="1">  1       21 0.22017368E-01 0.44351417E+03</pdfrwt>
<pdfrwt beam="2">  1       21 0.48302741E-01 0.44351417E+03</pdfrwt>
<totfact> 0.73291020E+04</totfact>
</mgrwt>
</event>
<event>
 6    0  0.4793433E-002  0.4338143E+03  0.7546771E-02  0.1032662E+00
         21   -1    0    0  502  501  0.00000000000E+00  0.00000000000E+00  0.41530950619E+02  0.41530950619E+02  0.00000000000E+00 0. -1.
         21   -1    0    0  501  502 -0.00000000000E+00 -0.00000000000E+00 -0.11328588917E+04  0.11328588917E+04  0.00000000000E+00 0. -1.
      99926    2    1    2    0    0  0.00000000000E+00  0.00000000000E+00 -0.10913279411E+04  0.11743898423E+04  0.43381427681E+03 0.  0.
         25    1    3    3    0    0  0.51775666858E+02  0.45280308812E+01 -0.31505768739E+03  0.34294325656E+03  0.12509000000E+03 0.  0.
         25    1    3    3    0    0 -0.68435190315E+02 -0.59447657472E+02 -0.32866228715E+03  0.36315810104E+03  0.12509000000E+03 0.  0.
         25    1    3    3    0    0  0.16659523457E+02  0.54919626591E+02 -0.44760796657E+03  0.46828848474E+03  0.12509000000E+03 0.  0.
<mgrwt>
<rscale>  2 0.43381428E+03</rscale>
<asrwt>0</asrwt>
<pdfrwt beam="1">  1       21 0.61074934E-02 0.43381428E+03</pdfrwt>
<pdfrwt beam="2">  1       21 0.16659688E+00 0.43381428E+03</pdfrwt>
<totfact> 0.39034679E+04</totfact>
</mgrwt>
</event>
<event>
 7    0  0.4793433E-002  0.4488091E+03  0.7546771E-02  0.1028078E+00
         21   -1    0    0  502  501  0.00000000000E+00  0.00000000000E+00  0.15533468803E+03  0.15533468803E+03  0.00000000000E+00 0.  1.
         21   -1    0    0  501  502 -0.00000000000E+00 -0.00000000000E+00 -0.32418648930E+03  0.32418648930E+03  0.00000000000E+00 0.  1.
      99926    2    1    2    0    0  0.14210854715E-13  0.00000000000E+00 -0.16885180127E+03  0.47952117733E+03  0.44880912280E+03 0.  0.
      99925    2    3    3    0    0 -0.66756999715E+02 -0.80301729248E+02 -0.81345026711E+02  0.29456224020E+03  0.26314451400E+03 0.  0.
         25    1    3    3    0    0  0.66756999715E+02  0.80301729248E+02 -0.87506774558E+02  0.18495893713E+03  0.12509000000E+03 0.  0.
         25    1    4    4    0    0 -0.72107022976E+02 -0.59359248984E+02 -0.47708090690E+02  0.16323759745E+03  0.12509000000E+03 0.  0.
         25    1    4    4    0    0  0.53500232610E+01 -0.20942480263E+02 -0.33636936021E+02  0.13132464275E+03  0.12509000000E+03 0.  0.
<mgrwt>
<rscale>  2 0.44880912E+03</rscale>
<asrwt>0</asrwt>
<pdfrwt beam="1">  1       21 0.22843337E-01 0.44880912E+03</pdfrwt>
<pdfrwt beam="2">  1       21 0.47674483E-01 0.44880912E+03</pdfrwt>
<totfact> 0.70117979E+04</totfact>
</mgrwt>
</event>
<event>
 7    0  0.4793433E-002  0.4555164E+03  0.7546771E-02  0.1026090E+00
         21   -1    0    0  502  501  0.00000000000E+00  0.00000000000E+00  0.22165944158E+03  0.22165944158E+03  0.00000000000E+00 0. -1.
         21   -1    0    0  501  502 -0.00000000000E+00 -0.00000000000E+00 -0.23402478578E+03  0.23402478578E+03  0.00000000000E+00 0. -1.
      99926    2    1    2    0    0  0.00000000000E+00  0.88817841970E-15 -0.12365344197E+02  0.45568422735E+03  0.45551642487E+03 0.  0.
      99925    2    3    3    0    0  0.54078374620E+02 -0.36463699440E+01 -0.10770507691E+03  0.28932636205E+03  0.26300493070E+03 0.  0.
         25    1    3    3    0    0 -0.54078374620E+02  0.36463699440E+01  0.95339732708E+02  0.16635786530E+03  0.12509000000E+03 0.  0.
         25    1    4    4    0    0 -0.22962371148E+01  0.26886207813E+02 -0.51868888121E+02  0.13807979769E+03  0.12509000000E+03 0.  0.
         25    1    4    4    0    0  0.56374611735E+02 -0.30532577757E+02 -0.55836188784E+02  0.15124656436E+03  0.12509000000E+03 0.  0.
<mgrwt>
<rscale>  2 0.45551642E+03</rscale>
<asrwt>0</asrwt>
<pdfrwt beam="1">  1       21 0.32596977E-01 0.45551642E+03</pdfrwt>
<pdfrwt beam="2">  1       21 0.34415409E-01 0.45551642E+03</pdfrwt>
<totfact> 0.68214192E+04</totfact>
</mgrwt>
</event>
<event>
 7    0  0.4793433E-002  0.4529263E+03  0.7546771E-02  0.1026853E+00
         21   -1    0    0  502  501  0.00000000000E+00  0.00000000000E+00  0.13480815474E+03  0.13480815474E+03  0.00000000000E+00 0. -1.
         21   -1    0    0  501  502 -0.00000000000E+00 -0.00000000000E+00 -0.38043365028E+03  0.38043365028E+03  0.00000000000E+00 0. -1.
      99926    2    1    2    0    0  0.00000000000E+00  0.17763568394E-14 -0.24562549553E+03  0.51524180502E+03  0.45292630039E+03 0.  0.
      99925    2    3    3    0    0 -0.11044195356E+03  0.12963864686E+02 -0.15264372953E+03  0.32377743809E+03  0.26299474207E+03 0.  0.
         25    1    4    4    0    0 -0.89755697799E+02 -0.10064097387E+02 -0.62258797893E+02  0.16637619228E+03  0.12509000000E+03 0.  0.
         25    1    3    3    0    0  0.11044195356E+03 -0.12963864686E+02 -0.92981766004E+02  0.19146436693E+03  0.12509000000E+03 0.  0.
         25    1    4    4    0    0 -0.20686255765E+02  0.23027962073E+02 -0.90384931636E+02  0.15740124581E+03  0.12509000000E+03 0.  0.
<mgrwt>
<rscale>  2 0.45292630E+03</rscale>
<asrwt>0</asrwt>
<pdfrwt beam="1">  1       21 0.19824729E-01 0.45292630E+03</pdfrwt>
<pdfrwt beam="2">  1       21 0.55946125E-01 0.45292630E+03</pdfrwt>
<totfact> 0.65280147E+04</totfact>
</mgrwt>
</event>
<event>
 7    0  0.4793433E-002  0.4890227E+03  0.7546771E-02  0.1016685E+00
         21   -1    0    0  502  501  0.00000000000E+00  0.00000000000E+00  0.85655234404E+02  0.85655234404E+02  0.00000000000E+00 0. -1.
         21   -1    0    0  501  502 -0.00000000000E+00 -0.00000000000E+00 -0.69798190783E+03  0.69798190783E+03  0.00000000000E+00 0. -1.
      99926    2    1    2    0    0  0.00000000000E+00  0.00000000000E+00 -0.61232667343E+03  0.78363714223E+03  0.48902271491E+03 0.  0.
      99925    2    3    3    0    0 -0.12976057878E+03  0.40843915243E+02 -0.44319068726E+03  0.53311663781E+03  0.26322866680E+03 0.  0.
         25    1    4    4    0    0 -0.35371787176E+02  0.28264977760E+02 -0.15042532942E+03  0.20081175296E+03  0.12509000000E+03 0.  0.
         25    1    3    3    0    0  0.12976057878E+03 -0.40843915243E+02 -0.16913598617E+03  0.25052050442E+03  0.12509000000E+03 0.  0.
         25    1    4    4    0    0 -0.94388791602E+02  0.12578937483E+02 -0.29276535784E+03  0.33230488486E+03  0.12509000000E+03 0.  0.
<mgrwt>
<rscale>  2 0.48902271E+03</rscale>
<asrwt>0</asrwt>
<pdfrwt beam="1">  1       21 0.12596358E-01 0.48902271E+03</pdfrwt>
<pdfrwt beam="2">  1       21 0.10264440E+00 0.48902271E+03</pdfrwt>
<totfact> 0.37503109E+04</totfact>
</mgrwt>
</event>
<event>
 7    0  0.4793433E-002  0.4478092E+03  0.7546771E-02  0.1028377E+00
         21   -1    0    0  502  501  0.00000000000E+00  0.00000000000E+00  0.16296589798E+03  0.16296589798E+03  0.00000000000E+00 0. -1.
         21   -1    0    0  501  502 -0.00000000000E+00 -0.00000000000E+00 -0.30763038481E+03  0.30763038481E+03  0.00000000000E+00 0. -1.
      99926    2    1    2    0    0  0.00000000000E+00  0.00000000000E+00 -0.14466448683E+03  0.47059628280E+03  0.44780916430E+03 0.  0.
      99925    2    3    3    0    0 -0.46853260606E+02  0.91747734702E+02 -0.11903587987E+03  0.30653163564E+03  0.26301944434E+03 0.  0.
         25    1    3    3    0    0  0.46853260606E+02 -0.91747734702E+02 -0.25628606964E+02  0.16406464716E+03  0.12509000000E+03 0.  0.
         25    1    4    4    0    0 -0.28398095936E+02  0.83353595567E+02 -0.43653130288E+02  0.15908292690E+03  0.12509000000E+03 0.  0.
         25    1    4    4    0    0 -0.18455164670E+02  0.83941391350E+01 -0.75382749577E+02  0.14744870874E+03  0.12509000000E+03 0.  0.
<mgrwt>
<rscale>  2 0.44780916E+03</rscale>
<asrwt>0</asrwt>
<pdfrwt beam="1">  1       21 0.23965574E-01 0.44780916E+03</pdfrwt>
<pdfrwt beam="2">  1       21 0.45239762E-01 0.44780916E+03</pdfrwt>
<totfact> 0.71378295E+04</totfact>
</mgrwt>
</event>
<event>
 7    0  0.4793433E-002  0.4542620E+03  0.7546771E-02  0.1026459E+00
         21   -1    0    0  502  501  0.00000000000E+00  0.00000000000E+00  0.30587291485E+03  0.30587291485E+03  0.00000000000E+00 0. -1.
         21   -1    0    0  501  502 -0.00000000000E+00 -0.00000000000E+00 -0.16865986002E+03  0.16865986002E+03  0.00000000000E+00 0. -1.
      99926    2    1    2    0    0  0.00000000000E+00  0.00000000000E+00  0.13721305483E+03  0.47453277487E+03  0.45426196408E+03 0.  0.
      99925    2    3    3    0    0 -0.77279413532E+02 -0.76371594777E+02  0.56307732110E+02  0.29014755965E+03  0.26307853853E+03 0.  0.
         25    1    4    4    0    0 -0.56029172696E+02 -0.28782901255E+01  0.15651903085E+02  0.13798566200E+03  0.12509000000E+03 0.  0.
         25    1    4    4    0    0 -0.21250240837E+02 -0.73493304651E+02  0.40655829025E+02  0.15216189765E+03  0.12509000000E+03 0.  0.
         25    1    3    3    0    0  0.77279413532E+02  0.76371594777E+02  0.80905322719E+02  0.18438521521E+03  0.12509000000E+03 0.  0.
<mgrwt>
<rscale>  2 0.45426196E+03</rscale>
<asrwt>0</asrwt>
<pdfrwt beam="1">  1       21 0.44981311E-01 0.45426196E+03</pdfrwt>
<pdfrwt beam="2">  1       21 0.24802920E-01 0.45426196E+03</pdfrwt>
<totfact> 0.67494730E+04</totfact>
</mgrwt>
</event>
<event>
 7    0  0.4793433E-002  0.4557009E+03  0.7546771E-02  0.1026036E+00
         21   -1    0    0  502  501  0.00000000000E+00  0.00000000000E+00  0.40890319234E+03  0.40890319234E+03  0.00000000000E+00 0.  1.
         21   -1    0    0  501  502 -0.00000000000E+00 -0.00000000000E+00 -0.12696359836E+03  0.12696359836E+03  0.00000000000E+00 0.  1.
      99926    2    1    2    0    0  0.00000000000E+00  0.14210854715E-13  0.28193959398E+03  0.53586679070E+03  0.45570086979E+03 0.  0.
      99925    2    3    3    0    0 -0.89660422841E+02 -0.70032510982E+02  0.18153602842E+03  0.33921499667E+03  0.26299798542E+03 0.  0.
         25    1    3    3    0    0  0.89660422841E+02  0.70032510982E+02  0.10040356556E+03  0.19665179403E+03  0.12509000000E+03 0.  0.
         25    1    4    4    0    0 -0.65265425082E+02 -0.70546757436E+02  0.11671443207E+03  0.19622993515E+03  0.12509000000E+03 0.  0.
         25    1    4    4    0    0 -0.24394997759E+02  0.51424645496E+00  0.64821596354E+02  0.14298506152E+03  0.12509000000E+03 0.  0.
<mgrwt>
<rscale>  2 0.45570087E+03</rscale>
<asrwt>0</asrwt>
<pdfrwt beam="1">  1       21 0.60132822E-01 0.45570087E+03</pdfrwt>
<pdfrwt beam="2">  1       21 0.18671118E-01 0.45570087E+03</pdfrwt>
<totfact> 0.62462999E+04</totfact>
</mgrwt>
</event>
<event>
 7    0  0.4793433E-002  0.4541878E+03  0.7546771E-02  0.1026481E+00
         21   -1    0    0  502  501  0.00000000000E+00  0.00000000000E+00  0.20815945136E+02  0.20815945136E+02  0.00000000000E+00 0. -1.
         21   -1    0    0  501  502 -0.00000000000E+00 -0.00000000000E+00 -0.24775066652E+04  0.24775066652E+04  0.00000000000E+00 0. -1.
      99926    2    1    2    0    0 -0.14210854715E-13 -0.35527136788E-14 -0.24566907201E+04  0.24983226104E+04  0.45418781497E+03 0.  0.
      99925    2    3    3    0    0 -0.98069294877E+02 -0.22383478898E+02 -0.12710504545E+04  0.13018657770E+04  0.26299550678E+03 0.  0.
         25    1    4    4    0    0 -0.38357728742E+02  0.25798820515E+02 -0.53907422856E+03  0.55532461361E+03  0.12509000000E+03 0.  0.
         25    1    3    3    0    0  0.98069294877E+02  0.22383478898E+02 -0.11856402656E+04  0.11964568334E+04  0.12509000000E+03 0.  0.
         25    1    4    4    0    0 -0.59711566136E+02 -0.48182299413E+02 -0.73197622597E+03  0.74654116336E+03  0.12509000000E+03 0.  0.
<mgrwt>
<rscale>  2 0.45418781E+03</rscale>
<asrwt>0</asrwt>
<pdfrwt beam="1">  1       21 0.30611716E-02 0.45418781E+03</pdfrwt>
<pdfrwt beam="2">  1       21 0.36433883E+00 0.45418781E+03</pdfrwt>
<totfact> 0.71942997E+03</totfact>
</mgrwt>
</event>
<event>
 7    0  0.4793433E-002  0.4582450E+03  0.7546771E-02  0.1025291E+00
         21   -1    0    0  502  501  0.00000000000E+00  0.00000000000E+00  0.62552818029E+03  0.62552818029E+03  0.00000000000E+00 0. -1.
         21   -1    0    0  501  502 -0.00000000000E+00 -0.00000000000E+00 -0.83924476439E+02  0.83924476439E+02  0.00000000000E+00 0. -1.
      99926    2    1    2    0    0  0.00000000000E+00  0.00000000000E+00  0.54160370385E+03  0.70945265673E+03  0.45824502192E+03 0.  0.
      99925    2    3    3    0    0 -0.97890449438E+02  0.60720047633E+02  0.36362135024E+03  0.46329276850E+03  0.26296432974E+03 0.  0.
         25    1    4    4    0    0 -0.66611813248E+02  0.59046809607E+02  0.15594390660E+03  0.21883708437E+03  0.12509000000E+03 0.  0.
         25    1    3    3    0    0  0.97890449438E+02 -0.60720047633E+02  0.17798235361E+03  0.24615988823E+03  0.12509000000E+03 0.  0.
         25    1    4    4    0    0 -0.31278636190E+02  0.16732380264E+01  0.20767744364E+03  0.24445568413E+03  0.12509000000E+03 0.  0.
<mgrwt>
<rscale>  2 0.45824502E+03</rscale>
<asrwt>0</asrwt>
<pdfrwt beam="1">  1       21 0.91989436E-01 0.45824502E+03</pdfrwt>
<pdfrwt beam="2">  1       21 0.12341835E-01 0.45824502E+03</pdfrwt>
<totfact> 0.51076163E+04</totfact>
</mgrwt>
</event>
<event>
 7    0  0.4793433E-002  0.4518595E+03  0.7546771E-02  0.1027169E+00
         21   -1    0    0  502  501  0.00000000000E+00  0.00000000000E+00  0.96346435082E+02  0.96346435082E+02  0.00000000000E+00 0.  1.
         21   -1    0    0  501  502 -0.00000000000E+00 -0.00000000000E+00 -0.52979900052E+03  0.52979900052E+03  0.00000000000E+00 0.  1.
      99926    2    1    2    0    0  0.00000000000E+00  0.00000000000E+00 -0.43345256544E+03  0.62614543561E+03  0.45185946935E+03 0.  0.
      99925    2    3    3    0    0 -0.87395040247E+02  0.30443077074E+02 -0.19084402787E+03  0.33792488706E+03  0.26307244690E+03 0.  0.
         25    1    4    4    0    0 -0.57926133750E+02  0.20994852479E+02 -0.14495699033E+03  0.20113741061E+03  0.12509000000E+03 0.  0.
         25    1    3    3    0    0  0.87395040247E+02 -0.30443077074E+02 -0.24260853757E+03  0.28822054855E+03  0.12509000000E+03 0.  0.
         25    1    4    4    0    0 -0.29468906497E+02  0.94482245950E+01 -0.45887037533E+02  0.13678747644E+03  0.12509000000E+03 0.  0.
<mgrwt>
<rscale>  2 0.45185947E+03</rscale>
<asrwt>0</asrwt>
<pdfrwt beam="1">  1       21 0.14168593E-01 0.45185947E+03</pdfrwt>
<pdfrwt beam="2">  1       21 0.77911618E-01 0.45185947E+03</pdfrwt>
<totfact> 0.58535003E+04</totfact>
</mgrwt>
</event>
<event>
 7    0  0.4793433E-002  0.4501212E+03  0.7546771E-02  0.1027686E+00
         21   -1    0    0  502  501  0.00000000000E+00  0.00000000000E+00  0.19010736149E+03  0.19010736149E+03  0.00000000000E+00 0.  1.
         21   -1    0    0  501  502 -0.00000000000E+00 -0.00000000000E+00 -0.26644034655E+03  0.26644034655E+03  0.00000000000E+00 0.  1.
      99926    2    1    2    0    0 -0.71054273576E-14 -0.27755575616E-15 -0.76332985065E+02  0.45654770804E+03  0.45012118936E+03 0.  0.
      99925    2    3    3    0    0 -0.47375097903E+02  0.35285270506E+00  0.50711415496E+02  0.27206922090E+03  0.26306936137E+03 0.  0.
         25    1    4    4    0    0 -0.46860472343E+01  0.38442115306E+01 -0.11848900906E+02  0.12579603155E+03  0.12509000000E+03 0.  0.
         25    1    4    4    0    0 -0.42689050669E+02 -0.34913588256E+01  0.62560316402E+02  0.14627318935E+03  0.12509000000E+03 0.  0.
         25    1    3    3    0    0  0.47375097903E+02 -0.35285270506E+00 -0.12704440056E+03  0.18447848715E+03  0.12509000000E+03 0.  0.
<mgrwt>
<rscale>  2 0.45012119E+03</rscale>
<asrwt>0</asrwt>
<pdfrwt beam="1">  1       21 0.27956965E-01 0.45012119E+03</pdfrwt>
<pdfrwt beam="2">  1       21 0.39182404E-01 0.45012119E+03</pdfrwt>
<totfact> 0.71161331E+04</totfact>
</mgrwt>
</event>
<event>
 7    0  0.4793433E-002  0.4505917E+03  0.7546771E-02  0.1027546E+00
         21   -1    0    0  502  501  0.00000000000E+00  0.00000000000E+00  0.34483104719E+03  0.34483104719E+03  0.00000000000E+00 0.  1.
         21   -1    0    0  501  502 -0.00000000000E+00 -0.00000000000E+00 -0.14719735622E+03  0.14719735622E+03  0.00000000000E+00 0.  1.
      99926    2    1    2    0    0  0.71054273576E-14  0.00000000000E+00  0.19763369097E+03  0.49202840341E+03  0.45059169317E+03 0.  0.
      99925    2    3    3    0    0 -0.32872486192E+02 -0.17343852959E+02  0.13099676800E+02  0.26601574874E+03  0.26308053418E+03 0.  0.
         25    1    4    4    0    0  0.16871894514E+01  0.20151186897E+02  0.29025940606E+02  0.12999588559E+03  0.12509000000E+03 0.  0.
         25    1    3    3    0    0  0.32872486192E+02  0.17343852959E+02  0.18453401417E+03  0.22601265467E+03  0.12509000000E+03 0.  0.
         25    1    4    4    0    0 -0.34559675643E+02 -0.37495039855E+02 -0.15926263805E+02  0.13601986316E+03  0.12509000000E+03 0.  0.
<mgrwt>
<rscale>  2 0.45059169E+03</rscale>
<asrwt>0</asrwt>
<pdfrwt beam="1">  1       21 0.50710448E-01 0.45059169E+03</pdfrwt>
<pdfrwt beam="2">  1       21 0.21646670E-01 0.45059169E+03</pdfrwt>
<totfact> 0.68189671E+04</totfact>
</mgrwt>
</event>
<event>
 7    0  0.4793433E-002  0.4553962E+03  0.7546771E-02  0.1026125E+00
         21   -1    0    0  502  501  0.00000000000E+00  0.00000000000E+00  0.12472625694E+03  0.12472625694E+03  0.00000000000E+00 0.  1.
         21   -1    0    0  501  502 -0.00000000000E+00 -0.00000000000E+00 -0.41568171658E+03  0.41568171658E+03  0.00000000000E+00 0.  1.
      99926    2    1    2    0    0  0.00000000000E+00  0.00000000000E+00 -0.29095545963E+03  0.54040797352E+03  0.45539619932E+03 0.  0.
      99925    2    3    3    0    0 -0.61494743157E+02  0.88347458858E+01 -0.29581269370E+03  0.40065548877E+03  0.26298291723E+03 0.  0.
         25    1    4    4    0    0 -0.11639801568E+02 -0.31735585741E+02 -0.14329330501E+03  0.19319190393E+03  0.12509000000E+03 0.  0.
         25    1    3    3    0    0  0.61494743157E+02 -0.88347458858E+01  0.48572340674E+01  0.13975248475E+03  0.12509000000E+03 0.  0.
         25    1    4    4    0    0 -0.49854941589E+02  0.40570331627E+02 -0.15251938869E+03  0.20746358484E+03  0.12509000000E+03 0.  0.
<mgrwt>
<rscale>  2 0.45539620E+03</rscale>
<asrwt>0</asrwt>
<pdfrwt beam="1">  1       21 0.18342096E-01 0.45539620E+03</pdfrwt>
<pdfrwt beam="2">  1       21 0.61129665E-01 0.45539620E+03</pdfrwt>
<totfact> 0.62309248E+04</totfact>
</mgrwt>
</event>
<event>
 7    0  0.4793433E-002  0.4416542E+03  0.7546771E-02  0.1030240E+00
         21   -1    0    0  502  501  0.00000000000E+00  0.00000000000E+00  0.56881239358E+02  0.56881239358E+02  0.00000000000E+00 0. -1.
         21   -1    0    0  501  502 -0.00000000000E+00 -0.00000000000E+00 -0.85730579715E+03  0.85730579715E+03  0.00000000000E+00 0. -1.
      99926    2    1    2    0    0  0.00000000000E+00  0.00000000000E+00 -0.80042455780E+03  0.91418703651E+03  0.44165423694E+03 0.  0.
      99925    2    3    3    0    0  0.44104115284E+02 -0.60644943085E+02 -0.37151448048E+03  0.46115906317E+03  0.26271979414E+03 0.  0.
         25    1    4    4    0    0  0.32809259084E+02 -0.48462881291E+02 -0.25197587059E+03  0.28734029618E+03  0.12509000000E+03 0.  0.
         25    1    4    4    0    0  0.11294856201E+02 -0.12182061794E+02 -0.11953860989E+03  0.17381876699E+03  0.12509000000E+03 0.  0.
         25    1    3    3    0    0 -0.44104115284E+02  0.60644943085E+02 -0.42891007732E+03  0.45302797334E+03  0.12509000000E+03 0.  0.
<mgrwt>
<rscale>  2 0.44165424E+03</rscale>
<asrwt>0</asrwt>
<pdfrwt beam="1">  1       21 0.83648884E-02 0.44165424E+03</pdfrwt>
<pdfrwt beam="2">  1       21 0.12607438E+00 0.44165424E+03</pdfrwt>
<totfact> 0.47382883E+04</totfact>
</mgrwt>
</event>
<event>
 7    0  0.4793433E-002  0.4526522E+03  0.7546771E-02  0.1026934E+00
         21   -1    0    0  502  501  0.00000000000E+00  0.00000000000E+00  0.39399473271E+03  0.39399473271E+03  0.00000000000E+00 0.  1.
         21   -1    0    0  501  502 -0.00000000000E+00 -0.00000000000E+00 -0.13001062053E+03  0.13001062053E+03  0.00000000000E+00 0.  1.
      99926    2    1    2    0    0  0.00000000000E+00  0.00000000000E+00  0.26398411218E+03  0.52400535324E+03  0.45265218296E+03 0.  0.
      99925    2    3    3    0    0  0.52562240867E+02 -0.41391007965E+02  0.26891193043E+03  0.38206242035E+03  0.26302483155E+03 0.  0.
         25    1    4    4    0    0  0.34355961531E+02  0.19160214304E+02  0.12458422979E+03  0.18087615741E+03  0.12509000000E+03 0.  0.
         25    1    4    4    0    0  0.18206279336E+02 -0.60551222269E+02  0.14432770064E+03  0.20118626294E+03  0.12509000000E+03 0.  0.
         25    1    3    3    0    0 -0.52562240867E+02  0.41391007965E+02 -0.49278182471E+01  0.14194293289E+03  0.12509000000E+03 0.  0.
<mgrwt>
<rscale>  2 0.45265218E+03</rscale>
<asrwt>0</asrwt>
<pdfrwt beam="1">  1       21 0.57940402E-01 0.45265218E+03</pdfrwt>
<pdfrwt beam="2">  1       21 0.19119209E-01 0.45265218E+03</pdfrwt>
<totfact> 0.64812021E+04</totfact>
</mgrwt>
</event>
<event>
 7    0  0.4793433E-002  0.4472089E+03  0.7546771E-02  0.1028558E+00
         21   -1    0    0  502  501  0.00000000000E+00  0.00000000000E+00  0.66081238329E+03  0.66081238329E+03  0.00000000000E+00 0. -1.
         21   -1    0    0  501  502 -0.00000000000E+00 -0.00000000000E+00 -0.75662840760E+02  0.75662840760E+02  0.00000000000E+00 0. -1.
      99926    2    1    2    0    0 -0.14210854715E-13  0.00000000000E+00  0.58514954253E+03  0.73647522405E+03  0.44720886453E+03 0.  0.
      99925    2    3    3    0    0  0.96649010595E+02  0.34233431328E+02  0.32859148923E+03  0.43318905245E+03  0.26299701386E+03 0.  0.
         25    1    4    4    0    0  0.78187723528E+01  0.29560336816E+02  0.14799607914E+03  0.19617669142E+03  0.12509000000E+03 0.  0.
         25    1    4    4    0    0  0.88830238243E+02  0.46730945122E+01  0.18059541009E+03  0.23701236103E+03  0.12509000000E+03 0.  0.
         25    1    3    3    0    0 -0.96649010595E+02 -0.34233431328E+02  0.25655805331E+03  0.30328617160E+03  0.12509000000E+03 0.  0.
<mgrwt>
<rscale>  2 0.44720886E+03</rscale>
<asrwt>0</asrwt>
<pdfrwt beam="1">  1       21 0.97178288E-01 0.44720886E+03</pdfrwt>
<pdfrwt beam="2">  1       21 0.11126889E-01 0.44720886E+03</pdfrwt>
<totfact> 0.54212168E+04</totfact>
</mgrwt>
</event>
<event>
 7    0  0.4793433E-002  0.4719408E+03  0.7546771E-02  0.1021374E+00
         21   -1    0    0  502  501  0.00000000000E+00  0.00000000000E+00  0.23823756231E+02  0.23823756231E+02  0.00000000000E+00 0. -1.
         21   -1    0    0  501  502 -0.00000000000E+00 -0.00000000000E+00 -0.23372485133E+04  0.23372485133E+04  0.00000000000E+00 0. -1.
      99926    2    1    2    0    0  0.00000000000E+00  0.00000000000E+00 -0.23134247570E+04  0.23610722695E+04  0.47194083880E+03 0.  0.
      99925    2    3    3    0    0  0.78256119014E+02  0.86860731935E+02 -0.17003370518E+04  0.17245246677E+04  0.26300272422E+03 0.  0.
         25    1    3    3    0    0 -0.78256119014E+02 -0.86860731935E+02 -0.61308770529E+03  0.63654760183E+03  0.12509000000E+03 0.  0.
         25    1    4    4    0    0  0.54728635498E+02  0.89740194695E+01 -0.71860654584E+03  0.73151803286E+03  0.12509000000E+03 0.  0.
         25    1    4    4    0    0  0.23527483516E+02  0.77886712466E+02 -0.98173050591E+03  0.99300663482E+03  0.12509000000E+03 0.  0.
<mgrwt>
<rscale>  2 0.47194084E+03</rscale>
<asrwt>0</asrwt>
<pdfrwt beam="1">  1       21 0.35034927E-02 0.47194084E+03</pdfrwt>
<pdfrwt beam="2">  1       21 0.34371311E+00 0.47194084E+03</pdfrwt>
<totfact> 0.76078696E+03</totfact>
</mgrwt>
</event>
<event>
 6    0  0.6550342E-002  0.4247339E+03  0.7546771E-02  0.1035537E+00
         21   -1    0    0  502  501  0.00000000000E+00  0.00000000000E+00  0.26002144202E+03  0.26002144202E+03  0.00000000000E+00 0. -1.
         21   -1    0    0  501  502 -0.00000000000E+00 -0.00000000000E+00 -0.17344617875E+03  0.17344617875E+03  0.00000000000E+00 0. -1.
      99926    2    1    2    0    0  0.00000000000E+00  0.00000000000E+00  0.86575263272E+02  0.43346762077E+03  0.42473391912E+03 0.  0.
         25    1    3    3    0    0  0.36140972611E+01  0.61117940911E+02  0.54391781593E+02  0.14951400739E+03  0.12509000000E+03 0.  0.
         25    1    3    3    0    0  0.43365218660E+02 -0.61452787267E+02  0.35786596315E+02  0.15028365123E+03  0.12509000000E+03 0.  0.
         25    1    3    3    0    0 -0.46979315922E+02  0.33484635606E+00 -0.36031146372E+01  0.13366996215E+03  0.12509000000E+03 0.  0.
<mgrwt>
<rscale>  2 0.42473392E+03</rscale>
<asrwt>0</asrwt>
<pdfrwt beam="1">  1       21 0.38238447E-01 0.42473392E+03</pdfrwt>
<pdfrwt beam="2">  1       21 0.25506791E-01 0.42473392E+03</pdfrwt>
<totfact> 0.89984776E+04</totfact>
</mgrwt>
</event>
<event>
 7    0  0.4793433E-002  0.4573839E+03  0.7546771E-02  0.1025543E+00
         21   -1    0    0  502  501  0.00000000000E+00  0.00000000000E+00  0.20385635637E+03  0.20385635637E+03  0.00000000000E+00 0.  1.
         21   -1    0    0  501  502 -0.00000000000E+00 -0.00000000000E+00 -0.25655329161E+03  0.25655329161E+03  0.00000000000E+00 0.  1.
      99926    2    1    2    0    0 -0.14210854715E-13  0.00000000000E+00 -0.52696935244E+02  0.46040964798E+03  0.45738394918E+03 0.  0.
      99925    2    3    3    0    0  0.10334794668E+03 -0.12887144587E+02 -0.82763981068E+02  0.29488499143E+03  0.26317371645E+03 0.  0.
         25    1    3    3    0    0 -0.10334794668E+03  0.12887144587E+02  0.30067045824E+02  0.16552465654E+03  0.12509000000E+03 0.  0.
         25    1    4    4    0    0  0.37642445431E+02 -0.30436269179E+02 -0.71655321020E+02  0.15207009341E+03  0.12509000000E+03 0.  0.
         25    1    4    4    0    0  0.65705501253E+02  0.17549124592E+02 -0.11108660048E+02  0.14281489802E+03  0.12509000000E+03 0.  0.
<mgrwt>
<rscale>  2 0.45738395E+03</rscale>
<asrwt>0</asrwt>
<pdfrwt beam="1">  1       21 0.29978876E-01 0.45738395E+03</pdfrwt>
<pdfrwt beam="2">  1       21 0.37728425E-01 0.45738395E+03</pdfrwt>
<totfact> 0.66870240E+04</totfact>
</mgrwt>
</event>
<event>
 7    0  0.4793433E-002  0.4593836E+03  0.7546771E-02  0.1024960E+00
         21   -1    0    0  502  501  0.00000000000E+00  0.00000000000E+00  0.21738368422E+03  0.21738368422E+03  0.00000000000E+00 0. -1.
         21   -1    0    0  501  502 -0.00000000000E+00 -0.00000000000E+00 -0.24269681262E+03  0.24269681262E+03  0.00000000000E+00 0. -1.
      99926    2    1    2    0    0  0.00000000000E+00  0.00000000000E+00 -0.25313128394E+02  0.46008049684E+03  0.45938361867E+03 0.  0.
      99925    2    3    3    0    0  0.11386903934E+03  0.16223754128E+02 -0.38477220075E+02  0.28963939344E+03  0.26302302836E+03 0.  0.
         25    1    3    3    0    0 -0.11386903934E+03 -0.16223754128E+02  0.13164091682E+02  0.17044110340E+03  0.12509000000E+03 0.  0.
         25    1    4    4    0    0  0.64689385203E+02 -0.28155774879E+02 -0.36057117390E+02  0.14807122621E+03  0.12509000000E+03 0.  0.
         25    1    4    4    0    0  0.49179654138E+02  0.44379529006E+02 -0.24201026848E+01  0.14156816723E+03  0.12509000000E+03 0.  0.
<mgrwt>
<rscale>  2 0.45938362E+03</rscale>
<asrwt>0</asrwt>
<pdfrwt beam="1">  1       21 0.31968189E-01 0.45938362E+03</pdfrwt>
<pdfrwt beam="2">  1       21 0.35690708E-01 0.45938362E+03</pdfrwt>
<totfact> 0.65842008E+04</totfact>
</mgrwt>
</event>
<event>
 7    0  0.4793433E-002  0.4635952E+03  0.7546771E-02  0.1023744E+00
         21   -1    0    0  502  501  0.00000000000E+00  0.00000000000E+00  0.23354790875E+03  0.23354790875E+03  0.00000000000E+00 0.  1.
         21   -1    0    0  501  502 -0.00000000000E+00 -0.00000000000E+00 -0.23006043911E+03  0.23006043911E+03  0.00000000000E+00 0.  1.
      99926    2    1    2    0    0  0.00000000000E+00  0.00000000000E+00  0.34874696431E+01  0.46360834785E+03  0.46359523051E+03 0.  0.
      99925    2    3    3    0    0  0.10133940425E+03  0.11477958406E+02 -0.63160851356E+02  0.28899183897E+03  0.26291742328E+03 0.  0.
         25    1    3    3    0    0 -0.10133940425E+03 -0.11477958406E+02  0.66648320999E+02  0.17461650889E+03  0.12509000000E+03 0.  0.
         25    1    4    4    0    0  0.11166994467E+02 -0.39415864763E+01 -0.14092490039E+02  0.12643711577E+03  0.12509000000E+03 0.  0.
         25    1    4    4    0    0  0.90172409786E+02  0.15419544882E+02 -0.49068361317E+02  0.16255472320E+03  0.12509000000E+03 0.  0.
<mgrwt>
<rscale>  2 0.46359523E+03</rscale>
<asrwt>0</asrwt>
<pdfrwt beam="1">  1       21 0.34345281E-01 0.46359523E+03</pdfrwt>
<pdfrwt beam="2">  1       21 0.33832417E-01 0.46359523E+03</pdfrwt>
<totfact> 0.63454951E+04</totfact>
</mgrwt>
</event>
<event>
 7    0  0.4793433E-002  0.4550038E+03  0.7546771E-02  0.1026240E+00
         21   -1    0    0  502  501  0.00000000000E+00  0.00000000000E+00  0.15020537868E+03  0.15020537868E+03  0.00000000000E+00 0. -1.
         21   -1    0    0  501  502 -0.00000000000E+00 -0.00000000000E+00 -0.34457565939E+03  0.34457565939E+03  0.00000000000E+00 0. -1.
      99926    2    1    2    0    0 -0.35527136788E-14  0.00000000000E+00 -0.19437028071E+03  0.49478103807E+03  0.45500381274E+03 0.  0.
      99925    2    3    3    0    0 -0.19361178960E+02  0.75842467830E+02 -0.21115268409E+03  0.34626810146E+03  0.26303841338E+03 0.  0.
         25    1    4    4    0    0 -0.41363770957E+02  0.59456134475E+02 -0.91955731559E+02  0.17131654369E+03  0.12509000000E+03 0.  0.
         25    1    3    3    0    0  0.19361178960E+02 -0.75842467830E+02  0.16782403380E+02  0.14851293661E+03  0.12509000000E+03 0.  0.
         25    1    4    4    0    0  0.22002591997E+02  0.16386333354E+02 -0.11919695253E+03  0.17495155777E+03  0.12509000000E+03 0.  0.
<mgrwt>
<rscale>  2 0.45500381E+03</rscale>
<asrwt>0</asrwt>
<pdfrwt beam="1">  1       21 0.22089027E-01 0.45500381E+03</pdfrwt>
<pdfrwt beam="2">  1       21 0.50672891E-01 0.45500381E+03</pdfrwt>
<totfact> 0.65636894E+04</totfact>
</mgrwt>
</event>
<event>
 7    0  0.4793433E-002  0.4522817E+03  0.7546771E-02  0.1027044E+00
         21   -1    0    0  502  501  0.00000000000E+00  0.00000000000E+00  0.76940394651E+02  0.76940394651E+02  0.00000000000E+00 0.  1.
         21   -1    0    0  501  502 -0.00000000000E+00 -0.00000000000E+00 -0.66466621477E+03  0.66466621477E+03  0.00000000000E+00 0.  1.
      99926    2    1    2    0    0  0.00000000000E+00  0.00000000000E+00 -0.58772582012E+03  0.74160660942E+03  0.45228168601E+03 0.  0.
      99925    2    3    3    0    0  0.74271335565E+02 -0.27023482180E+02 -0.49755320067E+03  0.56832905960E+03  0.26304416475E+03 0.  0.
         25    1    3    3    0    0 -0.74271335565E+02  0.27023482180E+02 -0.90172619451E+02  0.17327754983E+03  0.12509000000E+03 0.  0.
         25    1    4    4    0    0  0.26649015326E+01 -0.17085890889E+02 -0.18489160606E+03  0.22390052134E+03  0.12509000000E+03 0.  0.
         25    1    4    4    0    0  0.71606434032E+02 -0.99375912910E+01 -0.31266159462E+03  0.34442853825E+03  0.12509000000E+03 0.  0.
<mgrwt>
<rscale>  2 0.45228169E+03</rscale>
<asrwt>0</asrwt>
<pdfrwt beam="1">  1       21 0.11314763E-01 0.45228169E+03</pdfrwt>
<pdfrwt beam="2">  1       21 0.97745037E-01 0.45228169E+03</pdfrwt>
<totfact> 0.51799580E+04</totfact>
</mgrwt>
</event>
<event>
 7    0  0.4793433E-002  0.4568037E+03  0.7546771E-02  0.1025712E+00
         21   -1    0    0  502  501  0.00000000000E+00  0.00000000000E+00  0.16524021327E+03  0.16524021327E+03  0.00000000000E+00 0. -1.
         21   -1    0    0  501  502 -0.00000000000E+00 -0.00000000000E+00 -0.31570649501E+03  0.31570649501E+03  0.00000000000E+00 0. -1.
      99926    2    1    2    0    0  0.00000000000E+00  0.00000000000E+00 -0.15046628174E+03  0.48094670829E+03  0.45680371526E+03 0.  0.
      99925    2    3    3    0    0 -0.43482322258E+02  0.57760143760E+02 -0.61375247229E+00  0.27278754999E+03  0.26303179310E+03 0.  0.
         25    1    4    4    0    0  0.11078623282E+02  0.26504792292E+01 -0.62500706868E+00  0.12560915439E+03  0.12509000000E+03 0.  0.
         25    1    3    3    0    0  0.43482322258E+02 -0.57760143760E+02 -0.14985252926E+03  0.20815915830E+03  0.12509000000E+03 0.  0.
         25    1    4    4    0    0 -0.54560945540E+02  0.55109664530E+02  0.11254596386E-01  0.14717839559E+03  0.12509000000E+03 0.  0.
<mgrwt>
<rscale>  2 0.45680372E+03</rscale>
<asrwt>0</asrwt>
<pdfrwt beam="1">  1       21 0.24300032E-01 0.45680372E+03</pdfrwt>
<pdfrwt beam="2">  1       21 0.46427425E-01 0.45680372E+03</pdfrwt>
<totfact> 0.65685786E+04</totfact>
</mgrwt>
</event>
<event>
 7    0  0.4793433E-002  0.4580333E+03  0.7546771E-02  0.1025353E+00
         21   -1    0    0  502  501  0.00000000000E+00  0.00000000000E+00  0.13043528266E+04  0.13043528266E+04  0.00000000000E+00 0.  1.
         21   -1    0    0  501  502 -0.00000000000E+00 -0.00000000000E+00 -0.40210462739E+02  0.40210462739E+02  0.00000000000E+00 0.  1.
      99926    2    1    2    0    0  0.00000000000E+00  0.00000000000E+00  0.12641423639E+04  0.13445632894E+04  0.45803332077E+03 0.  0.
      99925    2    3    3    0    0 -0.24147230886E+02 -0.95032277612E+02  0.61096823076E+03  0.67232956600E+03  0.26292706930E+03 0.  0.
         25    1    3    3    0    0  0.24147230886E+02  0.95032277612E+02  0.65317413315E+03  0.67223372339E+03  0.12509000000E+03 0.  0.
         25    1    4    4    0    0 -0.55146421565E+01 -0.49740133268E+02  0.21044202197E+03  0.24987565877E+03  0.12509000000E+03 0.  0.
         25    1    4    4    0    0 -0.18632588730E+02 -0.45292144345E+02  0.40052620880E+03  0.42245390723E+03  0.12509000000E+03 0.  0.
<mgrwt>
<rscale>  2 0.45803332E+03</rscale>
<asrwt>0</asrwt>
<pdfrwt beam="1">  1       21 0.19181656E+00 0.45803332E+03</pdfrwt>
<pdfrwt beam="2">  1       21 0.59133042E-02 0.45803332E+03</pdfrwt>
<totfact> 0.27200343E+04</totfact>
</mgrwt>
</event>
<event>
 7    0  0.4793433E-002  0.4616007E+03  0.7546771E-02  0.1024318E+00
         21   -1    0    0  502  501  0.00000000000E+00  0.00000000000E+00  0.38269635655E+02  0.38269635655E+02  0.00000000000E+00 0. -1.
         21   -1    0    0  501  502 -0.00000000000E+00 -0.00000000000E+00 -0.13919336110E+04  0.13919336110E+04  0.00000000000E+00 0. -1.
      99926    2    1    2    0    0  0.00000000000E+00  0.00000000000E+00 -0.13536639753E+04  0.14302032466E+04  0.46160065922E+03 0.  0.
      99925    2    3    3    0    0  0.98655947673E+02 -0.30145276527E+02 -0.66200106256E+03  0.71979010860E+03  0.26307918939E+03 0.  0.
         25    1    3    3    0    0 -0.98655947673E+02  0.30145276527E+02 -0.69166291273E+03  0.71041313801E+03  0.12509000000E+03 0.  0.
         25    1    4    4    0    0  0.20174411159E+02 -0.18200564802E+02 -0.23184723520E+03  0.26483752754E+03  0.12509000000E+03 0.  0.
         25    1    4    4    0    0  0.78481536515E+02 -0.11944711725E+02 -0.43015382737E+03  0.45495258106E+03  0.12509000000E+03 0.  0.
<mgrwt>
<rscale>  2 0.46160066E+03</rscale>
<asrwt>0</asrwt>
<pdfrwt beam="1">  1       21 0.56278879E-02 0.46160066E+03</pdfrwt>
<pdfrwt beam="2">  1       21 0.20469611E+00 0.46160066E+03</pdfrwt>
<totfact> 0.24269369E+04</totfact>
</mgrwt>
</event>
<event>
 7    0  0.4793433E-002  0.4151045E+03  0.7546771E-02  0.1038671E+00
         21   -1    0    0  502  501  0.00000000000E+00  0.00000000000E+00  0.13308600492E+04  0.13308600492E+04  0.00000000000E+00 0. -1.
         21   -1    0    0  501  502 -0.00000000000E+00 -0.00000000000E+00 -0.32368492214E+02  0.32368492214E+02  0.00000000000E+00 0. -1.
      99926    2    1    2    0    0  0.00000000000E+00  0.00000000000E+00  0.12984915570E+04  0.13632285414E+04  0.41510448390E+03 0.  0.
      99925    2    3    3    0    0 -0.59522106460E+02 -0.35710842183E+02  0.84779542826E+03  0.89037269239E+03  0.26303668521E+03 0.  0.
         25    1    4    4    0    0 -0.15024825311E+02 -0.43162535701E+02  0.33209580453E+03  0.35780425004E+03  0.12509000000E+03 0.  0.
         25    1    3    3    0    0  0.59522106460E+02  0.35710842183E+02  0.45069612871E+03  0.47285584901E+03  0.12509000000E+03 0.  0.
         25    1    4    4    0    0 -0.44497281149E+02  0.74516935186E+01  0.51569962373E+03  0.53256844234E+03  0.12509000000E+03 0.  0.
<mgrwt>
<rscale>  2 0.41510448E+03</rscale>
<asrwt>0</asrwt>
<pdfrwt beam="1">  1       21 0.19571468E+00 0.41510448E+03</pdfrwt>
<pdfrwt beam="2">  1       21 0.47600733E-02 0.41510448E+03</pdfrwt>
<totfact> 0.37746486E+04</totfact>
</mgrwt>
</event>
<event>
 7    0  0.4793433E-002  0.4485367E+03  0.7546771E-02  0.1028159E+00
         21   -1    0    0  502  501  0.00000000000E+00  0.00000000000E+00  0.49403057287E+02  0.49403057287E+02  0.00000000000E+00 0. -1.
         21   -1    0    0  501  502 -0.00000000000E+00 -0.00000000000E+00 -0.10180804918E+04  0.10180804918E+04  0.00000000000E+00 0. -1.
      99926    2    1    2    0    0 -0.35527136788E-14  0.00000000000E+00 -0.96867743448E+03  0.10674835490E+04  0.44853668237E+03 0.  0.
      99925    2    3    3    0    0 -0.17293689347E+02  0.46221134027E+02 -0.38939751057E+03  0.47280026926E+03  0.26357960553E+03 0.  0.
         25    1    4    4    0    0 -0.34870260217E+02  0.42052545828E+02 -0.24851487819E+03  0.28353395642E+03  0.12509000000E+03 0.  0.
         25    1    4    4    0    0  0.17576570870E+02  0.41685881996E+01 -0.14088263237E+03  0.18926631284E+03  0.12509000000E+03 0.  0.
         25    1    3    3    0    0  0.17293689347E+02 -0.46221134027E+02 -0.57927992391E+03  0.59468327979E+03  0.12509000000E+03 0.  0.
<mgrwt>
<rscale>  2 0.44853668E+03</rscale>
<asrwt>0</asrwt>
<pdfrwt beam="1">  1       21 0.72651560E-02 0.44853668E+03</pdfrwt>
<pdfrwt beam="2">  1       21 0.14971771E+00 0.44853668E+03</pdfrwt>
<totfact> 0.38550352E+04</totfact>
</mgrwt>
</event>
<event>
 7    0  0.4793433E-002  0.4252809E+03  0.7546771E-02  0.1035361E+00
         21   -1    0    0  502  501  0.00000000000E+00  0.00000000000E+00  0.66651279685E+03  0.66651279685E+03  0.00000000000E+00 0. -1.
         21   -1    0    0  501  502 -0.00000000000E+00 -0.00000000000E+00 -0.67839602597E+02  0.67839602597E+02  0.00000000000E+00 0. -1.
      99926    2    1    2    0    0  0.00000000000E+00 -0.14210854715E-13  0.59867319425E+03  0.73435239945E+03  0.42528091076E+03 0.  0.
      99925    2    3    3    0    0  0.49307517040E+02  0.65783753196E+02  0.38230080138E+03  0.47124927533E+03  0.26298905556E+03 0.  0.
         25    1    4    4    0    0  0.26564483546E+02  0.33777720557E+02  0.26116180226E+03  0.29274494232E+03  0.12509000000E+03 0.  0.
         25    1    3    3    0    0 -0.49307517040E+02 -0.65783753196E+02  0.21637239287E+03  0.26310312411E+03  0.12509000000E+03 0.  0.
         25    1    4    4    0    0  0.22743033494E+02  0.32006032639E+02  0.12113899912E+03  0.17850433302E+03  0.12509000000E+03 0.  0.
<mgrwt>
<rscale>  2 0.42528091E+03</rscale>
<asrwt>0</asrwt>
<pdfrwt beam="1">  1       21 0.98016585E-01 0.42528091E+03</pdfrwt>
<pdfrwt beam="2">  1       21 0.99764125E-02 0.42528091E+03</pdfrwt>
<totfact> 0.64981714E+04</totfact>
</mgrwt>
</event>
<event>
 7    0  0.4793433E-002  0.4673445E+03  0.7546771E-02  0.1022672E+00
         21   -1    0    0  502  501  0.00000000000E+00  0.00000000000E+00  0.17203155907E+03  0.17203155907E+03  0.00000000000E+00 0.  1.
         21   -1    0    0  501  502 -0.00000000000E+00 -0.00000000000E+00 -0.31739939788E+03  0.31739939788E+03  0.00000000000E+00 0.  1.
      99926    2    1    2    0    0  0.00000000000E+00  0.35527136788E-14 -0.14536783881E+03  0.48943095695E+03  0.46734446939E+03 0.  0.
      99925    2    3    3    0    0  0.32980683885E+02 -0.11678843192E+02  0.34585536214E+02  0.26749662845E+03  0.26293376738E+03 0.  0.
         25    1    4    4    0    0  0.21601070653E+02 -0.42262395658E+02  0.34707686003E+02  0.13822028761E+03  0.12509000000E+03 0.  0.
         25    1    3    3    0    0 -0.32980683885E+02  0.11678843192E+02 -0.17995337502E+03  0.22193432851E+03  0.12509000000E+03 0.  0.
         25    1    4    4    0    0  0.11379613231E+02  0.30583552466E+02 -0.12214978904E+00  0.12927634083E+03  0.12509000000E+03 0.  0.
<mgrwt>
<rscale>  2 0.46734447E+03</rscale>
<asrwt>0</asrwt>
<pdfrwt beam="1">  1       21 0.25298759E-01 0.46734447E+03</pdfrwt>
<pdfrwt beam="2">  1       21 0.46676381E-01 0.46734447E+03</pdfrwt>
<totfact> 0.59928620E+04</totfact>
</mgrwt>
</event>
<event>
 7    0  0.4793433E-002  0.4498532E+03  0.7546771E-02  0.1027766E+00
         21   -1    0    0  502  501  0.00000000000E+00  0.00000000000E+00  0.11221472049E+03  0.11221472049E+03  0.00000000000E+00 0. -1.
         21   -1    0    0  501  502 -0.00000000000E+00 -0.00000000000E+00 -0.45084964529E+03  0.45084964529E+03  0.00000000000E+00 0. -1.
      99926    2    1    2    0    0  0.00000000000E+00  0.00000000000E+00 -0.33863492480E+03  0.56306436578E+03  0.44985316240E+03 0.  0.
      99925    2    3    3    0    0 -0.32629690565E+02 -0.28381498502E+02 -0.33845579916E+03  0.43070974233E+03  0.26284662445E+03 0.  0.
         25    1    4    4    0    0 -0.55770521060E+02 -0.74854104681E+01 -0.18466529866E+03  0.23003296072E+03  0.12509000000E+03 0.  0.
         25    1    4    4    0    0  0.23140830496E+02 -0.20896088034E+02 -0.15379050050E+03  0.20067678160E+03  0.12509000000E+03 0.  0.
         25    1    3    3    0    0  0.32629690565E+02  0.28381498502E+02 -0.17912563955E+00  0.13235462345E+03  0.12509000000E+03 0.  0.
<mgrwt>
<rscale>  2 0.44985316E+03</rscale>
<asrwt>0</asrwt>
<pdfrwt beam="1">  1       21 0.16502165E-01 0.44985316E+03</pdfrwt>
<pdfrwt beam="2">  1       21 0.66301418E-01 0.44985316E+03</pdfrwt>
<totfact> 0.63559457E+04</totfact>
</mgrwt>
</event>
<event>
 7    0  0.4793433E-002  0.4510891E+03  0.7546771E-02  0.1027398E+00
         21   -1    0    0  502  501  0.00000000000E+00  0.00000000000E+00  0.91823388890E+03  0.91823388890E+03  0.00000000000E+00 0.  1.
         21   -1    0    0  501  502 -0.00000000000E+00 -0.00000000000E+00 -0.55400210184E+02  0.55400210184E+02  0.00000000000E+00 0.  1.
      99926    2    1    2    0    0 -0.35527136788E-14 -0.14210854715E-13  0.86283367871E+03  0.97363409908E+03  0.45108912841E+03 0.  0.
      99925    2    3    3    0    0 -0.22618563588E+02 -0.10629514481E+03  0.51625490032E+03  0.58947968356E+03  0.26297702941E+03 0.  0.
         25    1    4    4    0    0 -0.44472516001E+02 -0.71921845995E+02  0.24081118662E+03  0.28423246175E+03  0.12509000000E+03 0.  0.
         25    1    4    4    0    0  0.21853952413E+02 -0.34373298817E+02  0.27544371370E+03  0.30524722181E+03  0.12509000000E+03 0.  0.
         25    1    3    3    0    0  0.22618563588E+02  0.10629514481E+03  0.34657877840E+03  0.38415441552E+03  0.12509000000E+03 0.  0.
<mgrwt>
<rscale>  2 0.45108913E+03</rscale>
<asrwt>0</asrwt>
<pdfrwt beam="1">  1       21 0.13503439E+00 0.45108913E+03</pdfrwt>
<pdfrwt beam="2">  1       21 0.81470903E-02 0.45108913E+03</pdfrwt>
<totfact> 0.41451170E+04</totfact>
</mgrwt>
</event>
<event>
 6    0  0.4793433E-002  0.4417676E+03  0.7546771E-02  0.1030206E+00
         21   -1    0    0  502  501  0.00000000000E+00  0.00000000000E+00  0.42812030517E+02  0.42812030517E+02  0.00000000000E+00 0. -1.
         21   -1    0    0  501  502 -0.00000000000E+00 -0.00000000000E+00 -0.11396250878E+04  0.11396250878E+04  0.00000000000E+00 0. -1.
      99926    2    1    2    0    0  0.00000000000E+00  0.00000000000E+00 -0.10968130573E+04  0.11824371183E+04  0.44176764950E+03 0.  0.
         25    1    3    3    0    0 -0.64106748206E+02 -0.59638705520E+02 -0.40413676579E+03  0.43201907820E+03  0.12509000000E+03 0.  0.
         25    1    3    3    0    0 -0.16963600426E+02  0.39749524314E+02 -0.40067880929E+03  0.42197014674E+03  0.12509000000E+03 0.  0.
         25    1    3    3    0    0  0.81070348632E+02  0.19889181206E+02 -0.29199748221E+03  0.32844789339E+03  0.12509000000E+03 0.  0.
<mgrwt>
<rscale>  2 0.44176765E+03</rscale>
<asrwt>0</asrwt>
<pdfrwt beam="1">  1       21 0.62958857E-02 0.44176765E+03</pdfrwt>
<pdfrwt beam="2">  1       21 0.16759196E+00 0.44176765E+03</pdfrwt>
<totfact> 0.36320042E+04</totfact>
</mgrwt>
</event>
<event>
 7    0  0.4793433E-002  0.4547576E+03  0.7546771E-02  0.1026313E+00
         21   -1    0    0  502  501  0.00000000000E+00  0.00000000000E+00  0.12609386551E+03  0.12609386551E+03  0.00000000000E+00 0. -1.
         21   -1    0    0  501  502 -0.00000000000E+00 -0.00000000000E+00 -0.41002083953E+03  0.41002083953E+03  0.00000000000E+00 0. -1.
      99926    2    1    2    0    0  0.00000000000E+00 -0.53290705182E-14 -0.28392697402E+03  0.53611470504E+03  0.45475757321E+03 0.  0.
      99925    2    3    3    0    0  0.11193030832E+03 -0.11525945929E+02 -0.18950804923E+03  0.34318030477E+03  0.26305546850E+03 0.  0.
         25    1    4    4    0    0  0.49579913664E+02  0.32087957451E+02 -0.75350348293E+02  0.15752138883E+03  0.12509000000E+03 0.  0.
         25    1    3    3    0    0 -0.11193030832E+03  0.11525945929E+02 -0.94418924785E+02  0.19293440027E+03  0.12509000000E+03 0.  0.
         25    1    4    4    0    0  0.62350394661E+02 -0.43613903380E+02 -0.11415770094E+03  0.18565891594E+03  0.12509000000E+03 0.  0.
<mgrwt>
<rscale>  2 0.45475757E+03</rscale>
<asrwt>0</asrwt>
<pdfrwt beam="1">  1       21 0.18543216E-01 0.45475757E+03</pdfrwt>
<pdfrwt beam="2">  1       21 0.60297182E-01 0.45475757E+03</pdfrwt>
<totfact> 0.62914123E+04</totfact>
</mgrwt>
</event>
<event>
 7    0  0.4793433E-002  0.4557418E+03  0.7546771E-02  0.1026023E+00
         21   -1    0    0  502  501  0.00000000000E+00  0.00000000000E+00  0.30025469419E+03  0.30025469419E+03  0.00000000000E+00 0. -1.
         21   -1    0    0  501  502 -0.00000000000E+00 -0.00000000000E+00 -0.17293697866E+03  0.17293697866E+03  0.00000000000E+00 0. -1.
      99926    2    1    2    0    0 -0.14210854715E-13 -0.13322676296E-14  0.12731771553E+03  0.47319167285E+03  0.45574176741E+03 0.  0.
      99925    2    3    3    0    0  0.11018878643E+03 -0.12338878138E+01  0.50364289639E+02  0.28958222595E+03  0.26301751421E+03 0.  0.
         25    1    3    3    0    0 -0.11018878643E+03  0.12338878138E+01  0.76953425892E+02  0.18360944690E+03  0.12509000000E+03 0.  0.
         25    1    4    4    0    0  0.81277739859E+02  0.19373582394E+02  0.53090541538E+02  0.15952278957E+03  0.12509000000E+03 0.  0.
         25    1    4    4    0    0  0.28911046568E+02 -0.20607470207E+02 -0.27262518992E+01  0.13005943638E+03  0.12509000000E+03 0.  0.
<mgrwt>
<rscale>  2 0.45574177E+03</rscale>
<asrwt>0</asrwt>
<pdfrwt beam="1">  1       21 0.44155102E-01 0.45574177E+03</pdfrwt>
<pdfrwt beam="2">  1       21 0.25431909E-01 0.45574177E+03</pdfrwt>
<totfact> 0.66805112E+04</totfact>
</mgrwt>
</event>
<event>
 6    0  0.4793433E-002  0.4496862E+03  0.7546771E-02  0.1027816E+00
         21   -1    0    0  502  501  0.00000000000E+00  0.00000000000E+00  0.14847492951E+02  0.14847492951E+02  0.00000000000E+00 0. -1.
         21   -1    0    0  501  502 -0.00000000000E+00 -0.00000000000E+00 -0.34049123139E+04  0.34049123139E+04  0.00000000000E+00 0. -1.
      99926    2    1    2    0    0  0.00000000000E+00  0.00000000000E+00 -0.33900648209E+04  0.34197598068E+04  0.44968616425E+03 0.  0.
         25    1    3    3    0    0  0.80362828778E+02  0.49963467552E+01 -0.97802622333E+03  0.98927546687E+03  0.12509000000E+03 0.  0.
         25    1    3    3    0    0 -0.11146127854E+03  0.83826989282E+01 -0.14809127445E+04  0.14903838268E+04  0.12509000000E+03 0.  0.
         25    1    3    3    0    0  0.31098449765E+02 -0.13379045683E+02 -0.93112585304E+03  0.94010051311E+03  0.12509000000E+03 0.  0.
<mgrwt>
<rscale>  2 0.44968616E+03</rscale>
<asrwt>0</asrwt>
<pdfrwt beam="1">  1       21 0.21834533E-02 0.44968616E+03</pdfrwt>
<pdfrwt beam="2">  1       21 0.50072275E+00 0.44968616E+03</pdfrwt>
<totfact> 0.15714604E+03</totfact>
</mgrwt>
</event>
<event>
 7    0  0.4793433E-002  0.4067404E+03  0.7546771E-02  0.1041470E+00
         21   -1    0    0  502  501  0.00000000000E+00  0.00000000000E+00  0.22285255517E+04  0.22285255517E+04  0.00000000000E+00 0.  1.
         21   -1    0    0  501  502 -0.00000000000E+00 -0.00000000000E+00 -0.18559106188E+02  0.18559106188E+02  0.00000000000E+00 0.  1.
      99926    2    1    2    0    0  0.00000000000E+00 -0.35527136788E-14  0.22099664455E+04  0.22470846578E+04  0.40674042020E+03 0.  0.
      99925    2    3    3    0    0  0.43790262335E+02 -0.27327334121E+02  0.13458852201E+04  0.13724714620E+04  0.26383047203E+03 0.  0.
         25    1    4    4    0    0  0.61619385476E+02 -0.16918133471E+02  0.63269907844E+03  0.64810400698E+03  0.12509000000E+03 0.  0.
         25    1    3    3    0    0 -0.43790262335E+02  0.27327334121E+02  0.86408122535E+03  0.87461319585E+03  0.12509000000E+03 0.  0.
         25    1    4    4    0    0 -0.17829123141E+02 -0.10409200650E+02  0.71318614168E+03  0.72436745501E+03  0.12509000000E+03 0.  0.
<mgrwt>
<rscale>  2 0.40674042E+03</rscale>
<asrwt>0</asrwt>
<pdfrwt beam="1">  1       21 0.32772416E+00 0.40674042E+03</pdfrwt>
<pdfrwt beam="2">  1       21 0.27292819E-02 0.40674042E+03</pdfrwt>
<totfact> 0.14946273E+04</totfact>
</mgrwt>
</event>
<event>
 7    0  0.4793433E-002  0.4369764E+03  0.7546771E-02  0.1031679E+00
         21   -1    0    0  502  501  0.00000000000E+00  0.00000000000E+00  0.75695092235E+03  0.75695092235E+03  0.00000000000E+00 0.  1.
         21   -1    0    0  501  502 -0.00000000000E+00 -0.00000000000E+00 -0.63064986053E+02  0.63064986053E+02  0.00000000000E+00 0.  1.
      99926    2    1    2    0    0  0.00000000000E+00  0.00000000000E+00  0.69388593629E+03  0.82001590840E+03  0.43697642664E+03 0.  0.
      99925    2    3    3    0    0  0.77413896319E+02  0.26953975067E+02  0.53510259585E+03  0.60188960229E+03  0.26309100544E+03 0.  0.
         25    1    4    4    0    0  0.41358775757E+02  0.27303018677E+02  0.18808250124E+03  0.23125427247E+03  0.12509000000E+03 0.  0.
         25    1    4    4    0    0  0.36055120562E+02 -0.34904361034E+00  0.34702009461E+03  0.37063532982E+03  0.12509000000E+03 0.  0.
         25    1    3    3    0    0 -0.77413896319E+02 -0.26953975067E+02  0.15878334045E+03  0.21812630611E+03  0.12509000000E+03 0.  0.
<mgrwt>
<rscale>  2 0.43697643E+03</rscale>
<asrwt>0</asrwt>
<pdfrwt beam="1">  1       21 0.11131631E+00 0.43697643E+03</pdfrwt>
<pdfrwt beam="2">  1       21 0.92742631E-02 0.43697643E+03</pdfrwt>
<totfact> 0.54061514E+04</totfact>
</mgrwt>
</event>
<event>
 7    0  0.4793433E-002  0.4264679E+03  0.7546771E-02  0.1034982E+00
         21   -1    0    0  502  501  0.00000000000E+00  0.00000000000E+00  0.12334521044E+03  0.12334521044E+03  0.00000000000E+00 0. -1.
         21   -1    0    0  501  502 -0.00000000000E+00 -0.00000000000E+00 -0.36862984430E+03  0.36862984430E+03  0.00000000000E+00 0. -1.
      99926    2    1    2    0    0  0.00000000000E+00 -0.17763568394E-14 -0.24528463386E+03  0.49197505473E+03  0.42646793886E+03 0.  0.
      99925    2    3    3    0    0 -0.82460544661E+02  0.15971119614E+02 -0.15752600695E+03  0.31760790535E+03  0.26268901878E+03 0.  0.
         25    1    4    4    0    0 -0.32546969655E+02  0.30329254895E+02 -0.11499566711E+03  0.17564361785E+03  0.12509000000E+03 0.  0.
         25    1    3    3    0    0  0.82460544661E+02 -0.15971119614E+02 -0.87758626914E+02  0.17436714939E+03  0.12509000000E+03 0.  0.
         25    1    4    4    0    0 -0.49913575006E+02 -0.14358135281E+02 -0.42530339835E+02  0.14196428750E+03  0.12509000000E+03 0.  0.
<mgrwt>
<rscale>  2 0.42646794E+03</rscale>
<asrwt>0</asrwt>
<pdfrwt beam="1">  1       21 0.18139002E-01 0.42646794E+03</pdfrwt>
<pdfrwt beam="2">  1       21 0.54210271E-01 0.42646794E+03</pdfrwt>
<totfact> 0.83121884E+04</totfact>
</mgrwt>
</event>
<event>
 7    0  0.4793433E-002  0.4511177E+03  0.7546771E-02  0.1027389E+00
         21   -1    0    0  502  501  0.00000000000E+00  0.00000000000E+00  0.84433419315E+02  0.84433419315E+02  0.00000000000E+00 0. -1.
         21   -1    0    0  501  502 -0.00000000000E+00 -0.00000000000E+00 -0.60256712795E+03  0.60256712795E+03  0.00000000000E+00 0. -1.
      99926    2    1    2    0    0  0.00000000000E+00  0.14210854715E-13 -0.51813370863E+03  0.68700054726E+03  0.45111773620E+03 0.  0.
      99925    2    3    3    0    0 -0.42897504394E+02  0.66909110866E+02 -0.44181273651E+03  0.52029894593E+03  0.26305032597E+03 0.  0.
         25    1    4    4    0    0 -0.43711807102E+02  0.19337978249E+02 -0.27952396149E+03  0.30994488644E+03  0.12509000000E+03 0.  0.
         25    1    4    4    0    0  0.81430270773E+00  0.47571132617E+02 -0.16228877503E+03  0.21035405950E+03  0.12509000000E+03 0.  0.
         25    1    3    3    0    0  0.42897504394E+02 -0.66909110866E+02 -0.76320972119E+02  0.16670160133E+03  0.12509000000E+03 0.  0.
<mgrwt>
<rscale>  2 0.45111774E+03</rscale>
<asrwt>0</asrwt>
<pdfrwt beam="1">  1       21 0.12416680E-01 0.45111774E+03</pdfrwt>
<pdfrwt beam="2">  1       21 0.88612810E-01 0.45111774E+03</pdfrwt>
<totfact> 0.55285028E+04</totfact>
</mgrwt>
</event>
<event>
 7    0  0.4793433E-002  0.4528469E+03  0.7546771E-02  0.1026876E+00
         21   -1    0    0  502  501  0.00000000000E+00  0.00000000000E+00  0.36559377823E+02  0.36559377823E+02  0.00000000000E+00 0.  1.
         21   -1    0    0  501  502 -0.00000000000E+00 -0.00000000000E+00 -0.14023097949E+04  0.14023097949E+04  0.00000000000E+00 0.  1.
      99926    2    1    2    0    0  0.00000000000E+00 -0.35527136788E-14 -0.13657504171E+04  0.14388691727E+04  0.45284687751E+03 0.  0.
      99925    2    3    3    0    0 -0.89260507401E+02 -0.25593828458E+02 -0.10547794048E+04  0.10910574984E+04  0.26310528259E+03 0.  0.
         25    1    4    4    0    0 -0.23091168337E+02 -0.47393628818E+02 -0.52662228632E+03  0.54383627928E+03  0.12509000000E+03 0.  0.
         25    1    3    3    0    0  0.89260507401E+02  0.25593828458E+02 -0.31097101223E+03  0.34781167431E+03  0.12509000000E+03 0.  0.
         25    1    4    4    0    0 -0.66169339064E+02  0.21799800360E+02 -0.52815711853E+03  0.54722121914E+03  0.12509000000E+03 0.  0.
<mgrwt>
<rscale>  2 0.45284688E+03</rscale>
<asrwt>0</asrwt>
<pdfrwt beam="1">  1       21 0.53763797E-02 0.45284688E+03</pdfrwt>
<pdfrwt beam="2">  1       21 0.20622201E+00 0.45284688E+03</pdfrwt>
<totfact> 0.25742361E+04</totfact>
</mgrwt>
</event>
<event>
 7    0  0.4793433E-002  0.4544887E+03  0.7546771E-02  0.1026392E+00
         21   -1    0    0  502  501  0.00000000000E+00  0.00000000000E+00  0.93178578933E+02  0.93178578933E+02  0.00000000000E+00 0. -1.
         21   -1    0    0  501  502 -0.00000000000E+00 -0.00000000000E+00 -0.55420461906E+03  0.55420461906E+03  0.00000000000E+00 0. -1.
      99926    2    1    2    0    0 -0.17763568394E-14 -0.14210854715E-13 -0.46102604012E+03  0.64738319799E+03  0.45448871864E+03 0.  0.
      99925    2    3    3    0    0  0.11898940729E+02 -0.10336346062E+03 -0.35203551048E+03  0.45154644599E+03  0.26294410522E+03 0.  0.
         25    1    4    4    0    0  0.43937064215E+02 -0.53246324372E+02 -0.15633030038E+03  0.21178363390E+03  0.12509000000E+03 0.  0.
         25    1    3    3    0    0 -0.11898940729E+02  0.10336346062E+03 -0.10899052964E+03  0.19583675200E+03  0.12509000000E+03 0.  0.
         25    1    4    4    0    0 -0.32038123486E+02 -0.50117136244E+02 -0.19570521010E+03  0.23976281209E+03  0.12509000000E+03 0.  0.
<mgrwt>
<rscale>  2 0.45448872E+03</rscale>
<asrwt>0</asrwt>
<pdfrwt beam="1">  1       21 0.13702732E-01 0.45448872E+03</pdfrwt>
<pdfrwt beam="2">  1       21 0.81500678E-01 0.45448872E+03</pdfrwt>
<totfact> 0.56078362E+04</totfact>
</mgrwt>
</event>
<event>
 7    0  0.4793433E-002  0.4540882E+03  0.7546771E-02  0.1026510E+00
         21   -1    0    0  502  501  0.00000000000E+00  0.00000000000E+00  0.29920197148E+03  0.29920197148E+03  0.00000000000E+00 0. -1.
         21   -1    0    0  501  502 -0.00000000000E+00 -0.00000000000E+00 -0.17228840357E+03  0.17228840357E+03  0.00000000000E+00 0. -1.
      99926    2    1    2    0    0 -0.71054273576E-14  0.00000000000E+00  0.12691356791E+03  0.47149037504E+03  0.45408822935E+03 0.  0.
      99925    2    3    3    0    0 -0.27747764597E+02 -0.94108704709E+02  0.13673805181E+03  0.31220944296E+03  0.26296588128E+03 0.  0.
         25    1    4    4    0    0  0.24005169093E+02 -0.61427506811E+02  0.68892365767E+02  0.15729988206E+03  0.12509000000E+03 0.  0.
         25    1    3    3    0    0  0.27747764597E+02  0.94108704709E+02 -0.98244839001E+01  0.15928093209E+03  0.12509000000E+03 0.  0.
         25    1    4    4    0    0 -0.51752933690E+02 -0.32681197898E+02  0.67845686045E+02  0.15490956089E+03  0.12509000000E+03 0.  0.
<mgrwt>
<rscale>  2 0.45408823E+03</rscale>
<asrwt>0</asrwt>
<pdfrwt beam="1">  1       21 0.44000290E-01 0.45408823E+03</pdfrwt>
<pdfrwt beam="2">  1       21 0.25336530E-01 0.45408823E+03</pdfrwt>
<totfact> 0.67814289E+04</totfact>
</mgrwt>
</event>
<event>
 7    0  0.4793433E-002  0.4627196E+03  0.7546771E-02  0.1023995E+00
         21   -1    0    0  502  501  0.00000000000E+00  0.00000000000E+00  0.11120595245E+04  0.11120595245E+04  0.00000000000E+00 0.  1.
         21   -1    0    0  501  502 -0.00000000000E+00 -0.00000000000E+00 -0.48133538053E+02  0.48133538053E+02  0.00000000000E+00 0.  1.
      99926    2    1    2    0    0  0.00000000000E+00  0.00000000000E+00  0.10639259865E+04  0.11601930626E+04  0.46271961031E+03 0.  0.
      99925    2    3    3    0    0 -0.22672828660E+02  0.67656979891E+02  0.42204706263E+03  0.50235753218E+03  0.26295977444E+03 0.  0.
         25    1    4    4    0    0 -0.39176497231E+02  0.47593049476E+02  0.17085465647E+03  0.22054187365E+03  0.12509000000E+03 0.  0.
         25    1    3    3    0    0  0.22672828660E+02 -0.67656979891E+02  0.64187892386E+03  0.65783553042E+03  0.12509000000E+03 0.  0.
         25    1    4    4    0    0  0.16503668571E+02  0.20063930415E+02  0.25119240616E+03  0.28181565853E+03  0.12509000000E+03 0.  0.
<mgrwt>
<rscale>  2 0.46271961E+03</rscale>
<asrwt>0</asrwt>
<pdfrwt beam="1">  1       21 0.16353815E+00 0.46271961E+03</pdfrwt>
<pdfrwt beam="2">  1       21 0.70784622E-02 0.46271961E+03</pdfrwt>
<totfact> 0.31505443E+04</totfact>
</mgrwt>
</event>
<event>
 7    0  0.4793433E-002  0.4535610E+03  0.7546771E-02  0.1026665E+00
         21   -1    0    0  502  501  0.00000000000E+00  0.00000000000E+00  0.87419140858E+02  0.87419140858E+02  0.00000000000E+00 0. -1.
         21   -1    0    0  501  502 -0.00000000000E+00 -0.00000000000E+00 -0.58830826307E+03  0.58830826307E+03  0.00000000000E+00 0. -1.
      99926    2    1    2    0    0  0.00000000000E+00  0.00000000000E+00 -0.50088912221E+03  0.67572740393E+03  0.45356103412E+03 0.  0.
      99925    2    3    3    0    0  0.78196516046E+02  0.54890741796E+02 -0.40213254283E+03  0.48991013151E+03  0.26300887114E+03 0.  0.
         25    1    4    4    0    0  0.22062406853E+02  0.61287826723E+02 -0.17815913252E+03  0.22722484922E+03  0.12509000000E+03 0.  0.
         25    1    4    4    0    0  0.56134109193E+02 -0.63970849268E+01 -0.22397341030E+03  0.26268528229E+03  0.12509000000E+03 0.  0.
         25    1    3    3    0    0 -0.78196516046E+02 -0.54890741796E+02 -0.98756579386E+02  0.18581727242E+03  0.12509000000E+03 0.  0.
<mgrwt>
<rscale>  2 0.45356103E+03</rscale>
<asrwt>0</asrwt>
<pdfrwt beam="1">  1       21 0.12855756E-01 0.45356103E+03</pdfrwt>
<pdfrwt beam="2">  1       21 0.86515920E-01 0.45356103E+03</pdfrwt>
<totfact> 0.54860407E+04</totfact>
</mgrwt>
</event>
<event>
 7    0  0.4793433E-002  0.4561094E+03  0.7546771E-02  0.1025916E+00
         21   -1    0    0  502  501  0.00000000000E+00  0.00000000000E+00  0.20627474250E+03  0.20627474250E+03  0.00000000000E+00 0. -1.
         21   -1    0    0  501  502 -0.00000000000E+00 -0.00000000000E+00 -0.25213433610E+03  0.25213433610E+03  0.00000000000E+00 0. -1.
      99926    2    1    2    0    0 -0.35527136788E-14  0.14210854715E-13 -0.45859593602E+02  0.45840907860E+03  0.45610939589E+03 0.  0.
      99925    2    3    3    0    0  0.17652241463E+02 -0.11261344748E+03 -0.36663074381E+02  0.28892316695E+03  0.26294300750E+03 0.  0.
         25    1    4    4    0    0  0.37461797946E+01 -0.13314943793E+02 -0.23887695218E+02  0.12809938202E+03  0.12509000000E+03 0.  0.
         25    1    4    4    0    0  0.13906061668E+02 -0.99298503687E+02 -0.12775379163E+02  0.16082378493E+03  0.12509000000E+03 0.  0.
         25    1    3    3    0    0 -0.17652241463E+02  0.11261344748E+03 -0.91965192205E+01  0.16948591165E+03  0.12509000000E+03 0.  0.
<mgrwt>
<rscale>  2 0.45610940E+03</rscale>
<asrwt>0</asrwt>
<pdfrwt beam="1">  1       21 0.30334521E-01 0.45610940E+03</pdfrwt>
<pdfrwt beam="2">  1       21 0.37078579E-01 0.45610940E+03</pdfrwt>
<totfact> 0.67695567E+04</totfact>
</mgrwt>
</event>
<event>
 7    0  0.4793433E-002  0.4567503E+03  0.7546771E-02  0.1025728E+00
         21   -1    0    0  502  501  0.00000000000E+00  0.00000000000E+00  0.12585155260E+04  0.12585155260E+04  0.00000000000E+00 0. -1.
         21   -1    0    0  501  502 -0.00000000000E+00 -0.00000000000E+00 -0.41441846937E+02  0.41441846937E+02  0.00000000000E+00 0. -1.
      99926    2    1    2    0    0 -0.17763568394E-14  0.00000000000E+00  0.12170736791E+04  0.12999573729E+04  0.45675029413E+03 0.  0.
      99925    2    3    3    0    0  0.12300677063E+02  0.11384938725E+03  0.74070434246E+03  0.79430112350E+03  0.26297977533E+03 0.  0.
         25    1    4    4    0    0 -0.31440801331E+02  0.44485803125E+02  0.38341319475E+03  0.40696522785E+03  0.12509000000E+03 0.  0.
         25    1    3    3    0    0 -0.12300677063E+02 -0.11384938725E+03  0.47636933661E+03  0.50565624944E+03  0.12509000000E+03 0.  0.
         25    1    4    4    0    0  0.43741478394E+02  0.69363584121E+02  0.35729114771E+03  0.38733589566E+03  0.12509000000E+03 0.  0.
<mgrwt>
<rscale>  2 0.45675029E+03</rscale>
<asrwt>0</asrwt>
<pdfrwt beam="1">  1       21 0.18507579E+00 0.45675029E+03</pdfrwt>
<pdfrwt beam="2">  1       21 0.60943900E-02 0.45675029E+03</pdfrwt>
<totfact> 0.28722953E+04</totfact>
</mgrwt>
</event>
<event>
 7    0  0.4793433E-002  0.4547268E+03  0.7546771E-02  0.1026322E+00
         21   -1    0    0  502  501  0.00000000000E+00  0.00000000000E+00  0.49983281020E+03  0.49983281020E+03  0.00000000000E+00 0. -1.
         21   -1    0    0  501  502 -0.00000000000E+00 -0.00000000000E+00 -0.10342281402E+03  0.10342281402E+03  0.00000000000E+00 0. -1.
      99926    2    1    2    0    0  0.00000000000E+00  0.00000000000E+00  0.39640999618E+03  0.60325562421E+03  0.45472680048E+03 0.  0.
      99925    2    3    3    0    0  0.21042386411E+02 -0.74618249954E+02  0.35839481120E+03  0.45125783593E+03  0.26301355202E+03 0.  0.
         25    1    3    3    0    0 -0.21042386411E+02  0.74618249954E+02  0.38015184982E+02  0.15199778828E+03  0.12509000000E+03 0.  0.
         25    1    4    4    0    0  0.17105504197E+02 -0.51669447924E+02  0.24690272770E+03  0.28208295796E+03  0.12509000000E+03 0.  0.
         25    1    4    4    0    0  0.39368822140E+01 -0.22948802030E+02  0.11149208349E+03  0.16917487798E+03  0.12509000000E+03 0.  0.
<mgrwt>
<rscale>  2 0.45472680E+03</rscale>
<asrwt>0</asrwt>
<pdfrwt beam="1">  1       21 0.73504824E-01 0.45472680E+03</pdfrwt>
<pdfrwt beam="2">  1       21 0.15209238E-01 0.45472680E+03</pdfrwt>
<totfact> 0.58604713E+04</totfact>
</mgrwt>
</event>
<event>
 7    0  0.4793433E-002  0.4582984E+03  0.7546771E-02  0.1025276E+00
         21   -1    0    0  502  501  0.00000000000E+00  0.00000000000E+00  0.40510221681E+03  0.40510221681E+03  0.00000000000E+00 0.  1.
         21   -1    0    0  501  502 -0.00000000000E+00 -0.00000000000E+00 -0.12962000913E+03  0.12962000913E+03  0.00000000000E+00 0.  1.
      99926    2    1    2    0    0  0.14210854715E-13  0.71054273576E-14  0.27548220769E+03  0.53472222594E+03  0.45829838769E+03 0.  0.
      99925    2    3    3    0    0  0.10134373266E+03  0.42729589171E+02  0.12903908068E+03  0.31293523920E+03  0.26302283104E+03 0.  0.
         25    1    4    4    0    0  0.21354899950E+02 -0.10042746016E+02  0.63754680465E+02  0.14236943450E+03  0.12509000000E+03 0.  0.
         25    1    4    4    0    0  0.79988832713E+02  0.52772335187E+02  0.65284400217E+02  0.17056580470E+03  0.12509000000E+03 0.  0.
         25    1    3    3    0    0 -0.10134373266E+03 -0.42729589171E+02  0.14644312701E+03  0.22178698674E+03  0.12509000000E+03 0.  0.
<mgrwt>
<rscale>  2 0.45829839E+03</rscale>
<asrwt>0</asrwt>
<pdfrwt beam="1">  1       21 0.59573855E-01 0.45829839E+03</pdfrwt>
<pdfrwt beam="2">  1       21 0.19061766E-01 0.45829839E+03</pdfrwt>
<totfact> 0.61270544E+04</totfact>
</mgrwt>
</event>
<event>
 7    0  0.4793433E-002  0.4533376E+03  0.7546771E-02  0.1026731E+00
         21   -1    0    0  502  501  0.00000000000E+00  0.00000000000E+00  0.37523580716E+03  0.37523580716E+03  0.00000000000E+00 0.  1.
         21   -1    0    0  501  502 -0.00000000000E+00 -0.00000000000E+00 -0.13692390978E+03  0.13692390978E+03  0.00000000000E+00 0.  1.
      99926    2    1    2    0    0 -0.14210854715E-13 -0.35527136788E-14  0.23831189738E+03  0.51215971694E+03  0.45333763932E+03 0.  0.
      99925    2    3    3    0    0 -0.94381096496E+02 -0.31244585889E+02  0.20708248869E+03  0.34935062754E+03  0.26320845032E+03 0.  0.
         25    1    4    4    0    0 -0.35307469840E+02 -0.19634554715E+02  0.52409083809E+02  0.14151449866E+03  0.12509000000E+03 0.  0.
         25    1    4    4    0    0 -0.59073626655E+02 -0.11610031173E+02  0.15467340489E+03  0.20783612888E+03  0.12509000000E+03 0.  0.
         25    1    3    3    0    0  0.94381096496E+02  0.31244585889E+02  0.31229408688E+02  0.16280908940E+03  0.12509000000E+03 0.  0.
<mgrwt>
<rscale>  2 0.45333764E+03</rscale>
<asrwt>0</asrwt>
<pdfrwt beam="1">  1       21 0.55181736E-01 0.45333764E+03</pdfrwt>
<pdfrwt beam="2">  1       21 0.20135869E-01 0.45333764E+03</pdfrwt>
<totfact> 0.65281508E+04</totfact>
</mgrwt>
</event>
<event>
 7    0  0.4793433E-002  0.4531652E+03  0.7546771E-02  0.1026782E+00
         21   -1    0    0  502  501  0.00000000000E+00  0.00000000000E+00  0.35627019726E+03  0.35627019726E+03  0.00000000000E+00 0.  1.
         21   -1    0    0  501  502 -0.00000000000E+00 -0.00000000000E+00 -0.14410320284E+03  0.14410320284E+03  0.00000000000E+00 0.  1.
      99926    2    1    2    0    0  0.00000000000E+00  0.00000000000E+00  0.21216699441E+03  0.50037340010E+03  0.45316520829E+03 0.  0.
      99925    2    3    3    0    0 -0.22602770684E+02 -0.79510172773E+02  0.51340891062E+02  0.28049776153E+03  0.26307860861E+03 0.  0.
         25    1    3    3    0    0  0.22602770684E+02  0.79510172773E+02  0.16082610335E+03  0.21987563857E+03  0.12509000000E+03 0.  0.
         25    1    4    4    0    0 -0.17744631545E+02 -0.39079963997E+02  0.66587635476E+02  0.14806598810E+03  0.12509000000E+03 0.  0.
         25    1    4    4    0    0 -0.48581391391E+01 -0.40430208776E+02 -0.15246744413E+02  0.13243177343E+03  0.12509000000E+03 0.  0.
<mgrwt>
<rscale>  2 0.45316521E+03</rscale>
<asrwt>0</asrwt>
<pdfrwt beam="1">  1       21 0.52392676E-01 0.45316521E+03</pdfrwt>
<pdfrwt beam="2">  1       21 0.21191648E-01 0.45316521E+03</pdfrwt>
<totfact> 0.66203403E+04</totfact>
</mgrwt>
</event>
<event>
 6    0  0.4793433E-002  0.4503827E+03  0.7546771E-02  0.1027608E+00
         21   -1    0    0  502  501  0.00000000000E+00  0.00000000000E+00  0.50016780312E+02  0.50016780312E+02  0.00000000000E+00 0. -1.
         21   -1    0    0  501  502 -0.00000000000E+00 -0.00000000000E+00 -0.10138824491E+04  0.10138824491E+04  0.00000000000E+00 0. -1.
      99926    2    1    2    0    0 -0.71054273576E-14 -0.14210854715E-13 -0.96386566878E+03  0.10638992294E+04  0.45038266271E+03 0.  0.
         25    1    3    3    0    0  0.16121831087E+02 -0.64230389838E+02 -0.21247019471E+03  0.25529698031E+03  0.12509000000E+03 0.  0.
         25    1    3    3    0    0 -0.41250602884E+02 -0.21655366863E+02 -0.24053159303E+03  0.27508820858E+03  0.12509000000E+03 0.  0.
         25    1    3    3    0    0  0.25128771797E+02  0.85885756700E+02 -0.51086388103E+03  0.53351404051E+03  0.12509000000E+03 0.  0.
<mgrwt>
<rscale>  2 0.45038266E+03</rscale>
<asrwt>0</asrwt>
<pdfrwt beam="1">  1       21 0.73554092E-02 0.45038266E+03</pdfrwt>
<pdfrwt beam="2">  1       21 0.14910035E+00 0.45038266E+03</pdfrwt>
<totfact> 0.38126935E+04</totfact>
</mgrwt>
</event>
<event>
 7    0  0.4793433E-002  0.4528766E+03  0.7546771E-02  0.1026868E+00
         21   -1    0    0  502  501  0.00000000000E+00  0.00000000000E+00  0.14075399467E+04  0.14075399467E+04  0.00000000000E+00 0.  1.
         21   -1    0    0  501  502 -0.00000000000E+00 -0.00000000000E+00 -0.36428315149E+02  0.36428315149E+02  0.00000000000E+00 0.  1.
      99926    2    1    2    0    0  0.00000000000E+00 -0.35527136788E-14  0.13711116316E+04  0.14439682619E+04  0.45287662233E+03 0.  0.
      99925    2    3    3    0    0 -0.10771829408E+03  0.26215462467E+02  0.92304381673E+03  0.96573949219E+03  0.26144291504E+03 0.  0.
         25    1    4    4    0    0 -0.46577197562E+02  0.33104024839E+02  0.56546818408E+03  0.58195110370E+03  0.12509000000E+03 0.  0.
         25    1    4    4    0    0 -0.61141096514E+02 -0.68885623719E+01  0.35757563266E+03  0.38378838850E+03  0.12509000000E+03 0.  0.
         25    1    3    3    0    0  0.10771829408E+03 -0.26215462467E+02  0.44806781483E+03  0.47822876967E+03  0.12509000000E+03 0.  0.
<mgrwt>
<rscale>  2 0.45287662E+03</rscale>
<asrwt>0</asrwt>
<pdfrwt beam="1">  1       21 0.20699113E+00 0.45287662E+03</pdfrwt>
<pdfrwt beam="2">  1       21 0.53571061E-02 0.45287662E+03</pdfrwt>
<totfact> 0.25603339E+04</totfact>
</mgrwt>
</event>
<event>
 7    0  0.4793433E-002  0.4546727E+03  0.7546771E-02  0.1026338E+00
         21   -1    0    0  502  501  0.00000000000E+00  0.00000000000E+00  0.90475458833E+02  0.90475458833E+02  0.00000000000E+00 0. -1.
         21   -1    0    0  501  502 -0.00000000000E+00 -0.00000000000E+00 -0.57122464634E+03  0.57122464634E+03  0.00000000000E+00 0. -1.
      99926    2    1    2    0    0 -0.14210854715E-13  0.00000000000E+00 -0.48074918750E+03  0.66170010517E+03  0.45467268215E+03 0.  0.
      99925    2    3    3    0    0  0.79741552570E+02  0.60083706130E+02 -0.37920557613E+03  0.47215491251E+03  0.26299168332E+03 0.  0.
         25    1    4    4    0    0  0.40998323272E+02  0.70481084576E+02 -0.18599699739E+03  0.23851800128E+03  0.12509000000E+03 0.  0.
         25    1    3    3    0    0 -0.79741552570E+02 -0.60083706130E+02 -0.10154361138E+03  0.18954519266E+03  0.12509000000E+03 0.  0.
         25    1    4    4    0    0  0.38743229298E+02 -0.10397378446E+02 -0.19320857874E+03  0.23363691124E+03  0.12509000000E+03 0.  0.
<mgrwt>
<rscale>  2 0.45467268E+03</rscale>
<asrwt>0</asrwt>
<pdfrwt beam="1">  1       21 0.13305215E-01 0.45467268E+03</pdfrwt>
<pdfrwt beam="2">  1       21 0.84003624E-01 0.45467268E+03</pdfrwt>
<totfact> 0.55174087E+04</totfact>
</mgrwt>
</event>
<event>
 7    0  0.4793433E-002  0.4527374E+03  0.7546771E-02  0.1026909E+00
         21   -1    0    0  502  501  0.00000000000E+00  0.00000000000E+00  0.12156388952E+04  0.12156388952E+04  0.00000000000E+00 0.  1.
         21   -1    0    0  501  502 -0.00000000000E+00 -0.00000000000E+00 -0.42152970129E+02  0.42152970129E+02  0.00000000000E+00 0.  1.
      99926    2    1    2    0    0  0.00000000000E+00  0.00000000000E+00  0.11734859251E+04  0.12577918653E+04  0.45273740750E+03 0.  0.
      99925    2    3    3    0    0 -0.80709854551E+02  0.76234139253E+02  0.74456939824E+03  0.79741960324E+03  0.26299944911E+03 0.  0.
         25    1    4    4    0    0 -0.14399467790E+02  0.14887975917E+02  0.40622498298E+03  0.42555286557E+03  0.12509000000E+03 0.  0.
         25    1    4    4    0    0 -0.66310386761E+02  0.61346163336E+02  0.33834441526E+03  0.37186673767E+03  0.12509000000E+03 0.  0.
         25    1    3    3    0    0  0.80709854551E+02 -0.76234139253E+02  0.42891652683E+03  0.46037226208E+03  0.12509000000E+03 0.  0.
<mgrwt>
<rscale>  2 0.45273741E+03</rscale>
<asrwt>0</asrwt>
<pdfrwt beam="1">  1       21 0.17877040E+00 0.45273741E+03</pdfrwt>
<pdfrwt beam="2">  1       21 0.61989670E-02 0.45273741E+03</pdfrwt>
<totfact> 0.30906286E+04</totfact>
</mgrwt>
</event>
<event>
 7    0  0.4793433E-002  0.4521867E+03  0.7546771E-02  0.1027072E+00
         21   -1    0    0  502  501  0.00000000000E+00  0.00000000000E+00  0.21548992477E+03  0.21548992477E+03  0.00000000000E+00 0.  1.
         21   -1    0    0  501  502 -0.00000000000E+00 -0.00000000000E+00 -0.23721848381E+03  0.23721848381E+03  0.00000000000E+00 0.  1.
      99926    2    1    2    0    0  0.00000000000E+00  0.44408920985E-15 -0.21728559043E+02  0.45270840858E+03  0.45218665717E+03 0.  0.
      99925    2    3    3    0    0  0.74147687424E+02 -0.31224364683E+01  0.68313585705E+02  0.28164489672E+03  0.26296287323E+03 0.  0.
         25    1    4    4    0    0  0.48301320543E+02 -0.26552738169E+02  0.40608142636E+01  0.13675548904E+03  0.12509000000E+03 0.  0.
         25    1    3    3    0    0 -0.74147687424E+02  0.31224364683E+01 -0.90042144747E+02  0.17106351186E+03  0.12509000000E+03 0.  0.
         25    1    4    4    0    0  0.25846366881E+02  0.23430301700E+02  0.64252771441E+02  0.14488940768E+03  0.12509000000E+03 0.  0.
<mgrwt>
<rscale>  2 0.45218666E+03</rscale>
<asrwt>0</asrwt>
<pdfrwt beam="1">  1       21 0.31689695E-01 0.45218666E+03</pdfrwt>
<pdfrwt beam="2">  1       21 0.34885071E-01 0.45218666E+03</pdfrwt>
<totfact> 0.70278385E+04</totfact>
</mgrwt>
</event>
<event>
 7    0  0.4793433E-002  0.4531751E+03  0.7546771E-02  0.1026779E+00
         21   -1    0    0  502  501  0.00000000000E+00  0.00000000000E+00  0.42241968328E+03  0.42241968328E+03  0.00000000000E+00 0.  1.
         21   -1    0    0  501  502 -0.00000000000E+00 -0.00000000000E+00 -0.12154244420E+03  0.12154244420E+03  0.00000000000E+00 0.  1.
      99926    2    1    2    0    0 -0.14210854715E-13  0.00000000000E+00  0.30087723908E+03  0.54396212748E+03  0.45317511310E+03 0.  0.
      99925    2    3    3    0    0 -0.71630566497E+02  0.66041561035E+02  0.12468554844E+03  0.30693165308E+03  0.26299834188E+03 0.  0.
         25    1    4    4    0    0  0.77813112839E+00  0.48446804485E+02  0.70753408922E+02  0.15166163433E+03  0.12509000000E+03 0.  0.
         25    1    3    3    0    0  0.71630566497E+02 -0.66041561035E+02  0.17619169065E+03  0.23703047440E+03  0.12509000000E+03 0.  0.
         25    1    4    4    0    0 -0.72408697626E+02  0.17594756550E+02  0.53932139515E+02  0.15527001875E+03  0.12509000000E+03 0.  0.
<mgrwt>
<rscale>  2 0.45317511E+03</rscale>
<asrwt>0</asrwt>
<pdfrwt beam="1">  1       21 0.62120541E-01 0.45317511E+03</pdfrwt>
<pdfrwt beam="2">  1       21 0.17873889E-01 0.45317511E+03</pdfrwt>
<totfact> 0.63174614E+04</totfact>
</mgrwt>
</event>
<event>
 7    0  0.4793433E-002  0.4512474E+03  0.7546771E-02  0.1027351E+00
         21   -1    0    0  502  501  0.00000000000E+00  0.00000000000E+00  0.80462313900E+02  0.80462313900E+02  0.00000000000E+00 0. -1.
         21   -1    0    0  501  502 -0.00000000000E+00 -0.00000000000E+00 -0.63266956536E+03  0.63266956536E+03  0.00000000000E+00 0. -1.
      99926    2    1    2    0    0  0.35527136788E-14  0.14210854715E-13 -0.55220725146E+03  0.71313187926E+03  0.45124741401E+03 0.  0.
      99925    2    3    3    0    0 -0.17030154210E+02 -0.77467764832E+02 -0.46867539946E+03  0.54308377095E+03  0.26266341860E+03 0.  0.
         25    1    3    3    0    0  0.17030154210E+02  0.77467764832E+02 -0.83531851993E+02  0.17004810830E+03  0.12509000000E+03 0.  0.
         25    1    4    4    0    0 -0.36468754066E+02 -0.36881884237E+02 -0.29298858686E+03  0.32276936586E+03  0.12509000000E+03 0.  0.
         25    1    4    4    0    0  0.19438599856E+02 -0.40585880595E+02 -0.17568681260E+03  0.22031440509E+03  0.12509000000E+03 0.  0.
<mgrwt>
<rscale>  2 0.45124741E+03</rscale>
<asrwt>0</asrwt>
<pdfrwt beam="1">  1       21 0.11832693E-01 0.45124741E+03</pdfrwt>
<pdfrwt beam="2">  1       21 0.93039643E-01 0.45124741E+03</pdfrwt>
<totfact> 0.53765536E+04</totfact>
</mgrwt>
</event>
<event>
 7    0  0.4793433E-002  0.4513002E+03  0.7546771E-02  0.1027335E+00
         21   -1    0    0  502  501  0.00000000000E+00  0.00000000000E+00  0.11060517500E+03  0.11060517500E+03  0.00000000000E+00 0. -1.
         21   -1    0    0  501  502 -0.00000000000E+00 -0.00000000000E+00 -0.46035787669E+03  0.46035787669E+03  0.00000000000E+00 0. -1.
      99926    2    1    2    0    0  0.00000000000E+00  0.00000000000E+00 -0.34975270169E+03  0.57096305169E+03  0.45130018176E+03 0.  0.
      99925    2    3    3    0    0 -0.67761569749E+02 -0.38375518828E+02 -0.12325134952E+03  0.30075076216E+03  0.26305097415E+03 0.  0.
         25    1    4    4    0    0 -0.20783617283E+02  0.51085148394E+01 -0.25148297433E+02  0.12937542516E+03  0.12509000000E+03 0.  0.
         25    1    4    4    0    0 -0.46977952466E+02 -0.43484033668E+02 -0.98103052091E+02  0.17137533700E+03  0.12509000000E+03 0.  0.
         25    1    3    3    0    0  0.67761569749E+02  0.38375518828E+02 -0.22650135217E+03  0.27021228953E+03  0.12509000000E+03 0.  0.
<mgrwt>
<rscale>  2 0.45130018E+03</rscale>
<asrwt>0</asrwt>
<pdfrwt beam="1">  1       21 0.16265467E-01 0.45130018E+03</pdfrwt>
<pdfrwt beam="2">  1       21 0.67699686E-01 0.45130018E+03</pdfrwt>
<totfact> 0.62305058E+04</totfact>
</mgrwt>
</event>
<event>
 7    0  0.4793433E-002  0.4484370E+03  0.7546771E-02  0.1028189E+00
         21   -1    0    0  502  501  0.00000000000E+00  0.00000000000E+00  0.11912396817E+03  0.11912396817E+03  0.00000000000E+00 0. -1.
         21   -1    0    0  501  502 -0.00000000000E+00 -0.00000000000E+00 -0.42203033330E+03  0.42203033330E+03  0.00000000000E+00 0. -1.
      99926    2    1    2    0    0  0.00000000000E+00  0.00000000000E+00 -0.30290636513E+03  0.54115430148E+03  0.44843696544E+03 0.  0.
      99925    2    3    3    0    0 -0.10085419296E+03 -0.32548186483E+02 -0.17509415205E+03  0.33327351209E+03  0.26302532026E+03 0.  0.
         25    1    4    4    0    0 -0.20963973546E+02 -0.49066781230E+01 -0.47245853280E+02  0.13543722690E+03  0.12509000000E+03 0.  0.
         25    1    4    4    0    0 -0.79890219417E+02 -0.27641508360E+02 -0.12784829877E+03  0.19783628520E+03  0.12509000000E+03 0.  0.
         25    1    3    3    0    0  0.10085419296E+03  0.32548186483E+02 -0.12781221308E+03  0.20788078938E+03  0.12509000000E+03 0.  0.
<mgrwt>
<rscale>  2 0.44843697E+03</rscale>
<asrwt>0</asrwt>
<pdfrwt beam="1">  1       21 0.17518230E-01 0.44843697E+03</pdfrwt>
<pdfrwt beam="2">  1       21 0.62063285E-01 0.44843697E+03</pdfrwt>
<totfact> 0.65806647E+04</totfact>
</mgrwt>
</event>
<event>
 7    0  0.4793433E-002  0.4641381E+03  0.7546771E-02  0.1023588E+00
         21   -1    0    0  502  501  0.00000000000E+00  0.00000000000E+00  0.51681969381E+03  0.51681969381E+03  0.00000000000E+00 0.  1.
         21   -1    0    0  501  502 -0.00000000000E+00 -0.00000000000E+00 -0.10420666175E+03  0.10420666175E+03  0.00000000000E+00 0.  1.
      99926    2    1    2    0    0 -0.88817841970E-15  0.14210854715E-13  0.41261303206E+03  0.62102635556E+03  0.46413814762E+03 0.  0.
      99925    2    3    3    0    0 -0.59329479977E+01  0.10484429542E+03  0.17587230021E+03  0.33341340667E+03  0.26307015721E+03 0.  0.
         25    1    3    3    0    0  0.59329479977E+01 -0.10484429542E+03  0.23674073185E+03  0.28761294889E+03  0.12509000000E+03 0.  0.
         25    1    4    4    0    0  0.20113837205E+02  0.86953925934E+02  0.10610477201E+03  0.18673854028E+03  0.12509000000E+03 0.  0.
         25    1    4    4    0    0 -0.26046785203E+02  0.17890369482E+02  0.69767528199E+02  0.14667486639E+03  0.12509000000E+03 0.  0.
<mgrwt>
<rscale>  2 0.46413815E+03</rscale>
<asrwt>0</asrwt>
<pdfrwt beam="1">  1       21 0.76002895E-01 0.46413815E+03</pdfrwt>
<pdfrwt beam="2">  1       21 0.15324509E-01 0.46413815E+03</pdfrwt>
<totfact> 0.53440339E+04</totfact>
</mgrwt>
</event>
<event>
 7    0  0.4793433E-002  0.4569550E+03  0.7546771E-02  0.1025668E+00
         21   -1    0    0  502  501  0.00000000000E+00  0.00000000000E+00  0.12581748113E+03  0.12581748113E+03  0.00000000000E+00 0. -1.
         21   -1    0    0  501  502 -0.00000000000E+00 -0.00000000000E+00 -0.41490226177E+03  0.41490226177E+03  0.00000000000E+00 0. -1.
      99926    2    1    2    0    0  0.14210854715E-13  0.35527136788E-14 -0.28908478064E+03  0.54071974291E+03  0.45695495398E+03 0.  0.
      99925    2    3    3    0    0 -0.97393076041E+02 -0.18976637320E+02 -0.11296135047E+03  0.30299617491E+03  0.26306062284E+03 0.  0.
         25    1    4    4    0    0 -0.42673972946E+02  0.30522551547E+02 -0.61243256186E+02  0.14883191408E+03  0.12509000000E+03 0.  0.
         25    1    3    3    0    0  0.97393076041E+02  0.18976637320E+02 -0.17612343017E+03  0.23772356799E+03  0.12509000000E+03 0.  0.
         25    1    4    4    0    0 -0.54719103096E+02 -0.49499188867E+02 -0.51718094289E+02  0.15416426084E+03  0.12509000000E+03 0.  0.
<mgrwt>
<rscale>  2 0.45695495E+03</rscale>
<asrwt>0</asrwt>
<pdfrwt beam="1">  1       21 0.18502570E-01 0.45695495E+03</pdfrwt>
<pdfrwt beam="2">  1       21 0.61015040E-01 0.45695495E+03</pdfrwt>
<totfact> 0.61526530E+04</totfact>
</mgrwt>
</event>
<event>
 7    0  0.4793433E-002  0.4220560E+03  0.7546771E-02  0.1036399E+00
         21   -1    0    0  502  501  0.00000000000E+00  0.00000000000E+00  0.10483829502E+04  0.10483829502E+04  0.00000000000E+00 0. -1.
         21   -1    0    0  501  502 -0.00000000000E+00 -0.00000000000E+00 -0.42477625341E+02  0.42477625341E+02  0.00000000000E+00 0. -1.
      99926    2    1    2    0    0  0.00000000000E+00  0.00000000000E+00  0.10059053249E+04  0.10908605756E+04  0.42205600659E+03 0.  0.
      99925    2    3    3    0    0  0.53994354130E+02 -0.15011286781E+02  0.79558247799E+03  0.83981488842E+03  0.26305291963E+03 0.  0.
         25    1    4    4    0    0  0.27504680216E+02 -0.35017270862E+02  0.49616553810E+03  0.51362483000E+03  0.12509000000E+03 0.  0.
         25    1    3    3    0    0 -0.53994354130E+02  0.15011286781E+02  0.21032284692E+03  0.25104568717E+03  0.12509000000E+03 0.  0.
         25    1    4    4    0    0  0.26489673914E+02  0.20005984081E+02  0.29941693988E+03  0.32619005842E+03  0.12509000000E+03 0.  0.
<mgrwt>
<rscale>  2 0.42205601E+03</rscale>
<asrwt>0</asrwt>
<pdfrwt beam="1">  1       21 0.15417395E+00 0.42205601E+03</pdfrwt>
<pdfrwt beam="2">  1       21 0.62467103E-02 0.42205601E+03</pdfrwt>
<totfact> 0.46712709E+04</totfact>
</mgrwt>
</event>
<event>
 7    0  0.4793433E-002  0.4637552E+03  0.7546771E-02  0.1023698E+00
         21   -1    0    0  502  501  0.00000000000E+00  0.00000000000E+00  0.37861795549E+03  0.37861795549E+03  0.00000000000E+00 0.  1.
         21   -1    0    0  501  502 -0.00000000000E+00 -0.00000000000E+00 -0.14200919572E+03  0.14200919572E+03  0.00000000000E+00 0.  1.
      99926    2    1    2    0    0  0.71054273576E-14  0.00000000000E+00  0.23660875976E+03  0.52062715121E+03  0.46375524297E+03 0.  0.
      99925    2    3    3    0    0 -0.49593004588E+02  0.54906688383E+02  0.25558221932E+03  0.37406074714E+03  0.26291626269E+03 0.  0.
         25    1    3    3    0    0  0.49593004588E+02 -0.54906688383E+02 -0.18973459557E+02  0.14656640407E+03  0.12509000000E+03 0.  0.
         25    1    4    4    0    0 -0.17857121647E+02  0.52093270745E+02  0.88110054883E+02  0.16261449973E+03  0.12509000000E+03 0.  0.
         25    1    4    4    0    0 -0.31735882941E+02  0.28134176374E+01  0.16747216444E+03  0.21144624742E+03  0.12509000000E+03 0.  0.
<mgrwt>
<rscale>  2 0.46375524E+03</rscale>
<asrwt>0</asrwt>
<pdfrwt beam="1">  1       21 0.55679111E-01 0.46375524E+03</pdfrwt>
<pdfrwt beam="2">  1       21 0.20883705E-01 0.46375524E+03</pdfrwt>
<totfact> 0.59595448E+04</totfact>
</mgrwt>
</event>
<event>
 7    0  0.4793433E-002  0.4556328E+03  0.7546771E-02  0.1026055E+00
         21   -1    0    0  502  501  0.00000000000E+00  0.00000000000E+00  0.10606311152E+03  0.10606311152E+03  0.00000000000E+00 0.  1.
         21   -1    0    0  501  502 -0.00000000000E+00 -0.00000000000E+00 -0.48933432106E+03  0.48933432106E+03  0.00000000000E+00 0.  1.
      99926    2    1    2    0    0 -0.35527136788E-14  0.00000000000E+00 -0.38327120954E+03  0.59539743259E+03  0.45563283757E+03 0.  0.
      99925    2    3    3    0    0 -0.26739808568E+02 -0.58127867562E+02 -0.11812078881E+03  0.29532057566E+03  0.26299782378E+03 0.  0.
         25    1    4    4    0    0  0.12848338975E+01  0.61721949762E+01 -0.37218667277E+02  0.13066171621E+03  0.12509000000E+03 0.  0.
         25    1    4    4    0    0 -0.28024642465E+02 -0.64300062538E+02 -0.80902121531E+02  0.16465885945E+03  0.12509000000E+03 0.  0.
         25    1    3    3    0    0  0.26739808568E+02  0.58127867562E+02 -0.26515042073E+03  0.30007685693E+03  0.12509000000E+03 0.  0.
<mgrwt>
<rscale>  2 0.45563284E+03</rscale>
<asrwt>0</asrwt>
<pdfrwt beam="1">  1       21 0.15597516E-01 0.45563284E+03</pdfrwt>
<pdfrwt beam="2">  1       21 0.71960930E-01 0.45563284E+03</pdfrwt>
<totfact> 0.58668518E+04</totfact>
</mgrwt>
</event>
<event>
 7    0  0.4793433E-002  0.4576341E+03  0.7546771E-02  0.1025470E+00
         21   -1    0    0  502  501  0.00000000000E+00  0.00000000000E+00  0.85800611733E+02  0.85800611733E+02  0.00000000000E+00 0. -1.
         21   -1    0    0  501  502 -0.00000000000E+00 -0.00000000000E+00 -0.61021989185E+03  0.61021989185E+03  0.00000000000E+00 0. -1.
      99926    2    1    2    0    0  0.00000000000E+00  0.00000000000E+00 -0.52441928012E+03  0.69602050358E+03  0.45763408969E+03 0.  0.
      99925    2    3    3    0    0 -0.30290549270E+02  0.55683013392E+02 -0.18207513225E+03  0.32606761600E+03  0.26296505673E+03 0.  0.
         25    1    3    3    0    0  0.30290549270E+02 -0.55683013392E+02 -0.34234414787E+03  0.36995288759E+03  0.12509000000E+03 0.  0.
         25    1    4    4    0    0  0.14310709087E+02  0.55564144119E+02 -0.88895129231E+02  0.16383535213E+03  0.12509000000E+03 0.  0.
         25    1    4    4    0    0 -0.44601258357E+02  0.11886927288E+00 -0.93180003020E+02  0.16223226387E+03  0.12509000000E+03 0.  0.
<mgrwt>
<rscale>  2 0.45763409E+03</rscale>
<asrwt>0</asrwt>
<pdfrwt beam="1">  1       21 0.12617737E-01 0.45763409E+03</pdfrwt>
<pdfrwt beam="2">  1       21 0.89738220E-01 0.45763409E+03</pdfrwt>
<totfact> 0.52032406E+04</totfact>
</mgrwt>
</event>
<event>
 7    0  0.4793433E-002  0.4499373E+03  0.7546771E-02  0.1027741E+00
         21   -1    0    0  502  501  0.00000000000E+00  0.00000000000E+00  0.63400850622E+03  0.63400850622E+03  0.00000000000E+00 0.  1.
         21   -1    0    0  501  502 -0.00000000000E+00 -0.00000000000E+00 -0.79826840685E+02  0.79826840685E+02  0.00000000000E+00 0.  1.
      99926    2    1    2    0    0  0.00000000000E+00  0.00000000000E+00  0.55418166553E+03  0.71383534690E+03  0.44993731127E+03 0.  0.
      99925    2    3    3    0    0  0.80053032917E+02 -0.40729013016E+02  0.44649620117E+03  0.52592311229E+03  0.26299985134E+03 0.  0.
         25    1    3    3    0    0 -0.80053032917E+02  0.40729013016E+02  0.10768546436E+03  0.18791223461E+03  0.12509000000E+03 0.  0.
         25    1    4    4    0    0  0.72627636405E+02 -0.47679310604E+02  0.25214066356E+03  0.29456834954E+03  0.12509000000E+03 0.  0.
         25    1    4    4    0    0  0.74253965121E+01  0.69502975882E+01  0.19435553761E+03  0.23135476275E+03  0.12509000000E+03 0.  0.
<mgrwt>
<rscale>  2 0.44993731E+03</rscale>
<asrwt>0</asrwt>
<pdfrwt beam="1">  1       21 0.93236542E-01 0.44993731E+03</pdfrwt>
<pdfrwt beam="2">  1       21 0.11739242E-01 0.44993731E+03</pdfrwt>
<totfact> 0.54288293E+04</totfact>
</mgrwt>
</event>
<event>
 7    0  0.4793433E-002  0.4624180E+03  0.7546771E-02  0.1024082E+00
         21   -1    0    0  502  501  0.00000000000E+00  0.00000000000E+00  0.41608392680E+03  0.41608392680E+03  0.00000000000E+00 0. -1.
         21   -1    0    0  501  502 -0.00000000000E+00 -0.00000000000E+00 -0.12847795682E+03  0.12847795682E+03  0.00000000000E+00 0. -1.
      99926    2    1    2    0    0  0.00000000000E+00  0.00000000000E+00  0.28760596997E+03  0.54456188362E+03  0.46241804801E+03 0.  0.
      99925    2    3    3    0    0 -0.71366004250E+02  0.87461732613E+02  0.22764646506E+03  0.36571750556E+03  0.26302798251E+03 0.  0.
         25    1    3    3    0    0  0.71366004250E+02 -0.87461732613E+02  0.59959504913E+02  0.17884437806E+03  0.12509000000E+03 0.  0.
         25    1    4    4    0    0 -0.35515076570E+02  0.82399373902E+02  0.14501228049E+03  0.21148769959E+03  0.12509000000E+03 0.  0.
         25    1    4    4    0    0 -0.35850927680E+02  0.50623587106E+01  0.82634184573E+02  0.15422980598E+03  0.12509000000E+03 0.  0.
<mgrwt>
<rscale>  2 0.46241805E+03</rscale>
<asrwt>0</asrwt>
<pdfrwt beam="1">  1       21 0.61188812E-01 0.46241805E+03</pdfrwt>
<pdfrwt beam="2">  1       21 0.18893817E-01 0.46241805E+03</pdfrwt>
<totfact> 0.58703945E+04</totfact>
</mgrwt>
</event>
<event>
 7    0  0.4793433E-002  0.4488969E+03  0.7546771E-02  0.1028052E+00
         21   -1    0    0  502  501  0.00000000000E+00  0.00000000000E+00  0.22646479510E+03  0.22646479510E+03  0.00000000000E+00 0.  1.
         21   -1    0    0  501  502 -0.00000000000E+00 -0.00000000000E+00 -0.22245003587E+03  0.22245003587E+03  0.00000000000E+00 0.  1.
      99926    2    1    2    0    0 -0.17763568394E-14  0.00000000000E+00  0.40147592314E+01  0.44891483096E+03  0.44889687810E+03 0.  0.
      99925    2    3    3    0    0  0.15111665952E+02 -0.10481271881E+03 -0.15341096844E+02  0.28388081709E+03  0.26294277055E+03 0.  0.
         25    1    4    4    0    0 -0.30784211393E+02 -0.38672366183E+02 -0.18586773706E+01  0.13451461764E+03  0.12509000000E+03 0.  0.
         25    1    3    3    0    0 -0.15111665952E+02  0.10481271881E+03  0.19355856076E+02  0.16503401388E+03  0.12509000000E+03 0.  0.
         25    1    4    4    0    0  0.45895877345E+02 -0.66140352623E+02 -0.13482419474E+02  0.14936619945E+03  0.12509000000E+03 0.  0.
<mgrwt>
<rscale>  2 0.44889688E+03</rscale>
<asrwt>0</asrwt>
<pdfrwt beam="1">  1       21 0.33303646E-01 0.44889688E+03</pdfrwt>
<pdfrwt beam="2">  1       21 0.32713241E-01 0.44889688E+03</pdfrwt>
<totfact> 0.72458625E+04</totfact>
</mgrwt>
</event>
<event>
 7    0  0.4793433E-002  0.4526964E+03  0.7546771E-02  0.1026921E+00
         21   -1    0    0  502  501  0.00000000000E+00  0.00000000000E+00  0.13014311841E+04  0.13014311841E+04  0.00000000000E+00 0. -1.
         21   -1    0    0  501  502 -0.00000000000E+00 -0.00000000000E+00 -0.39367056094E+02  0.39367056094E+02  0.00000000000E+00 0. -1.
      99926    2    1    2    0    0  0.35527136788E-14  0.00000000000E+00  0.12620641281E+04  0.13407982402E+04  0.45269642998E+03 0.  0.
      99925    2    3    3    0    0 -0.27234210371E+02 -0.62902908091E+02  0.10542485013E+04  0.10887400706E+04  0.26309040421E+03 0.  0.
         25    1    3    3    0    0  0.27234210371E+02  0.62902908091E+02  0.20781562679E+03  0.25205816967E+03  0.12509000000E+03 0.  0.
         25    1    4    4    0    0 -0.53290291759E+02 -0.22848577898E+02  0.52060393726E+03  0.53855165054E+03  0.12509000000E+03 0.  0.
         25    1    4    4    0    0  0.26056081388E+02 -0.40054330193E+02  0.53364456401E+03  0.55018842003E+03  0.12509000000E+03 0.  0.
<mgrwt>
<rscale>  2 0.45269643E+03</rscale>
<asrwt>0</asrwt>
<pdfrwt beam="1">  1       21 0.19138691E+00 0.45269643E+03</pdfrwt>
<pdfrwt beam="2">  1       21 0.57892738E-02 0.45269643E+03</pdfrwt>
<totfact> 0.28458821E+04</totfact>
</mgrwt>
</event>
<event>
 7    0  0.4793433E-002  0.4459372E+03  0.7546771E-02  0.1028941E+00
         21   -1    0    0  502  501  0.00000000000E+00  0.00000000000E+00  0.13031380699E+03  0.13031380699E+03  0.00000000000E+00 0. -1.
         21   -1    0    0  501  502 -0.00000000000E+00 -0.00000000000E+00 -0.38150220367E+03  0.38150220367E+03  0.00000000000E+00 0. -1.
      99926    2    1    2    0    0  0.00000000000E+00  0.88817841970E-15 -0.25118839668E+03  0.51181601066E+03  0.44593723565E+03 0.  0.
      99925    2    3    3    0    0 -0.98449045238E+02 -0.54360237013E+01 -0.12066707821E+03  0.30589105458E+03  0.26322429342E+03 0.  0.
         25    1    4    4    0    0 -0.80891499443E+02  0.22374823088E+02 -0.51369125123E+02  0.15915515231E+03  0.12509000000E+03 0.  0.
         25    1    4    4    0    0 -0.17557545795E+02 -0.27810846789E+02 -0.69297953083E+02  0.14673590227E+03  0.12509000000E+03 0.  0.
         25    1    3    3    0    0  0.98449045238E+02  0.54360237013E+01 -0.13052131847E+03  0.20592495608E+03  0.12509000000E+03 0.  0.
<mgrwt>
<rscale>  2 0.44593724E+03</rscale>
<asrwt>0</asrwt>
<pdfrwt beam="1">  1       21 0.19163795E-01 0.44593724E+03</pdfrwt>
<pdfrwt beam="2">  1       21 0.56103265E-01 0.44593724E+03</pdfrwt>
<totfact> 0.69298990E+04</totfact>
</mgrwt>
</event>
<event>
 7    0  0.4793433E-002  0.4549545E+03  0.7546771E-02  0.1026255E+00
         21   -1    0    0  502  501  0.00000000000E+00  0.00000000000E+00  0.68619646220E+03  0.68619646220E+03  0.00000000000E+00 0. -1.
         21   -1    0    0  501  502 -0.00000000000E+00 -0.00000000000E+00 -0.75409750266E+02  0.75409750266E+02  0.00000000000E+00 0. -1.
      99926    2    1    2    0    0 -0.44408920985E-15  0.00000000000E+00  0.61078671193E+03  0.76160621246E+03  0.45495452013E+03 0.  0.
      99925    2    3    3    0    0 -0.29268649130E+01  0.11246467382E+03  0.35881877927E+03  0.45863390913E+03  0.26255909212E+03 0.  0.
         25    1    4    4    0    0  0.77834869421E+01  0.19462152211E+02  0.13057311391E+03  0.18203352497E+03  0.12509000000E+03 0.  0.
         25    1    3    3    0    0  0.29268649130E+01 -0.11246467382E+03  0.25196793266E+03  0.30297230333E+03  0.12509000000E+03 0.  0.
         25    1    4    4    0    0 -0.10710351855E+02  0.93002521607E+02  0.22824566537E+03  0.27660038417E+03  0.12509000000E+03 0.  0.
<mgrwt>
<rscale>  2 0.45495452E+03</rscale>
<asrwt>0</asrwt>
<pdfrwt beam="1">  1       21 0.10091124E+00 0.45495452E+03</pdfrwt>
<pdfrwt beam="2">  1       21 0.11089670E-01 0.45495452E+03</pdfrwt>
<totfact> 0.49695319E+04</totfact>
</mgrwt>
</event>
<event>
 7    0  0.4793433E-002  0.4531936E+03  0.7546771E-02  0.1026774E+00
         21   -1    0    0  502  501  0.00000000000E+00  0.00000000000E+00  0.19875285480E+03  0.19875285480E+03  0.00000000000E+00 0. -1.
         21   -1    0    0  501  502 -0.00000000000E+00 -0.00000000000E+00 -0.25834144320E+03  0.25834144320E+03  0.00000000000E+00 0. -1.
      99926    2    1    2    0    0  0.00000000000E+00  0.00000000000E+00 -0.59588588397E+02  0.45709429800E+03  0.45319355401E+03 0.  0.
      99925    2    3    3    0    0 -0.21485347697E+02 -0.62674303015E+02 -0.12792797837E+03  0.29990820209E+03  0.26303930050E+03 0.  0.
         25    1    3    3    0    0  0.21485347697E+02  0.62674303015E+02  0.68339389974E+02  0.15718609591E+03  0.12509000000E+03 0.  0.
         25    1    4    4    0    0 -0.44282122253E+02 -0.10494067058E+02 -0.52155439285E+02  0.14296408550E+03  0.12509000000E+03 0.  0.
         25    1    4    4    0    0  0.22796774555E+02 -0.52180235957E+02 -0.75772539086E+02  0.15694411660E+03  0.12509000000E+03 0.  0.
<mgrwt>
<rscale>  2 0.45319355E+03</rscale>
<asrwt>0</asrwt>
<pdfrwt beam="1">  1       21 0.29228361E-01 0.45319355E+03</pdfrwt>
<pdfrwt beam="2">  1       21 0.37991389E-01 0.45319355E+03</pdfrwt>
<totfact> 0.69387061E+04</totfact>
</mgrwt>
</event>
<event>
 7    0  0.4793433E-002  0.4426424E+03  0.7546771E-02  0.1029939E+00
         21   -1    0    0  502  501  0.00000000000E+00  0.00000000000E+00  0.32448574882E+03  0.32448574882E+03  0.00000000000E+00 0. -1.
         21   -1    0    0  501  502 -0.00000000000E+00 -0.00000000000E+00 -0.15095603496E+03  0.15095603496E+03  0.00000000000E+00 0. -1.
      99926    2    1    2    0    0 -0.71054273576E-14  0.00000000000E+00  0.17352971386E+03  0.47544178378E+03  0.44264243828E+03 0.  0.
      99925    2    3    3    0    0 -0.55826281465E+02 -0.62523617102E+02  0.49597775633E+02  0.28042278518E+03  0.26296620069E+03 0.  0.
         25    1    4    4    0    0  0.10594283365E+02 -0.14131065188E+02  0.22258226699E+02  0.12827650837E+03  0.12509000000E+03 0.  0.
         25    1    4    4    0    0 -0.66420564830E+02 -0.48392551914E+02  0.27339548933E+02  0.15214627682E+03  0.12509000000E+03 0.  0.
         25    1    3    3    0    0  0.55826281465E+02  0.62523617102E+02  0.12393193823E+03  0.19501899859E+03  0.12509000000E+03 0.  0.
<mgrwt>
<rscale>  2 0.44264244E+03</rscale>
<asrwt>0</asrwt>
<pdfrwt beam="1">  1       21 0.47718492E-01 0.44264244E+03</pdfrwt>
<pdfrwt beam="2">  1       21 0.22199417E-01 0.44264244E+03</pdfrwt>
<totfact> 0.74033378E+04</totfact>
</mgrwt>
</event>
<event>
 7    0  0.4793433E-002  0.4442532E+03  0.7546771E-02  0.1029450E+00
         21   -1    0    0  502  501  0.00000000000E+00  0.00000000000E+00  0.74380505557E+02  0.74380505557E+02  0.00000000000E+00 0.  1.
         21   -1    0    0  501  502 -0.00000000000E+00 -0.00000000000E+00 -0.66334877830E+03  0.66334877830E+03  0.00000000000E+00 0.  1.
      99926    2    1    2    0    0 -0.14210854715E-13  0.00000000000E+00 -0.58896827274E+03  0.73772928385E+03  0.44425315976E+03 0.  0.
      99925    2    3    3    0    0 -0.95779677746E+02  0.36612393228E+02 -0.36486310505E+03  0.46135119447E+03  0.26306962045E+03 0.  0.
         25    1    4    4    0    0 -0.21734687364E+02 -0.27979535962E+01 -0.20938184239E+03  0.24488464468E+03  0.12509000000E+03 0.  0.
         25    1    4    4    0    0 -0.74044990382E+02  0.39410346824E+02 -0.15548126266E+03  0.21646654979E+03  0.12509000000E+03 0.  0.
         25    1    3    3    0    0  0.95779677746E+02 -0.36612393228E+02 -0.22410516769E+03  0.27637808938E+03  0.12509000000E+03 0.  0.
<mgrwt>
<rscale>  2 0.44425316E+03</rscale>
<asrwt>0</asrwt>
<pdfrwt beam="1">  1       21 0.10938309E-01 0.44425316E+03</pdfrwt>
<pdfrwt beam="2">  1       21 0.97551296E-01 0.44425316E+03</pdfrwt>
<totfact> 0.55439634E+04</totfact>
</mgrwt>
</event>
<event>
 7    0  0.4793433E-002  0.4552173E+03  0.7546771E-02  0.1026178E+00
         21   -1    0    0  502  501  0.00000000000E+00  0.00000000000E+00  0.11883705194E+04  0.11883705194E+04  0.00000000000E+00 0. -1.
         21   -1    0    0  501  502 -0.00000000000E+00 -0.00000000000E+00 -0.43593893473E+02  0.43593893473E+02  0.00000000000E+00 0. -1.
      99926    2    1    2    0    0 -0.14210854715E-13  0.00000000000E+00  0.11447766259E+04  0.12319644128E+04  0.45521730120E+03 0.  0.
      99925    2    3    3    0    0 -0.69124316236E+02  0.89842152045E+02  0.72928229609E+03  0.78348606378E+03  0.26295999955E+03 0.  0.
         25    1    3    3    0    0  0.69124316236E+02 -0.89842152045E+02  0.41549432980E+03  0.44847834906E+03  0.12509000000E+03 0.  0.
         25    1    4    4    0    0  0.62216496275E+01  0.46292165838E+02  0.31895957917E+03  0.34578084792E+03  0.12509000000E+03 0.  0.
         25    1    4    4    0    0 -0.75345965864E+02  0.43549986208E+02  0.41032271692E+03  0.43770521586E+03  0.12509000000E+03 0.  0.
<mgrwt>
<rscale>  2 0.45521730E+03</rscale>
<asrwt>0</asrwt>
<pdfrwt beam="1">  1       21 0.17476035E+00 0.45521730E+03</pdfrwt>
<pdfrwt beam="2">  1       21 0.64108675E-02 0.45521730E+03</pdfrwt>
<totfact> 0.31103715E+04</totfact>
</mgrwt>
</event>
<event>
 7    0  0.4793433E-002  0.4523007E+03  0.7546771E-02  0.1027038E+00
         21   -1    0    0  502  501  0.00000000000E+00  0.00000000000E+00  0.75336084512E+02  0.75336084512E+02  0.00000000000E+00 0. -1.
         21   -1    0    0  501  502 -0.00000000000E+00 -0.00000000000E+00 -0.67887755840E+03  0.67887755840E+03  0.00000000000E+00 0. -1.
      99926    2    1    2    0    0  0.00000000000E+00  0.00000000000E+00 -0.60354147389E+03  0.75421364291E+03  0.45230068367E+03 0.  0.
      99925    2    3    3    0    0 -0.12294239205E+02 -0.79411222443E+02 -0.50737052973E+03  0.57714402619E+03  0.26308379265E+03 0.  0.
         25    1    3    3    0    0  0.12294239205E+02  0.79411222443E+02 -0.96170944163E+02  0.17706961673E+03  0.12509000000E+03 0.  0.
         25    1    4    4    0    0 -0.31810287763E+02 -0.13375642452E+02 -0.20278013041E+03  0.24074486829E+03  0.12509000000E+03 0.  0.
         25    1    4    4    0    0  0.19516048557E+02 -0.66035579991E+02 -0.30459039932E+03  0.33639915790E+03  0.12509000000E+03 0.  0.
<mgrwt>
<rscale>  2 0.45230068E+03</rscale>
<asrwt>0</asrwt>
<pdfrwt beam="1">  1       21 0.11078836E-01 0.45230068E+03</pdfrwt>
<pdfrwt beam="2">  1       21 0.99834938E-01 0.45230068E+03</pdfrwt>
<totfact> 0.51132474E+04</totfact>
</mgrwt>
</event>
<event>
 7    0  0.4793433E-002  0.4572525E+03  0.7546771E-02  0.1025581E+00
         21   -1    0    0  502  501  0.00000000000E+00  0.00000000000E+00  0.50475302040E+02  0.50475302040E+02  0.00000000000E+00 0.  1.
         21   -1    0    0  501  502 -0.00000000000E+00 -0.00000000000E+00 -0.10355551139E+04  0.10355551139E+04  0.00000000000E+00 0.  1.
      99926    2    1    2    0    0  0.00000000000E+00 -0.17763568394E-14 -0.98507981186E+03  0.10860304159E+04  0.45725247797E+03 0.  0.
      99925    2    3    3    0    0  0.25850409505E+02  0.44083485165E+01 -0.88525555296E+03  0.92385745897E+03  0.26295918549E+03 0.  0.
         25    1    3    3    0    0 -0.25850409505E+02 -0.44083485165E+01 -0.99824258898E+02  0.16217295697E+03  0.12509000000E+03 0.  0.
         25    1    4    4    0    0  0.37760786269E+02  0.34116971603E+02 -0.46511292006E+03  0.48432156801E+03  0.12509000000E+03 0.  0.
         25    1    4    4    0    0 -0.11910376764E+02 -0.29708623087E+02 -0.42014263290E+03  0.43953589096E+03  0.12509000000E+03 0.  0.
<mgrwt>
<rscale>  2 0.45725248E+03</rscale>
<asrwt>0</asrwt>
<pdfrwt beam="1">  1       21 0.74228386E-02 0.45725248E+03</pdfrwt>
<pdfrwt beam="2">  1       21 0.15228752E+00 0.45725248E+03</pdfrwt>
<totfact> 0.35356944E+04</totfact>
</mgrwt>
</event>
<event>
 7    0  0.4793433E-002  0.4550391E+03  0.7546771E-02  0.1026230E+00
         21   -1    0    0  502  501  0.00000000000E+00  0.00000000000E+00  0.59761030226E+02  0.59761030226E+02  0.00000000000E+00 0.  1.
         21   -1    0    0  501  502 -0.00000000000E+00 -0.00000000000E+00 -0.86620229034E+03  0.86620229034E+03  0.00000000000E+00 0.  1.
      99926    2    1    2    0    0  0.00000000000E+00  0.14210854715E-13 -0.80644126011E+03  0.92596332057E+03  0.45503908076E+03 0.  0.
      99925    2    3    3    0    0  0.46699256831E+02  0.10382891231E+03 -0.49022700404E+03  0.56735458188E+03  0.26193022442E+03 0.  0.
         25    1    3    3    0    0 -0.46699256831E+02 -0.10382891231E+03 -0.31621425607E+03  0.35860873869E+03  0.12509000000E+03 0.  0.
         25    1    4    4    0    0  0.31211735255E+02  0.16631081233E+02 -0.18917065676E+03  0.22952954224E+03  0.12509000000E+03 0.  0.
         25    1    4    4    0    0  0.15487521575E+02  0.87197831081E+02 -0.30105634728E+03  0.33782503964E+03  0.12509000000E+03 0.  0.
<mgrwt>
<rscale>  2 0.45503908E+03</rscale>
<asrwt>0</asrwt>
<pdfrwt beam="1">  1       21 0.87883874E-02 0.45503908E+03</pdfrwt>
<pdfrwt beam="2">  1       21 0.12738268E+00 0.45503908E+03</pdfrwt>
<totfact> 0.42116934E+04</totfact>
</mgrwt>
</event>
<event>
 7    0  0.4793433E-002  0.4551121E+03  0.7546771E-02  0.1026208E+00
         21   -1    0    0  502  501  0.00000000000E+00  0.00000000000E+00  0.18372777332E+03  0.18372777332E+03  0.00000000000E+00 0. -1.
         21   -1    0    0  501  502 -0.00000000000E+00 -0.00000000000E+00 -0.28183955288E+03  0.28183955288E+03  0.00000000000E+00 0. -1.
      99926    2    1    2    0    0  0.00000000000E+00  0.00000000000E+00 -0.98111779557E+02  0.46556732620E+03  0.45511208942E+03 0.  0.
      99925    2    3    3    0    0  0.58198703396E+02  0.78434932943E+02 -0.12060746611E+03  0.30527792606E+03  0.26288652205E+03 0.  0.
         25    1    3    3    0    0 -0.58198703396E+02 -0.78434932943E+02  0.22495686558E+02  0.16028940014E+03  0.12509000000E+03 0.  0.
         25    1    4    4    0    0  0.77195543742E+00  0.64725200142E+02 -0.46307749412E+02  0.14826281801E+03  0.12509000000E+03 0.  0.
         25    1    4    4    0    0  0.57426747959E+02  0.13709732801E+02 -0.74299716703E+02  0.15701510805E+03  0.12509000000E+03 0.  0.
<mgrwt>
<rscale>  2 0.45511209E+03</rscale>
<asrwt>0</asrwt>
<pdfrwt beam="1">  1       21 0.27018790E-01 0.45511209E+03</pdfrwt>
<pdfrwt beam="2">  1       21 0.41446993E-01 0.45511209E+03</pdfrwt>
<totfact> 0.67707176E+04</totfact>
</mgrwt>
</event>
<event>
 7    0  0.4793433E-002  0.4728905E+03  0.7546771E-02  0.1021108E+00
         21   -1    0    0  502  501  0.00000000000E+00  0.00000000000E+00  0.97290990521E+03  0.97290990521E+03  0.00000000000E+00 0.  1.
         21   -1    0    0  501  502 -0.00000000000E+00 -0.00000000000E+00 -0.57463033719E+02  0.57463033719E+02  0.00000000000E+00 0.  1.
      99926    2    1    2    0    0  0.28421709430E-13  0.88817841970E-15  0.91544687149E+03  0.10303729389E+04  0.47289049340E+03 0.  0.
      99925    2    3    3    0    0 -0.12828759372E+03 -0.74845936369E+01  0.58078128208E+03  0.65068584318E+03  0.26376399119E+03 0.  0.
         25    1    4    4    0    0 -0.85112474763E+02  0.31754990542E+02  0.28307988600E+03  0.32254339668E+03  0.12509000000E+03 0.  0.
         25    1    4    4    0    0 -0.43175118960E+02 -0.39239584179E+02  0.29770139608E+03  0.32814244649E+03  0.12509000000E+03 0.  0.
         25    1    3    3    0    0  0.12828759372E+03  0.74845936369E+01  0.33466558941E+03  0.37968709575E+03  0.12509000000E+03 0.  0.
<mgrwt>
<rscale>  2 0.47289049E+03</rscale>
<asrwt>0</asrwt>
<pdfrwt beam="1">  1       21 0.14307498E+00 0.47289049E+03</pdfrwt>
<pdfrwt beam="2">  1       21 0.84504467E-02 0.47289049E+03</pdfrwt>
<totfact> 0.33130793E+04</totfact>
</mgrwt>
</event>
<event>
 7    0  0.4793433E-002  0.4417923E+03  0.7546771E-02  0.1030198E+00
         21   -1    0    0  502  501  0.00000000000E+00  0.00000000000E+00  0.30312962637E+02  0.30312962637E+02  0.00000000000E+00 0. -1.
         21   -1    0    0  501  502 -0.00000000000E+00 -0.00000000000E+00 -0.16097109807E+04  0.16097109807E+04  0.00000000000E+00 0. -1.
      99926    2    1    2    0    0  0.00000000000E+00  0.00000000000E+00 -0.15793980181E+04  0.16400239434E+04  0.44179229878E+03 0.  0.
      99925    2    3    3    0    0  0.66914192879E+02  0.27594220829E+02 -0.75369372464E+03  0.80176739639E+03  0.26370016517E+03 0.  0.
         25    1    3    3    0    0 -0.66914192879E+02 -0.27594220829E+02 -0.82570429347E+03  0.83825654700E+03  0.12509000000E+03 0.  0.
         25    1    4    4    0    0  0.53296403129E+02 -0.55241935223E+01 -0.47656799065E+03  0.49561636486E+03  0.12509000000E+03 0.  0.
         25    1    4    4    0    0  0.13617789749E+02  0.33118414351E+02 -0.27712573399E+03  0.30615103153E+03  0.12509000000E+03 0.  0.
<mgrwt>
<rscale>  2 0.44179230E+03</rscale>
<asrwt>0</asrwt>
<pdfrwt beam="1">  1       21 0.44577877E-02 0.44179230E+03</pdfrwt>
<pdfrwt beam="2">  1       21 0.23672225E+00 0.44179230E+03</pdfrwt>
<totfact> 0.22789316E+04</totfact>
</mgrwt>
</event>
<event>
 7    0  0.4793433E-002  0.4533413E+03  0.7546771E-02  0.1026730E+00
         21   -1    0    0  502  501  0.00000000000E+00  0.00000000000E+00  0.44043766045E+02  0.44043766045E+02  0.00000000000E+00 0.  1.
         21   -1    0    0  501  502 -0.00000000000E+00 -0.00000000000E+00 -0.11665574497E+04  0.11665574497E+04  0.00000000000E+00 0.  1.
      99926    2    1    2    0    0  0.14210854715E-13  0.00000000000E+00 -0.11225136837E+04  0.12106012157E+04  0.45334129921E+03 0.  0.
      99925    2    3    3    0    0  0.82486179440E+02  0.53384772756E+02 -0.56587613801E+03  0.63168259531E+03  0.26296994865E+03 0.  0.
         25    1    3    3    0    0 -0.82486179440E+02 -0.53384772756E+02 -0.55663754565E+03  0.57891862044E+03  0.12509000000E+03 0.  0.
         25    1    4    4    0    0  0.74582222759E+02  0.52282012372E+02 -0.29121230036E+03  0.32976966014E+03  0.12509000000E+03 0.  0.
         25    1    4    4    0    0  0.79039566813E+01  0.11027603849E+01 -0.27466383765E+03  0.30191293517E+03  0.12509000000E+03 0.  0.
<mgrwt>
<rscale>  2 0.45334130E+03</rscale>
<asrwt>0</asrwt>
<pdfrwt beam="1">  1       21 0.64770245E-02 0.45334130E+03</pdfrwt>
<pdfrwt beam="2">  1       21 0.17155256E+00 0.45334130E+03</pdfrwt>
<totfact> 0.32236223E+04</totfact>
</mgrwt>
</event>
<event>
 7    0  0.4793433E-002  0.4543405E+03  0.7546771E-02  0.1026436E+00
         21   -1    0    0  502  501  0.00000000000E+00  0.00000000000E+00  0.14796508499E+03  0.14796508499E+03  0.00000000000E+00 0.  1.
         21   -1    0    0  501  502 -0.00000000000E+00 -0.00000000000E+00 -0.34877364774E+03  0.34877364774E+03  0.00000000000E+00 0.  1.
      99926    2    1    2    0    0  0.00000000000E+00  0.17763568394E-14 -0.20080856276E+03  0.49673873273E+03  0.45434049976E+03 0.  0.
      99925    2    3    3    0    0 -0.92147617339E+02 -0.89874121464E+01 -0.19644457959E+03  0.34105151615E+03  0.26297092398E+03 0.  0.
         25    1    3    3    0    0  0.92147617339E+02  0.89874121464E+01 -0.43639831657E+01  0.15568721658E+03  0.12509000000E+03 0.  0.
         25    1    4    4    0    0 -0.33409083368E+02  0.18109215956E+02 -0.56195152206E+02  0.14230078631E+03  0.12509000000E+03 0.  0.
         25    1    4    4    0    0 -0.58738533971E+02 -0.27096628102E+02 -0.14024942739E+03  0.19875072983E+03  0.12509000000E+03 0.  0.
<mgrwt>
<rscale>  2 0.45434050E+03</rscale>
<asrwt>0</asrwt>
<pdfrwt beam="1">  1       21 0.21759572E-01 0.45434050E+03</pdfrwt>
<pdfrwt beam="2">  1       21 0.51290241E-01 0.45434050E+03</pdfrwt>
<totfact> 0.65844429E+04</totfact>
</mgrwt>
</event>
<event>
 7    0  0.4793433E-002  0.4271450E+03  0.7546771E-02  0.1034766E+00
         21   -1    0    0  502  501  0.00000000000E+00  0.00000000000E+00  0.21642270666E+03  0.21642270666E+03  0.00000000000E+00 0. -1.
         21   -1    0    0  501  502 -0.00000000000E+00 -0.00000000000E+00 -0.21075978881E+03  0.21075978881E+03  0.00000000000E+00 0. -1.
      99926    2    1    2    0    0  0.00000000000E+00  0.00000000000E+00  0.56629178518E+01  0.42718249547E+03  0.42714495876E+03 0.  0.
      99925    2    3    3    0    0  0.56227895321E+02  0.23176347709E+02  0.61938786037E+02  0.27713849944E+03  0.26319311418E+03 0.  0.
         25    1    4    4    0    0  0.12078734766E+02  0.34813833165E+02  0.61015881228E+02  0.14397341656E+03  0.12509000000E+03 0.  0.
         25    1    3    3    0    0 -0.56227895321E+02 -0.23176347709E+02 -0.56275868186E+02  0.15004399603E+03  0.12509000000E+03 0.  0.
         25    1    4    4    0    0  0.44149160555E+02 -0.11637485456E+02  0.92290480949E+00  0.13316508288E+03  0.12509000000E+03 0.  0.
<mgrwt>
<rscale>  2 0.42714496E+03</rscale>
<asrwt>0</asrwt>
<pdfrwt beam="1">  1       21 0.31826869E-01 0.42714496E+03</pdfrwt>
<pdfrwt beam="2">  1       21 0.30994086E-01 0.42714496E+03</pdfrwt>
<totfact> 0.88785864E+04</totfact>
</mgrwt>
</event>
<event>
 7    0  0.4793433E-002  0.4581841E+03  0.7546771E-02  0.1025309E+00
         21   -1    0    0  502  501  0.00000000000E+00  0.00000000000E+00  0.44788871294E+03  0.44788871294E+03  0.00000000000E+00 0.  1.
         21   -1    0    0  501  502 -0.00000000000E+00 -0.00000000000E+00 -0.11717901467E+03  0.11717901467E+03  0.00000000000E+00 0.  1.
      99926    2    1    2    0    0  0.00000000000E+00  0.00000000000E+00  0.33070969827E+03  0.56506772762E+03  0.45818405937E+03 0.  0.
      99925    2    3    3    0    0 -0.15051896323E+02 -0.80234261479E+02  0.10529804677E+03  0.29465689753E+03  0.26281345534E+03 0.  0.
         25    1    4    4    0    0 -0.25887490639E+01 -0.80528513922E+02  0.67505395078E+02  0.16338919683E+03  0.12509000000E+03 0.  0.
         25    1    4    4    0    0 -0.12463147259E+02  0.29425244281E+00  0.37792651693E+02  0.13126770070E+03  0.12509000000E+03 0.  0.
         25    1    3    3    0    0  0.15051896323E+02  0.80234261479E+02  0.22541165150E+03  0.27041083009E+03  0.12509000000E+03 0.  0.
<mgrwt>
<rscale>  2 0.45818406E+03</rscale>
<asrwt>0</asrwt>
<pdfrwt beam="1">  1       21 0.65865987E-01 0.45818406E+03</pdfrwt>
<pdfrwt beam="2">  1       21 0.17232208E-01 0.45818406E+03</pdfrwt>
<totfact> 0.59372343E+04</totfact>
</mgrwt>
</event>
<event>
 7    0  0.4793433E-002  0.4669175E+03  0.7546771E-02  0.1022794E+00
         21   -1    0    0  502  501  0.00000000000E+00  0.00000000000E+00  0.25962333411E+03  0.25962333411E+03  0.00000000000E+00 0. -1.
         21   -1    0    0  501  502 -0.00000000000E+00 -0.00000000000E+00 -0.20993098844E+03  0.20993098844E+03  0.00000000000E+00 0. -1.
      99926    2    1    2    0    0  0.00000000000E+00  0.14210854715E-13  0.49692345671E+02  0.46955432256E+03  0.46691747945E+03 0.  0.
      99925    2    3    3    0    0 -0.55887773500E+02 -0.11027267692E+03  0.40541547586E+02  0.29344426689E+03  0.26302550102E+03 0.  0.
         25    1    3    3    0    0  0.55887773500E+02  0.11027267692E+03  0.91507980846E+01  0.17611005567E+03  0.12509000000E+03 0.  0.
         25    1    4    4    0    0  0.69666414150E+01 -0.29275053554E+02  0.23821924264E+02  0.13084553882E+03  0.12509000000E+03 0.  0.
         25    1    4    4    0    0 -0.62854414915E+02 -0.80997623366E+02  0.16719623323E+02  0.16259872807E+03  0.12509000000E+03 0.  0.
<mgrwt>
<rscale>  2 0.46691748E+03</rscale>
<asrwt>0</asrwt>
<pdfrwt beam="1">  1       21 0.38179902E-01 0.46691748E+03</pdfrwt>
<pdfrwt beam="2">  1       21 0.30872204E-01 0.46691748E+03</pdfrwt>
<totfact> 0.61439365E+04</totfact>
</mgrwt>
</event>
<event>
 7    0  0.4793433E-002  0.4497220E+03  0.7546771E-02  0.1027805E+00
         21   -1    0    0  502  501  0.00000000000E+00  0.00000000000E+00  0.62143816450E+03  0.62143816450E+03  0.00000000000E+00 0. -1.
         21   -1    0    0  501  502 -0.00000000000E+00 -0.00000000000E+00 -0.81363640570E+02  0.81363640570E+02  0.00000000000E+00 0. -1.
      99926    2    1    2    0    0  0.00000000000E+00  0.00000000000E+00  0.54007452393E+03  0.70280180507E+03  0.44972200948E+03 0.  0.
      99925    2    3    3    0    0 -0.57013316288E+02  0.54882317211E+02  0.22591343732E+03  0.35551621162E+03  0.26285415840E+03 0.  0.
         25    1    4    4    0    0 -0.60726256802E+02  0.24572032583E+02  0.15015273663E+03  0.20611845009E+03  0.12509000000E+03 0.  0.
         25    1    3    3    0    0  0.57013316288E+02 -0.54882317211E+02  0.31416108660E+03  0.34728559344E+03  0.12509000000E+03 0.  0.
         25    1    4    4    0    0  0.37129405141E+01  0.30310284628E+02  0.75760700692E+02  0.14939776153E+03  0.12509000000E+03 0.  0.
<mgrwt>
<rscale>  2 0.44972201E+03</rscale>
<asrwt>0</asrwt>
<pdfrwt beam="1">  1       21 0.91387963E-01 0.44972201E+03</pdfrwt>
<pdfrwt beam="2">  1       21 0.11965242E-01 0.44972201E+03</pdfrwt>
<totfact> 0.55000067E+04</totfact>
</mgrwt>
</event>
<event>
 7    0  0.4793433E-002  0.4492436E+03  0.7546771E-02  0.1027948E+00
         21   -1    0    0  502  501  0.00000000000E+00  0.00000000000E+00  0.28658970694E+04  0.28658970694E+04  0.00000000000E+00 0. -1.
         21   -1    0    0  501  502 -0.00000000000E+00 -0.00000000000E+00 -0.17605293483E+02  0.17605293483E+02  0.00000000000E+00 0. -1.
      99926    2    1    2    0    0  0.00000000000E+00  0.00000000000E+00  0.28482917759E+04  0.28835023629E+04  0.44924362655E+03 0.  0.
      99925    2    3    3    0    0 -0.50604371739E+02 -0.37300892723E+02  0.12441867650E+04  0.12732997193E+04  0.26332358440E+03 0.  0.
         25    1    3    3    0    0  0.50604371739E+02  0.37300892723E+02  0.16041050109E+04  0.16102026435E+04  0.12509000000E+03 0.  0.
         25    1    4    4    0    0 -0.31992979368E+02  0.18641857055E+02  0.68107263481E+03  0.69345404429E+03  0.12509000000E+03 0.  0.
         25    1    4    4    0    0 -0.18611392371E+02 -0.55942749779E+02  0.56311413017E+03  0.57984567505E+03  0.12509000000E+03 0.  0.
<mgrwt>
<rscale>  2 0.44924363E+03</rscale>
<asrwt>0</asrwt>
<pdfrwt beam="1">  1       21 0.42145513E+00 0.44924363E+03</pdfrwt>
<pdfrwt beam="2">  1       21 0.25890157E-02 0.44924363E+03</pdfrwt>
<totfact> 0.41317375E+03</totfact>
</mgrwt>
</event>
<event>
 7    0  0.4793433E-002  0.4723463E+03  0.7546771E-02  0.1021260E+00
         21   -1    0    0  502  501  0.00000000000E+00  0.00000000000E+00  0.36222180719E+03  0.36222180719E+03  0.00000000000E+00 0. -1.
         21   -1    0    0  501  502 -0.00000000000E+00 -0.00000000000E+00 -0.15398783755E+03  0.15398783755E+03  0.00000000000E+00 0. -1.
      99926    2    1    2    0    0  0.00000000000E+00 -0.14210854715E-13  0.20823396964E+03  0.51620964474E+03  0.47234628315E+03 0.  0.
      99925    2    3    3    0    0 -0.29860877901E+02 -0.61432881311E+02  0.24837241882E+03  0.36814116687E+03  0.26300834470E+03 0.  0.
         25    1    4    4    0    0 -0.26692153629E+02 -0.69626120668E+02  0.14663559081E+03  0.20666342767E+03  0.12509000000E+03 0.  0.
         25    1    3    3    0    0  0.29860877901E+02  0.61432881311E+02 -0.40138449172E+02  0.14806847786E+03  0.12509000000E+03 0.  0.
         25    1    4    4    0    0 -0.31687242718E+01  0.81932393569E+01  0.10173682801E+03  0.16147773920E+03  0.12509000000E+03 0.  0.
<mgrwt>
<rscale>  2 0.47234628E+03</rscale>
<asrwt>0</asrwt>
<pdfrwt beam="1">  1       21 0.53267913E-01 0.47234628E+03</pdfrwt>
<pdfrwt beam="2">  1       21 0.22645270E-01 0.47234628E+03</pdfrwt>
<totfact> 0.56026211E+04</totfact>
</mgrwt>
</event>
<event>
 7    0  0.4793433E-002  0.4469658E+03  0.7546771E-02  0.1028631E+00
         21   -1    0    0  502  501  0.00000000000E+00  0.00000000000E+00  0.39614287777E+02  0.39614287777E+02  0.00000000000E+00 0. -1.
         21   -1    0    0  501  502 -0.00000000000E+00 -0.00000000000E+00 -0.12607727537E+04  0.12607727537E+04  0.00000000000E+00 0. -1.
      99926    2    1    2    0    0  0.00000000000E+00 -0.14210854715E-13 -0.12211584660E+04  0.13003870415E+04  0.44696583622E+03 0.  0.
      99925    2    3    3    0    0 -0.42174932224E+02  0.95925686928E+02 -0.80887682734E+03  0.85698641007E+03  0.26298958709E+03 0.  0.
         25    1    3    3    0    0  0.42174932224E+02 -0.95925686928E+02 -0.41228163863E+03  0.44340063145E+03  0.12509000000E+03 0.  0.
         25    1    4    4    0    0 -0.61208262711E+02  0.47163753897E+02 -0.39622109847E+03  0.42262221673E+03  0.12509000000E+03 0.  0.
         25    1    4    4    0    0  0.19033330487E+02  0.48761933031E+02 -0.41265572887E+03  0.43436419334E+03  0.12509000000E+03 0.  0.
<mgrwt>
<rscale>  2 0.44696584E+03</rscale>
<asrwt>0</asrwt>
<pdfrwt beam="1">  1       21 0.58256315E-02 0.44696584E+03</pdfrwt>
<pdfrwt beam="2">  1       21 0.18540773E+00 0.44696584E+03</pdfrwt>
<totfact> 0.30995332E+04</totfact>
</mgrwt>
</event>
<event>
 7    0  0.4793433E-002  0.4499062E+03  0.7546771E-02  0.1027750E+00
         21   -1    0    0  502  501  0.00000000000E+00  0.00000000000E+00  0.12327928709E+04  0.12327928709E+04  0.00000000000E+00 0. -1.
         21   -1    0    0  501  502 -0.00000000000E+00 -0.00000000000E+00 -0.41048172193E+02  0.41048172193E+02  0.00000000000E+00 0. -1.
      99926    2    1    2    0    0  0.00000000000E+00  0.00000000000E+00  0.11917446987E+04  0.12738410431E+04  0.44990618596E+03 0.  0.
      99925    2    3    3    0    0 -0.67281557569E+02  0.31195344502E+02  0.53031187982E+03  0.59661077243E+03  0.26308509343E+03 0.  0.
         25    1    4    4    0    0 -0.28077530040E+02  0.55179861472E+02  0.25324558753E+03  0.28916085576E+03  0.12509000000E+03 0.  0.
         25    1    4    4    0    0 -0.39204027529E+02 -0.23984516970E+02  0.27706629230E+03  0.30744991666E+03  0.12509000000E+03 0.  0.
         25    1    3    3    0    0  0.67281557569E+02 -0.31195344502E+02  0.66143281887E+03  0.67723027065E+03  0.12509000000E+03 0.  0.
<mgrwt>
<rscale>  2 0.44990619E+03</rscale>
<asrwt>0</asrwt>
<pdfrwt beam="1">  1       21 0.18129305E+00 0.44990619E+03</pdfrwt>
<pdfrwt beam="2">  1       21 0.60364967E-02 0.44990619E+03</pdfrwt>
<totfact> 0.31098258E+04</totfact>
</mgrwt>
</event>
<event>
 7    0  0.4793433E-002  0.4500565E+03  0.7546771E-02  0.1027705E+00
         21   -1    0    0  502  501  0.00000000000E+00  0.00000000000E+00  0.12939190712E+04  0.12939190712E+04  0.00000000000E+00 0.  1.
         21   -1    0    0  501  502 -0.00000000000E+00 -0.00000000000E+00 -0.39135148604E+02  0.39135148604E+02  0.00000000000E+00 0.  1.
      99926    2    1    2    0    0  0.71054273576E-14  0.00000000000E+00  0.12547839226E+04  0.13330542199E+04  0.45005650816E+03 0.  0.
      99925    2    3    3    0    0  0.51943239878E+02 -0.94354468555E+02  0.83313123569E+03  0.88024149651E+03  0.26290030504E+03 0.  0.
         25    1    4    4    0    0  0.34499975988E+01 -0.81137116430E+02  0.45223209394E+03  0.47618957258E+03  0.12509000000E+03 0.  0.
         25    1    3    3    0    0 -0.51943239878E+02  0.94354468555E+02  0.42165268695E+03  0.45281272334E+03  0.12509000000E+03 0.  0.
         25    1    4    4    0    0  0.48493242279E+02 -0.13217352124E+02  0.38089914175E+03  0.40405192393E+03  0.12509000000E+03 0.  0.
<mgrwt>
<rscale>  2 0.45005651E+03</rscale>
<asrwt>0</asrwt>
<pdfrwt beam="1">  1       21 0.19028219E+00 0.45005651E+03</pdfrwt>
<pdfrwt beam="2">  1       21 0.57551698E-02 0.45005651E+03</pdfrwt>
<totfact> 0.29279034E+04</totfact>
</mgrwt>
</event>
<event>
 7    0  0.4793433E-002  0.4542918E+03  0.7546771E-02  0.1026450E+00
         21   -1    0    0  502  501  0.00000000000E+00  0.00000000000E+00  0.17692207547E+03  0.17692207547E+03  0.00000000000E+00 0. -1.
         21   -1    0    0  501  502 -0.00000000000E+00 -0.00000000000E+00 -0.29162698777E+03  0.29162698777E+03  0.00000000000E+00 0. -1.
      99926    2    1    2    0    0 -0.35527136788E-14  0.00000000000E+00 -0.11470491230E+03  0.46854906324E+03  0.45429176501E+03 0.  0.
      99925    2    3    3    0    0 -0.81251657735E+01 -0.65732115661E+02 -0.16599962799E+03  0.31799878823E+03  0.26302209694E+03 0.  0.
         25    1    4    4    0    0  0.19907199154E+02 -0.65654072666E+02 -0.79109448710E+02  0.16313358578E+03  0.12509000000E+03 0.  0.
         25    1    3    3    0    0  0.81251657735E+01  0.65732115661E+02  0.51294715687E+02  0.15055027501E+03  0.12509000000E+03 0.  0.
         25    1    4    4    0    0 -0.28032364927E+02 -0.78042994524E-01 -0.86890179278E+02  0.15486520245E+03  0.12509000000E+03 0.  0.
<mgrwt>
<rscale>  2 0.45429177E+03</rscale>
<asrwt>0</asrwt>
<pdfrwt beam="1">  1       21 0.26017953E-01 0.45429177E+03</pdfrwt>
<pdfrwt beam="2">  1       21 0.42886321E-01 0.45429177E+03</pdfrwt>
<totfact> 0.67924627E+04</totfact>
</mgrwt>
</event>
<event>
 7    0  0.4793433E-002  0.4397132E+03  0.7546771E-02  0.1030835E+00
         21   -1    0    0  502  501  0.00000000000E+00  0.00000000000E+00  0.20827601628E+03  0.20827601628E+03  0.00000000000E+00 0.  1.
         21   -1    0    0  501  502 -0.00000000000E+00 -0.00000000000E+00 -0.23208108921E+03  0.23208108921E+03  0.00000000000E+00 0.  1.
      99926    2    1    2    0    0  0.00000000000E+00  0.71054273576E-14 -0.23805072930E+02  0.44035710548E+03  0.43971320068E+03 0.  0.
      99925    2    3    3    0    0  0.15073076627E+02 -0.56990787603E+02  0.63394932713E+02  0.27687470094E+03  0.26299341250E+03 0.  0.
         25    1    4    4    0    0  0.12270111707E+02 -0.47832575091E+02 -0.38375782174E+01  0.13453901288E+03  0.12509000000E+03 0.  0.
         25    1    4    4    0    0  0.28029649207E+01 -0.91582125118E+01  0.67232510930E+02  0.14233568806E+03  0.12509000000E+03 0.  0.
         25    1    3    3    0    0 -0.15073076627E+02  0.56990787603E+02 -0.87200005642E+02  0.16348240454E+03  0.12509000000E+03 0.  0.
<mgrwt>
<rscale>  2 0.43971320E+03</rscale>
<asrwt>0</asrwt>
<pdfrwt beam="1">  1       21 0.30628826E-01 0.43971320E+03</pdfrwt>
<pdfrwt beam="2">  1       21 0.34129572E-01 0.43971320E+03</pdfrwt>
<totfact> 0.78815516E+04</totfact>
</mgrwt>
</event>
<event>
 7    0  0.4793433E-002  0.4601082E+03  0.7546771E-02  0.1024750E+00
         21   -1    0    0  502  501  0.00000000000E+00  0.00000000000E+00  0.36177007669E+02  0.36177007669E+02  0.00000000000E+00 0.  1.
         21   -1    0    0  501  502 -0.00000000000E+00 -0.00000000000E+00 -0.14629428799E+04  0.14629428799E+04  0.00000000000E+00 0.  1.
      99926    2    1    2    0    0 -0.17763568394E-14 -0.14210854715E-13 -0.14267658722E+04  0.14991198876E+04  0.46010822982E+03 0.  0.
      99925    2    3    3    0    0  0.78962123389E+01 -0.94941280907E+02 -0.11223459929E+04  0.11564901048E+04  0.26216910155E+03 0.  0.
         25    1    4    4    0    0 -0.86691160526E+01 -0.90243588948E+01 -0.54394667651E+03  0.55828495198E+03  0.12509000000E+03 0.  0.
         25    1    3    3    0    0 -0.78962123389E+01  0.94941280907E+02 -0.30441987938E+03  0.34262978278E+03  0.12509000000E+03 0.  0.
         25    1    4    4    0    0  0.16565328392E+02 -0.85916922012E+02 -0.57839931636E+03  0.59820515282E+03  0.12509000000E+03 0.  0.
<mgrwt>
<rscale>  2 0.46010823E+03</rscale>
<asrwt>0</asrwt>
<pdfrwt beam="1">  1       21 0.53201475E-02 0.46010823E+03</pdfrwt>
<pdfrwt beam="2">  1       21 0.21513869E+00 0.46010823E+03</pdfrwt>
<totfact> 0.22879357E+04</totfact>
</mgrwt>
</event>
<event>
 7    0  0.4793433E-002  0.4550006E+03  0.7546771E-02  0.1026241E+00
         21   -1    0    0  502  501  0.00000000000E+00  0.00000000000E+00  0.17554406563E+03  0.17554406563E+03  0.00000000000E+00 0. -1.
         21   -1    0    0  501  502 -0.00000000000E+00 -0.00000000000E+00 -0.29483413446E+03  0.29483413446E+03  0.00000000000E+00 0. -1.
      99926    2    1    2    0    0  0.00000000000E+00  0.14210854715E-13 -0.11929006884E+03  0.47037820009E+03  0.45500058307E+03 0.  0.
      99925    2    3    3    0    0 -0.41508664777E+02 -0.10531238018E+03 -0.72687838271E+02  0.29535550824E+03  0.26294046425E+03 0.  0.
         25    1    4    4    0    0 -0.55673039228E+02 -0.36468816801E+02 -0.23216199900E+02  0.14358259621E+03  0.12509000000E+03 0.  0.
         25    1    3    3    0    0  0.41508664777E+02  0.10531238018E+03 -0.46602230566E+02  0.17502269186E+03  0.12509000000E+03 0.  0.
         25    1    4    4    0    0  0.14164374451E+02 -0.68843563380E+02 -0.49471638372E+02  0.15177291203E+03  0.12509000000E+03 0.  0.
<mgrwt>
<rscale>  2 0.45500058E+03</rscale>
<asrwt>0</asrwt>
<pdfrwt beam="1">  1       21 0.25815304E-01 0.45500058E+03</pdfrwt>
<pdfrwt beam="2">  1       21 0.43357960E-01 0.45500058E+03</pdfrwt>
<totfact> 0.67407280E+04</totfact>
</mgrwt>
</event>
<event>
 7    0  0.4793433E-002  0.4586970E+03  0.7546771E-02  0.1025160E+00
         21   -1    0    0  502  501  0.00000000000E+00  0.00000000000E+00  0.30053389478E+03  0.30053389478E+03  0.00000000000E+00 0.  1.
         21   -1    0    0  501  502 -0.00000000000E+00 -0.00000000000E+00 -0.17502431583E+03  0.17502431583E+03  0.00000000000E+00 0.  1.
      99926    2    1    2    0    0  0.00000000000E+00  0.71054273576E-14  0.12550957895E+03  0.47555821062E+03  0.45869702122E+03 0.  0.
      99925    2    3    3    0    0 -0.50480858230E+02  0.54148173025E+02  0.17209679930E+03  0.32292066972E+03  0.26302111876E+03 0.  0.
         25    1    3    3    0    0  0.50480858230E+02 -0.54148173025E+02 -0.46587220350E+02  0.15263754089E+03  0.12509000000E+03 0.  0.
         25    1    4    4    0    0 -0.59241497676E+02  0.51880854858E+02  0.91674361628E+02  0.17393353566E+03  0.12509000000E+03 0.  0.
         25    1    4    4    0    0  0.87606394459E+01  0.22673181667E+01  0.80422437671E+02  0.14898713406E+03  0.12509000000E+03 0.  0.
<mgrwt>
<rscale>  2 0.45869702E+03</rscale>
<asrwt>0</asrwt>
<pdfrwt beam="1">  1       21 0.44196161E-01 0.45869702E+03</pdfrwt>
<pdfrwt beam="2">  1       21 0.25738870E-01 0.45869702E+03</pdfrwt>
<totfact> 0.65094228E+04</totfact>
</mgrwt>
</event>
<event>
 7    0  0.4793433E-002  0.4558735E+03  0.7546771E-02  0.1025985E+00
         21   -1    0    0  502  501  0.00000000000E+00  0.00000000000E+00  0.66396306069E+03  0.66396306069E+03  0.00000000000E+00 0.  1.
         21   -1    0    0  501  502 -0.00000000000E+00 -0.00000000000E+00 -0.78250091361E+02  0.78250091361E+02  0.00000000000E+00 0.  1.
      99926    2    1    2    0    0  0.00000000000E+00  0.35527136788E-14  0.58571296933E+03  0.74221315205E+03  0.45587353579E+03 0.  0.
      99925    2    3    3    0    0  0.10802635160E+03  0.17598019971E+02  0.31451599471E+03  0.42413346064E+03  0.26265852081E+03 0.  0.
         25    1    3    3    0    0 -0.10802635160E+03 -0.17598019971E+02  0.27119697462E+03  0.31807969141E+03  0.12509000000E+03 0.  0.
         25    1    4    4    0    0  0.28307170107E+02  0.39743856272E+02  0.13880889317E+03  0.19312246610E+03  0.12509000000E+03 0.  0.
         25    1    4    4    0    0  0.79719181495E+02 -0.22145836301E+02  0.17570710154E+03  0.23101099453E+03  0.12509000000E+03 0.  0.
<mgrwt>
<rscale>  2 0.45587354E+03</rscale>
<asrwt>0</asrwt>
<pdfrwt beam="1">  1       21 0.97641624E-01 0.45587354E+03</pdfrwt>
<pdfrwt beam="2">  1       21 0.11507367E-01 0.45587354E+03</pdfrwt>
<totfact> 0.50323795E+04</totfact>
</mgrwt>
</event>
<event>
 7    0  0.4793433E-002  0.4595577E+03  0.7546771E-02  0.1024910E+00
         21   -1    0    0  502  501  0.00000000000E+00  0.00000000000E+00  0.35897315720E+02  0.35897315720E+02  0.00000000000E+00 0. -1.
         21   -1    0    0  501  502 -0.00000000000E+00 -0.00000000000E+00 -0.14708151851E+04  0.14708151851E+04  0.00000000000E+00 0. -1.
      99926    2    1    2    0    0 -0.53290705182E-14  0.00000000000E+00 -0.14349178693E+04  0.15067125008E+04  0.45955768763E+03 0.  0.
      99925    2    3    3    0    0  0.12200136967E+02  0.10054577246E+03 -0.70443591913E+03  0.75870870174E+03  0.26296508177E+03 0.  0.
         25    1    3    3    0    0 -0.12200136967E+02 -0.10054577246E+03 -0.73048195020E+03  0.74800379904E+03  0.12509000000E+03 0.  0.
         25    1    4    4    0    0 -0.33132573832E+02  0.42381489222E+02 -0.32024298523E+03  0.34798999377E+03  0.12509000000E+03 0.  0.
         25    1    4    4    0    0  0.45332710799E+02  0.58164283236E+02 -0.38419293391E+03  0.41071870797E+03  0.12509000000E+03 0.  0.
<mgrwt>
<rscale>  2 0.45955769E+03</rscale>
<asrwt>0</asrwt>
<pdfrwt beam="1">  1       21 0.52790163E-02 0.45955769E+03</pdfrwt>
<pdfrwt beam="2">  1       21 0.21629638E+00 0.45955769E+03</pdfrwt>
<totfact> 0.22797310E+04</totfact>
</mgrwt>
</event>
<event>
 7    0  0.4793433E-002  0.4781629E+03  0.7546771E-02  0.1019641E+00
         21   -1    0    0  502  501  0.00000000000E+00  0.00000000000E+00  0.56535880654E+03  0.56535880654E+03  0.00000000000E+00 0. -1.
         21   -1    0    0  501  502 -0.00000000000E+00 -0.00000000000E+00 -0.10110384845E+03  0.10110384845E+03  0.00000000000E+00 0. -1.
      99926    2    1    2    0    0  0.00000000000E+00 -0.71054273576E-14  0.46425495809E+03  0.66646265500E+03  0.47816294754E+03 0.  0.
      99925    2    3    3    0    0 -0.10544249145E+03 -0.45118639282E+02  0.19201783932E+03  0.34565996245E+03  0.26354534412E+03 0.  0.
         25    1    3    3    0    0  0.10544249145E+03  0.45118639282E+02  0.27223711877E+03  0.32080269255E+03  0.12509000000E+03 0.  0.
         25    1    4    4    0    0 -0.84845517097E+02 -0.53224027246E+02  0.10175280420E+03  0.18982281241E+03  0.12509000000E+03 0.  0.
         25    1    4    4    0    0 -0.20596974354E+02  0.81053879642E+01  0.90265035124E+02  0.15583715004E+03  0.12509000000E+03 0.  0.
<mgrwt>
<rscale>  2 0.47816295E+03</rscale>
<asrwt>0</asrwt>
<pdfrwt beam="1">  1       21 0.83140999E-01 0.47816295E+03</pdfrwt>
<pdfrwt beam="2">  1       21 0.14868213E-01 0.47816295E+03</pdfrwt>
<totfact> 0.45804462E+04</totfact>
</mgrwt>
</event>
<event>
 7    0  0.4793433E-002  0.4468562E+03  0.7546771E-02  0.1028664E+00
         21   -1    0    0  502  501  0.00000000000E+00  0.00000000000E+00  0.82044919926E+02  0.82044919926E+02  0.00000000000E+00 0.  1.
         21   -1    0    0  501  502 -0.00000000000E+00 -0.00000000000E+00 -0.60844862829E+03  0.60844862829E+03  0.00000000000E+00 0.  1.
      99926    2    1    2    0    0  0.00000000000E+00 -0.71054273576E-14 -0.52640370836E+03  0.69049354821E+03  0.44685621395E+03 0.  0.
      99925    2    3    3    0    0  0.72208601379E+02  0.58959870028E+02 -0.40747932705E+03  0.49432814617E+03  0.26387604238E+03 0.  0.
         25    1    4    4    0    0  0.25535292429E+02  0.11986789351E+02 -0.26010409935E+03  0.28999549114E+03  0.12509000000E+03 0.  0.
         25    1    4    4    0    0  0.46673308950E+02  0.46973080677E+02 -0.14737522769E+03  0.20433265504E+03  0.12509000000E+03 0.  0.
         25    1    3    3    0    0 -0.72208601379E+02 -0.58959870028E+02 -0.11892438131E+03  0.19616540204E+03  0.12509000000E+03 0.  0.
<mgrwt>
<rscale>  2 0.44685621E+03</rscale>
<asrwt>0</asrwt>
<pdfrwt beam="1">  1       21 0.12065429E-01 0.44685621E+03</pdfrwt>
<pdfrwt beam="2">  1       21 0.89477739E-01 0.44685621E+03</pdfrwt>
<totfact> 0.56988579E+04</totfact>
</mgrwt>
</event>
<event>
 7    0  0.4793433E-002  0.4632409E+03  0.7546771E-02  0.1023845E+00
         21   -1    0    0  502  501  0.00000000000E+00  0.00000000000E+00  0.20742976349E+03  0.20742976349E+03  0.00000000000E+00 0. -1.
         21   -1    0    0  501  502 -0.00000000000E+00 -0.00000000000E+00 -0.25863224288E+03  0.25863224288E+03  0.00000000000E+00 0. -1.
      99926    2    1    2    0    0  0.00000000000E+00  0.00000000000E+00 -0.51202479381E+02  0.46606200637E+03  0.46324086595E+03 0.  0.
      99925    2    3    3    0    0 -0.96149236052E+02 -0.34848719122E+02 -0.96261367737E+02  0.29832137224E+03  0.26319247976E+03 0.  0.
         25    1    3    3    0    0  0.96149236052E+02  0.34848719122E+02  0.45058888356E+02  0.16774063413E+03  0.12509000000E+03 0.  0.
         25    1    4    4    0    0 -0.20462299489E+02  0.15436686822E+02 -0.40392035240E+02  0.13392543303E+03  0.12509000000E+03 0.  0.
         25    1    4    4    0    0 -0.75686936563E+02 -0.50285405944E+02 -0.55869332497E+02  0.16439593922E+03  0.12509000000E+03 0.  0.
<mgrwt>
<rscale>  2 0.46324087E+03</rscale>
<asrwt>0</asrwt>
<pdfrwt beam="1">  1       21 0.30504377E-01 0.46324087E+03</pdfrwt>
<pdfrwt beam="2">  1       21 0.38034153E-01 0.46324087E+03</pdfrwt>
<totfact> 0.63466161E+04</totfact>
</mgrwt>
</event>
<event>
 7    0  0.4793433E-002  0.4653095E+03  0.7546771E-02  0.1023252E+00
         21   -1    0    0  502  501  0.00000000000E+00  0.00000000000E+00  0.40472231090E+02  0.40472231090E+02  0.00000000000E+00 0. -1.
         21   -1    0    0  501  502 -0.00000000000E+00 -0.00000000000E+00 -0.13374166725E+04  0.13374166725E+04  0.00000000000E+00 0. -1.
      99926    2    1    2    0    0  0.00000000000E+00 -0.14210854715E-13 -0.12969444414E+04  0.13778889036E+04  0.46530951692E+03 0.  0.
      99925    2    3    3    0    0 -0.44586077169E+02 -0.10682270771E+03 -0.68980370576E+03  0.74728095078E+03  0.26306017898E+03 0.  0.
         25    1    4    4    0    0 -0.27631080971E+02 -0.18468330048E+02 -0.37675102434E+03  0.39836339979E+03  0.12509000000E+03 0.  0.
         25    1    3    3    0    0  0.44586077169E+02  0.10682270771E+03 -0.60714073568E+03  0.63060795284E+03  0.12509000000E+03 0.  0.
         25    1    4    4    0    0 -0.16954996199E+02 -0.88354377659E+02 -0.31305268142E+03  0.34891755099E+03  0.12509000000E+03 0.  0.
<mgrwt>
<rscale>  2 0.46530952E+03</rscale>
<asrwt>0</asrwt>
<pdfrwt beam="1">  1       21 0.59517980E-02 0.46530952E+03</pdfrwt>
<pdfrwt beam="2">  1       21 0.19667895E+00 0.46530952E+03</pdfrwt>
<totfact> 0.24873707E+04</totfact>
</mgrwt>
</event>
<event>
 7    0  0.4793433E-002  0.4566977E+03  0.7546771E-02  0.1025743E+00
         21   -1    0    0  502  501  0.00000000000E+00  0.00000000000E+00  0.62684531080E+02  0.62684531080E+02  0.00000000000E+00 0.  1.
         21   -1    0    0  501  502 -0.00000000000E+00 -0.00000000000E+00 -0.83183525909E+03  0.83183525909E+03  0.00000000000E+00 0.  1.
      99926    2    1    2    0    0  0.00000000000E+00  0.00000000000E+00 -0.76915072801E+03  0.89451979017E+03  0.45669772564E+03 0.  0.
      99925    2    3    3    0    0  0.10620535783E+03  0.20545115626E+02 -0.55837991802E+03  0.62661398162E+03  0.26297389474E+03 0.  0.
         25    1    4    4    0    0  0.84832768387E+02  0.37134163857E+02 -0.28388863178E+03  0.32375269585E+03  0.12509000000E+03 0.  0.
         25    1    4    4    0    0  0.21372589439E+02 -0.16589048231E+02 -0.27449128623E+03  0.30286128577E+03  0.12509000000E+03 0.  0.
         25    1    3    3    0    0 -0.10620535783E+03 -0.20545115626E+02 -0.21077081000E+03  0.26790580855E+03  0.12509000000E+03 0.  0.
<mgrwt>
<rscale>  2 0.45669773E+03</rscale>
<asrwt>0</asrwt>
<pdfrwt beam="1">  1       21 0.92183132E-02 0.45669773E+03</pdfrwt>
<pdfrwt beam="2">  1       21 0.12232872E+00 0.45669773E+03</pdfrwt>
<totfact> 0.42898361E+04</totfact>
</mgrwt>
</event>
<event>
 7    0  0.4793433E-002  0.4507045E+03  0.7546771E-02  0.1027512E+00
         21   -1    0    0  502  501  0.00000000000E+00  0.00000000000E+00  0.83465654098E+03  0.83465654098E+03  0.00000000000E+00 0.  1.
         21   -1    0    0  501  502 -0.00000000000E+00 -0.00000000000E+00 -0.60843757442E+02  0.60843757442E+02  0.00000000000E+00 0.  1.
      99926    2    1    2    0    0  0.00000000000E+00  0.31086244690E-14  0.77381278354E+03  0.89550029842E+03  0.45070451574E+03 0.  0.
      99925    2    3    3    0    0  0.45673801276E+02 -0.26585349700E+01  0.29197817193E+03  0.39559504242E+03  0.26296581674E+03 0.  0.
         25    1    3    3    0    0 -0.45673801276E+02  0.26585349700E+01  0.48183461161E+03  0.49990525600E+03  0.12509000000E+03 0.  0.
         25    1    4    4    0    0  0.28241729313E+01 -0.26495722360E+02  0.10571883679E+03  0.16593366087E+03  0.12509000000E+03 0.  0.
         25    1    4    4    0    0  0.42849628345E+02  0.23837187390E+02  0.18625933514E+03  0.22966138156E+03  0.12509000000E+03 0.  0.
<mgrwt>
<rscale>  2 0.45070452E+03</rscale>
<asrwt>0</asrwt>
<pdfrwt beam="1">  1       21 0.12274360E+00 0.45070452E+03</pdfrwt>
<pdfrwt beam="2">  1       21 0.89476119E-02 0.45070452E+03</pdfrwt>
<totfact> 0.44920694E+04</totfact>
</mgrwt>
</event>
<event>
 6    0  0.4793433E-002  0.4467262E+03  0.7546771E-02  0.1028703E+00
         21   -1    0    0  502  501  0.00000000000E+00  0.00000000000E+00  0.31203965334E+03  0.31203965334E+03  0.00000000000E+00 0. -1.
         21   -1    0    0  501  502 -0.00000000000E+00 -0.00000000000E+00 -0.15988698811E+03  0.15988698811E+03  0.00000000000E+00 0. -1.
      99926    2    1    2    0    0  0.00000000000E+00  0.00000000000E+00  0.15215266523E+03  0.47192664146E+03  0.44672622643E+03 0.  0.
         25    1    3    3    0    0  0.35138912120E+02  0.25107017230E+02  0.85945408844E+02  0.15779488858E+03  0.12509000000E+03 0.  0.
         25    1    3    3    0    0  0.81889856990E+01  0.67637531419E+02  0.92028584943E+01  0.14273785709E+03  0.12509000000E+03 0.  0.
         25    1    3    3    0    0 -0.43327897819E+02 -0.92744548649E+02  0.57004397891E+02  0.17139389579E+03  0.12509000000E+03 0.  0.
<mgrwt>
<rscale>  2 0.44672623E+03</rscale>
<asrwt>0</asrwt>
<pdfrwt beam="1">  1       21 0.45888185E-01 0.44672623E+03</pdfrwt>
<pdfrwt beam="2">  1       21 0.23512792E-01 0.44672623E+03</pdfrwt>
<totfact> 0.71899118E+04</totfact>
</mgrwt>
</event>
<event>
 7    0  0.4793433E-002  0.4497328E+03  0.7546771E-02  0.1027802E+00
         21   -1    0    0  502  501  0.00000000000E+00  0.00000000000E+00  0.13546363720E+03  0.13546363720E+03  0.00000000000E+00 0. -1.
         21   -1    0    0  501  502 -0.00000000000E+00 -0.00000000000E+00 -0.37327277545E+03  0.37327277545E+03  0.00000000000E+00 0. -1.
      99926    2    1    2    0    0 -0.14210854715E-13  0.00000000000E+00 -0.23780913825E+03  0.50873641265E+03  0.44973275544E+03 0.  0.
      99925    2    3    3    0    0 -0.90243773034E+02  0.52135311409E+02 -0.18327990264E+03  0.33703034140E+03  0.26293706290E+03 0.  0.
         25    1    4    4    0    0 -0.21955124673E+02  0.35762923757E+02 -0.12638393648E+03  0.18270583383E+03  0.12509000000E+03 0.  0.
         25    1    3    3    0    0  0.90243773034E+02 -0.52135311409E+02 -0.54529235618E+02  0.17170607125E+03  0.12509000000E+03 0.  0.
         25    1    4    4    0    0 -0.68288648361E+02  0.16372387652E+02 -0.56895966158E+02  0.15432450757E+03  0.12509000000E+03 0.  0.
<mgrwt>
<rscale>  2 0.44973276E+03</rscale>
<asrwt>0</asrwt>
<pdfrwt beam="1">  1       21 0.19921123E-01 0.44973276E+03</pdfrwt>
<pdfrwt beam="2">  1       21 0.54893054E-01 0.44973276E+03</pdfrwt>
<totfact> 0.67436224E+04</totfact>
</mgrwt>
</event>
<event>
 7    0  0.4793433E-002  0.4505608E+03  0.7546771E-02  0.1027555E+00
         21   -1    0    0  502  501  0.00000000000E+00  0.00000000000E+00  0.97486034365E+02  0.97486034365E+02  0.00000000000E+00 0. -1.
         21   -1    0    0  501  502 -0.00000000000E+00 -0.00000000000E+00 -0.52060035061E+03  0.52060035061E+03  0.00000000000E+00 0. -1.
      99926    2    1    2    0    0  0.00000000000E+00  0.00000000000E+00 -0.42311431625E+03  0.61808638498E+03  0.45056082240E+03 0.  0.
      99925    2    3    3    0    0 -0.18352528806E+02 -0.98903590628E+02 -0.32548477841E+03  0.43020937651E+03  0.26271853971E+03 0.  0.
         25    1    4    4    0    0 -0.39026886257E+01 -0.36690300562E+02 -0.99113438761E+02  0.16380595525E+03  0.12509000000E+03 0.  0.
         25    1    4    4    0    0 -0.14449840180E+02 -0.62213290067E+02 -0.22637133965E+03  0.26640342125E+03  0.12509000000E+03 0.  0.
         25    1    3    3    0    0  0.18352528806E+02  0.98903590628E+02 -0.97629537839E+02  0.18787700847E+03  0.12509000000E+03 0.  0.
<mgrwt>
<rscale>  2 0.45056082E+03</rscale>
<asrwt>0</asrwt>
<pdfrwt beam="1">  1       21 0.14336182E-01 0.45056082E+03</pdfrwt>
<pdfrwt beam="2">  1       21 0.76558874E-01 0.45056082E+03</pdfrwt>
<totfact> 0.59642016E+04</totfact>
</mgrwt>
</event>
<event>
 7    0  0.4793433E-002  0.4514009E+03  0.7546771E-02  0.1027305E+00
         21   -1    0    0  502  501  0.00000000000E+00  0.00000000000E+00  0.89046515881E+03  0.89046515881E+03  0.00000000000E+00 0.  1.
         21   -1    0    0  501  502 -0.00000000000E+00 -0.00000000000E+00 -0.57206830674E+02  0.57206830674E+02  0.00000000000E+00 0.  1.
      99926    2    1    2    0    0  0.35527136788E-14  0.00000000000E+00  0.83325832814E+03  0.94767198949E+03  0.45140088419E+03 0.  0.
      99925    2    3    3    0    0  0.24520308024E+02 -0.36640863037E+02  0.73700333682E+03  0.78379297984E+03  0.26308500225E+03 0.  0.
         25    1    4    4    0    0  0.48635490618E+02 -0.10713352960E+01  0.38886592563E+03  0.41137668252E+03  0.12509000000E+03 0.  0.
         25    1    4    4    0    0 -0.24115182594E+02 -0.35569527742E+02  0.34813741119E+03  0.37241629732E+03  0.12509000000E+03 0.  0.
         25    1    3    3    0    0 -0.24520308024E+02  0.36640863037E+02  0.96254991317E+02  0.16387900965E+03  0.12509000000E+03 0.  0.
<mgrwt>
<rscale>  2 0.45140088E+03</rscale>
<asrwt>0</asrwt>
<pdfrwt beam="1">  1       21 0.13095075E+00 0.45140088E+03</pdfrwt>
<pdfrwt beam="2">  1       21 0.84127698E-02 0.45140088E+03</pdfrwt>
<totfact> 0.42416497E+04</totfact>
</mgrwt>
</event>
<event>
 7    0  0.4793433E-002  0.4338600E+03  0.7546771E-02  0.1032648E+00
         21   -1    0    0  502  501  0.00000000000E+00  0.00000000000E+00  0.20319871152E+03  0.20319871152E+03  0.00000000000E+00 0. -1.
         21   -1    0    0  501  502 -0.00000000000E+00 -0.00000000000E+00 -0.23158920653E+03  0.23158920653E+03  0.00000000000E+00 0. -1.
      99926    2    1    2    0    0  0.00000000000E+00  0.00000000000E+00 -0.28390495010E+02  0.43478791805E+03  0.43386001599E+03 0.  0.
      99925    2    3    3    0    0 -0.36974733934E+02 -0.28905757133E+02  0.61114549868E+02  0.27397332014E+03  0.26291389883E+03 0.  0.
         25    1    4    4    0    0  0.47319301072E+01 -0.45585282650E+02  0.19119584064E+02  0.13458631339E+03  0.12509000000E+03 0.  0.
         25    1    3    3    0    0  0.36974733934E+02  0.28905757133E+02 -0.89505044878E+02  0.16081459792E+03  0.12509000000E+03 0.  0.
         25    1    4    4    0    0 -0.41706664041E+02  0.16679525517E+02  0.41994965805E+02  0.13938700675E+03  0.12509000000E+03 0.  0.
<mgrwt>
<rscale>  2 0.43386002E+03</rscale>
<asrwt>0</asrwt>
<pdfrwt beam="1">  1       21 0.29882164E-01 0.43386002E+03</pdfrwt>
<pdfrwt beam="2">  1       21 0.34057236E-01 0.43386002E+03</pdfrwt>
<totfact> 0.83229905E+04</totfact>
</mgrwt>
</event>
<event>
 7    0  0.4793433E-002  0.4524265E+03  0.7546771E-02  0.1027001E+00
         21   -1    0    0  502  501  0.00000000000E+00  0.00000000000E+00  0.88877682215E+03  0.88877682215E+03  0.00000000000E+00 0.  1.
         21   -1    0    0  501  502 -0.00000000000E+00 -0.00000000000E+00 -0.57576239256E+02  0.57576239256E+02  0.00000000000E+00 0.  1.
      99926    2    1    2    0    0  0.00000000000E+00  0.00000000000E+00  0.83120058289E+03  0.94635306140E+03  0.45242646676E+03 0.  0.
      99925    2    3    3    0    0  0.63244710667E+02  0.81168474918E+02  0.43814235516E+03  0.52122896983E+03  0.26291196408E+03 0.  0.
         25    1    3    3    0    0 -0.63244710667E+02 -0.81168474918E+02  0.39305822773E+03  0.42512409157E+03  0.12509000000E+03 0.  0.
         25    1    4    4    0    0  0.30877763800E+02 -0.41184992733E+00  0.21849750874E+03  0.25365779180E+03  0.12509000000E+03 0.  0.
         25    1    4    4    0    0  0.32366946868E+02  0.81580324845E+02  0.21964484642E+03  0.26757117803E+03  0.12509000000E+03 0.  0.
<mgrwt>
<rscale>  2 0.45242647E+03</rscale>
<asrwt>0</asrwt>
<pdfrwt beam="1">  1       21 0.13070247E+00 0.45242647E+03</pdfrwt>
<pdfrwt beam="2">  1       21 0.84670945E-02 0.45242647E+03</pdfrwt>
<totfact> 0.42130343E+04</totfact>
</mgrwt>
</event>
<event>
 7    0  0.4793433E-002  0.4488495E+03  0.7546771E-02  0.1028066E+00
         21   -1    0    0  502  501  0.00000000000E+00  0.00000000000E+00  0.94194436787E+02  0.94194436787E+02  0.00000000000E+00 0.  1.
         21   -1    0    0  501  502 -0.00000000000E+00 -0.00000000000E+00 -0.53470757098E+03  0.53470757098E+03  0.00000000000E+00 0.  1.
      99926    2    1    2    0    0 -0.35527136788E-14  0.71054273576E-14 -0.44051313420E+03  0.62890200777E+03  0.44884954492E+03 0.  0.
      99925    2    3    3    0    0 -0.21506794762E+02  0.45011455791E+02 -0.41235799271E+03  0.49132005596E+03  0.26242657993E+03 0.  0.
         25    1    4    4    0    0 -0.43785250434E+02  0.89147335350E+00 -0.21106158665E+03  0.24922368335E+03  0.12509000000E+03 0.  0.
         25    1    3    3    0    0  0.21506794762E+02 -0.45011455791E+02 -0.28155141482E+02  0.13758195182E+03  0.12509000000E+03 0.  0.
         25    1    4    4    0    0  0.22278455672E+02  0.44119982438E+02 -0.20129640606E+03  0.24209637261E+03  0.12509000000E+03 0.  0.
<mgrwt>
<rscale>  2 0.44884954E+03</rscale>
<asrwt>0</asrwt>
<pdfrwt beam="1">  1       21 0.13852123E-01 0.44884954E+03</pdfrwt>
<pdfrwt beam="2">  1       21 0.78633467E-01 0.44884954E+03</pdfrwt>
<totfact> 0.59783779E+04</totfact>
</mgrwt>
</event>
<event>
 7    0  0.4793433E-002  0.4519253E+03  0.7546771E-02  0.1027149E+00
         21   -1    0    0  502  501  0.00000000000E+00  0.00000000000E+00  0.26095270648E+04  0.26095270648E+04  0.00000000000E+00 0. -1.
         21   -1    0    0  501  502 -0.00000000000E+00 -0.00000000000E+00 -0.19566424531E+02  0.19566424531E+02  0.00000000000E+00 0. -1.
      99926    2    1    2    0    0  0.00000000000E+00 -0.71054273576E-14  0.25899606403E+04  0.26290934893E+04  0.45192527867E+03 0.  0.
      99925    2    3    3    0    0 -0.45860840338E+02  0.57432177671E+02  0.21118811488E+04  0.21294844622E+04  0.26317373818E+03 0.  0.
         25    1    3    3    0    0  0.45860840338E+02 -0.57432177671E+02  0.47807949144E+03  0.49960902709E+03  0.12509000000E+03 0.  0.
         25    1    4    4    0    0 -0.54157305129E+02  0.35639670772E+02  0.90307295650E+03  0.91399752335E+03  0.12509000000E+03 0.  0.
         25    1    4    4    0    0  0.82964647911E+01  0.21792506899E+02  0.12088081923E+04  0.12154869389E+04  0.12509000000E+03 0.  0.
<mgrwt>
<rscale>  2 0.45192528E+03</rscale>
<asrwt>0</asrwt>
<pdfrwt beam="1">  1       21 0.38375374E+00 0.45192528E+03</pdfrwt>
<pdfrwt beam="2">  1       21 0.28774172E-02 0.45192528E+03</pdfrwt>
<totfact> 0.60423119E+03</totfact>
</mgrwt>
</event>
<event>
 7    0  0.4793433E-002  0.4539831E+03  0.7546771E-02  0.1026541E+00
         21   -1    0    0  502  501  0.00000000000E+00  0.00000000000E+00  0.76383641548E+02  0.76383641548E+02  0.00000000000E+00 0. -1.
         21   -1    0    0  501  502 -0.00000000000E+00 -0.00000000000E+00 -0.67455766423E+03  0.67455766423E+03  0.00000000000E+00 0. -1.
      99926    2    1    2    0    0  0.14210854715E-13  0.00000000000E+00 -0.59817402269E+03  0.75094130578E+03  0.45398313109E+03 0.  0.
      99925    2    3    3    0    0  0.65832464957E+02 -0.34022025057E+02 -0.51614946959E+03  0.58400734566E+03  0.26298838985E+03 0.  0.
         25    1    4    4    0    0  0.43816687374E+02  0.96218602915E+01 -0.31781212512E+03  0.34447719411E+03  0.12509000000E+03 0.  0.
         25    1    3    3    0    0 -0.65832464957E+02  0.34022025057E+02 -0.82024553096E+02  0.16693396012E+03  0.12509000000E+03 0.  0.
         25    1    4    4    0    0  0.22015777584E+02 -0.43643885348E+02 -0.19833734447E+03  0.23953015155E+03  0.12509000000E+03 0.  0.
<mgrwt>
<rscale>  2 0.45398313E+03</rscale>
<asrwt>0</asrwt>
<pdfrwt beam="1">  1       21 0.11232889E-01 0.45398313E+03</pdfrwt>
<pdfrwt beam="2">  1       21 0.99199651E-01 0.45398313E+03</pdfrwt>
<totfact> 0.50626299E+04</totfact>
</mgrwt>
</event>
<event>
 7    0  0.4793433E-002  0.4531514E+03  0.7546771E-02  0.1026786E+00
         21   -1    0    0  502  501  0.00000000000E+00  0.00000000000E+00  0.43577513400E+03  0.43577513400E+03  0.00000000000E+00 0. -1.
         21   -1    0    0  501  502 -0.00000000000E+00 -0.00000000000E+00 -0.11780514378E+03  0.11780514378E+03  0.00000000000E+00 0. -1.
      99926    2    1    2    0    0 -0.14210854715E-13 -0.35527136788E-14  0.31796999022E+03  0.55358027778E+03  0.45315141979E+03 0.  0.
      99925    2    3    3    0    0  0.10159278705E+03  0.12698158002E+02  0.25425139667E+03  0.37982785373E+03  0.26295073334E+03 0.  0.
         25    1    4    4    0    0  0.26861299349E+02  0.39743909248E+02  0.12190200135E+03  0.18113175800E+03  0.12509000000E+03 0.  0.
         25    1    3    3    0    0 -0.10159278705E+03 -0.12698158002E+02  0.63718593556E+02  0.17375242405E+03  0.12509000000E+03 0.  0.
         25    1    4    4    0    0  0.74731487703E+02 -0.27045751247E+02  0.13234939532E+03  0.19869609573E+03  0.12509000000E+03 0.  0.
<mgrwt>
<rscale>  2 0.45315142E+03</rscale>
<asrwt>0</asrwt>
<pdfrwt beam="1">  1       21 0.64084578E-01 0.45315142E+03</pdfrwt>
<pdfrwt beam="2">  1       21 0.17324286E-01 0.45315142E+03</pdfrwt>
<totfact> 0.62540149E+04</totfact>
</mgrwt>
</event>
<event>
 7    0  0.4793433E-002  0.4565054E+03  0.7546771E-02  0.1025800E+00
         21   -1    0    0  502  501  0.00000000000E+00  0.00000000000E+00  0.11744968703E+03  0.11744968703E+03  0.00000000000E+00 0.  1.
         21   -1    0    0  501  502 -0.00000000000E+00 -0.00000000000E+00 -0.44358820999E+03  0.44358820999E+03  0.00000000000E+00 0.  1.
      99926    2    1    2    0    0 -0.71054273576E-14  0.14210854715E-13 -0.32613852296E+03  0.56103789702E+03  0.45650540604E+03 0.  0.
      99925    2    3    3    0    0  0.39370798158E+02 -0.10219072092E+03 -0.16390161313E+03  0.32874212392E+03  0.26308675768E+03 0.  0.
         25    1    4    4    0    0 -0.25110104310E+01 -0.24381467052E+02 -0.46190736607E+02  0.13557969375E+03  0.12509000000E+03 0.  0.
         25    1    4    4    0    0  0.41881808589E+02 -0.77809253869E+02 -0.11771087652E+03  0.19316243017E+03  0.12509000000E+03 0.  0.
         25    1    3    3    0    0 -0.39370798158E+02  0.10219072092E+03 -0.16223690983E+03  0.23229577310E+03  0.12509000000E+03 0.  0.
<mgrwt>
<rscale>  2 0.45650541E+03</rscale>
<asrwt>0</asrwt>
<pdfrwt beam="1">  1       21 0.17272013E-01 0.45650541E+03</pdfrwt>
<pdfrwt beam="2">  1       21 0.65233560E-01 0.45650541E+03</pdfrwt>
<totfact> 0.60420295E+04</totfact>
</mgrwt>
</event>
<event>
 7    0  0.4793433E-002  0.4532197E+03  0.7546771E-02  0.1026766E+00
         21   -1    0    0  502  501  0.00000000000E+00  0.00000000000E+00  0.89752893132E+02  0.89752893132E+02  0.00000000000E+00 0.  1.
         21   -1    0    0  501  502 -0.00000000000E+00 -0.00000000000E+00 -0.57214892177E+03  0.57214892177E+03  0.00000000000E+00 0.  1.
      99926    2    1    2    0    0  0.00000000000E+00  0.00000000000E+00 -0.48239602863E+03  0.66190181490E+03  0.45321968638E+03 0.  0.
      99925    2    3    3    0    0  0.80865926567E+02 -0.27011388144E+02 -0.19919778773E+03  0.34078242134E+03  0.26302849064E+03 0.  0.
         25    1    4    4    0    0 -0.10167239194E+01 -0.21017970024E+02 -0.93757681444E+02  0.15773648824E+03  0.12509000000E+03 0.  0.
         25    1    3    3    0    0 -0.80865926567E+02  0.27011388144E+02 -0.28319824091E+03  0.32111939356E+03  0.12509000000E+03 0.  0.
         25    1    4    4    0    0  0.81882650486E+02 -0.59934181198E+01 -0.10544010628E+03  0.18304593310E+03  0.12509000000E+03 0.  0.
<mgrwt>
<rscale>  2 0.45321969E+03</rscale>
<asrwt>0</asrwt>
<pdfrwt beam="1">  1       21 0.13198955E-01 0.45321969E+03</pdfrwt>
<pdfrwt beam="2">  1       21 0.84139548E-01 0.45321969E+03</pdfrwt>
<totfact> 0.55799533E+04</totfact>
</mgrwt>
</event>
<event>
 7    0  0.4793433E-002  0.4612738E+03  0.7546771E-02  0.1024412E+00
         21   -1    0    0  502  501  0.00000000000E+00  0.00000000000E+00  0.31255614680E+03  0.31255614680E+03  0.00000000000E+00 0. -1.
         21   -1    0    0  501  502 -0.00000000000E+00 -0.00000000000E+00 -0.17018821375E+03  0.17018821375E+03  0.00000000000E+00 0. -1.
      99926    2    1    2    0    0  0.00000000000E+00  0.00000000000E+00  0.14236793305E+03  0.48274436055E+03  0.46127376825E+03 0.  0.
      99925    2    3    3    0    0  0.97136796806E+02 -0.67665996289E+02  0.76961662873E+02  0.29851696675E+03  0.26301147795E+03 0.  0.
         25    1    4    4    0    0  0.51747110417E+02 -0.57775927006E+02  0.58201511089E+01  0.14729970617E+03  0.12509000000E+03 0.  0.
         25    1    3    3    0    0 -0.97136796806E+02  0.67665996289E+02  0.65406270181E+02  0.18422739380E+03  0.12509000000E+03 0.  0.
         25    1    4    4    0    0  0.45389686390E+02 -0.98900692831E+01  0.71141511764E+02  0.15121726058E+03  0.12509000000E+03 0.  0.
<mgrwt>
<rscale>  2 0.46127377E+03</rscale>
<asrwt>0</asrwt>
<pdfrwt beam="1">  1       21 0.45964139E-01 0.46127377E+03</pdfrwt>
<pdfrwt beam="2">  1       21 0.25027679E-01 0.46127377E+03</pdfrwt>
<totfact> 0.63290068E+04</totfact>
</mgrwt>
</event>
<event>
 7    0  0.4793433E-002  0.4502757E+03  0.7546771E-02  0.1027640E+00
         21   -1    0    0  502  501  0.00000000000E+00  0.00000000000E+00  0.18037359580E+03  0.18037359580E+03  0.00000000000E+00 0. -1.
         21   -1    0    0  501  502 -0.00000000000E+00 -0.00000000000E+00 -0.28101151620E+03  0.28101151620E+03  0.00000000000E+00 0. -1.
      99926    2    1    2    0    0  0.00000000000E+00  0.17763568394E-14 -0.10063792040E+03  0.46138511199E+03  0.45027572725E+03 0.  0.
      99925    2    3    3    0    0 -0.95611889434E+02 -0.12109257210E+02 -0.12254728223E+02  0.28042278367E+03  0.26305606195E+03 0.  0.
         25    1    4    4    0    0 -0.33422560516E+02  0.13636019280E+02  0.27181733045E+02  0.13300136572E+03  0.12509000000E+03 0.  0.
         25    1    4    4    0    0 -0.62189328919E+02 -0.25745276490E+02 -0.39436461268E+02  0.14742141795E+03  0.12509000000E+03 0.  0.
         25    1    3    3    0    0  0.95611889434E+02  0.12109257210E+02 -0.88383192180E+02  0.18096232832E+03  0.12509000000E+03 0.  0.
<mgrwt>
<rscale>  2 0.45027573E+03</rscale>
<asrwt>0</asrwt>
<pdfrwt beam="1">  1       21 0.26525529E-01 0.45027573E+03</pdfrwt>
<pdfrwt beam="2">  1       21 0.41325223E-01 0.45027573E+03</pdfrwt>
<totfact> 0.70694475E+04</totfact>
</mgrwt>
</event>
<event>
 7    0  0.4793433E-002  0.4541799E+03  0.7546771E-02  0.1026483E+00
         21   -1    0    0  502  501  0.00000000000E+00  0.00000000000E+00  0.81375104778E+02  0.81375104778E+02  0.00000000000E+00 0. -1.
         21   -1    0    0  501  502 -0.00000000000E+00 -0.00000000000E+00 -0.63373004848E+03  0.63373004848E+03  0.00000000000E+00 0. -1.
      99926    2    1    2    0    0  0.14210854715E-13  0.00000000000E+00 -0.55235494370E+03  0.71510515325E+03  0.45417991631E+03 0.  0.
      99925    2    3    3    0    0  0.83520581627E+02 -0.75623580507E+02 -0.33297471518E+03  0.43857340779E+03  0.26225914586E+03 0.  0.
         25    1    4    4    0    0  0.61880452055E+02 -0.73860684055E+02 -0.19836300260E+03  0.25353496779E+03  0.12509000000E+03 0.  0.
         25    1    4    4    0    0  0.21640129573E+02 -0.17628964520E+01 -0.13461171259E+03  0.18503844000E+03  0.12509000000E+03 0.  0.
         25    1    3    3    0    0 -0.83520581627E+02  0.75623580507E+02 -0.21938022851E+03  0.27653174546E+03  0.12509000000E+03 0.  0.
<mgrwt>
<rscale>  2 0.45417992E+03</rscale>
<asrwt>0</asrwt>
<pdfrwt beam="1">  1       21 0.11966927E-01 0.45417992E+03</pdfrwt>
<pdfrwt beam="2">  1       21 0.93195593E-01 0.45417992E+03</pdfrwt>
<totfact> 0.52427944E+04</totfact>
</mgrwt>
</event>
<event>
 7    0  0.4793433E-002  0.4556168E+03  0.7546771E-02  0.1026060E+00
         21   -1    0    0  502  501  0.00000000000E+00  0.00000000000E+00  0.10489187938E+03  0.10489187938E+03  0.00000000000E+00 0. -1.
         21   -1    0    0  501  502 -0.00000000000E+00 -0.00000000000E+00 -0.49476352367E+03  0.49476352367E+03  0.00000000000E+00 0. -1.
      99926    2    1    2    0    0  0.00000000000E+00  0.00000000000E+00 -0.38987164430E+03  0.59965540305E+03  0.45561683834E+03 0.  0.
      99925    2    3    3    0    0  0.49194359652E+02  0.25634165439E+02 -0.11448313094E+03  0.29214355474E+03  0.26299101477E+03 0.  0.
         25    1    4    4    0    0  0.59308597833E+02  0.34554727474E+02 -0.67456288153E+02  0.15782711389E+03  0.12509000000E+03 0.  0.
         25    1    3    3    0    0 -0.49194359652E+02 -0.25634165439E+02 -0.27538851335E+03  0.30751184830E+03  0.12509000000E+03 0.  0.
         25    1    4    4    0    0 -0.10114238180E+02 -0.89205620351E+01 -0.47026842789E+02  0.13431644085E+03  0.12509000000E+03 0.  0.
<mgrwt>
<rscale>  2 0.45561684E+03</rscale>
<asrwt>0</asrwt>
<pdfrwt beam="1">  1       21 0.15425276E-01 0.45561684E+03</pdfrwt>
<pdfrwt beam="2">  1       21 0.72759341E-01 0.45561684E+03</pdfrwt>
<totfact> 0.58414259E+04</totfact>
</mgrwt>
</event>
<event>
 7    0  0.4793433E-002  0.4562575E+03  0.7546771E-02  0.1025872E+00
         21   -1    0    0  502  501  0.00000000000E+00  0.00000000000E+00  0.64503466397E+03  0.64503466397E+03  0.00000000000E+00 0.  1.
         21   -1    0    0  501  502 -0.00000000000E+00 -0.00000000000E+00 -0.80682066044E+02  0.80682066044E+02  0.00000000000E+00 0.  1.
      99926    2    1    2    0    0  0.00000000000E+00  0.00000000000E+00  0.56435259793E+03  0.72571673002E+03  0.45625751220E+03 0.  0.
      99925    2    3    3    0    0  0.52027663268E+02  0.95881680954E+02  0.30042517387E+03  0.41393897623E+03  0.26303995221E+03 0.  0.
         25    1    4    4    0    0  0.37344334560E+02  0.90159075561E+02  0.17045897142E+03  0.23286697333E+03  0.12509000000E+03 0.  0.
         25    1    3    3    0    0 -0.52027663268E+02 -0.95881680954E+02  0.26392742406E+03  0.31177775379E+03  0.12509000000E+03 0.  0.
         25    1    4    4    0    0  0.14683328708E+02  0.57226053933E+01  0.12996620245E+03  0.18107200290E+03  0.12509000000E+03 0.  0.
<mgrwt>
<rscale>  2 0.45625751E+03</rscale>
<asrwt>0</asrwt>
<pdfrwt beam="1">  1       21 0.94858036E-01 0.45625751E+03</pdfrwt>
<pdfrwt beam="2">  1       21 0.11865010E-01 0.45625751E+03</pdfrwt>
<totfact> 0.51022424E+04</totfact>
</mgrwt>
</event>
<event>
 7    0  0.4793433E-002  0.4538639E+03  0.7546771E-02  0.1026576E+00
         21   -1    0    0  502  501  0.00000000000E+00  0.00000000000E+00  0.81530247636E+03  0.81530247636E+03  0.00000000000E+00 0.  1.
         21   -1    0    0  501  502 -0.00000000000E+00 -0.00000000000E+00 -0.63164425032E+02  0.63164425032E+02  0.00000000000E+00 0.  1.
      99926    2    1    2    0    0 -0.71054273576E-14 -0.14210854715E-13  0.75213805133E+03  0.87846690140E+03  0.45386390977E+03 0.  0.
      99925    2    3    3    0    0  0.37329575555E+02  0.88673282584E+02  0.58514704068E+03  0.64870625639E+03  0.26299486612E+03 0.  0.
         25    1    3    3    0    0 -0.37329575555E+02 -0.88673282584E+02  0.16699101066E+03  0.22976064501E+03  0.12509000000E+03 0.  0.
         25    1    4    4    0    0 -0.20153702187E+02  0.34159614044E+02  0.25138966261E+03  0.28357948006E+03  0.12509000000E+03 0.  0.
         25    1    4    4    0    0  0.57483277742E+02  0.54513668540E+02  0.33375737807E+03  0.36512677633E+03  0.12509000000E+03 0.  0.
<mgrwt>
<rscale>  2 0.45386391E+03</rscale>
<asrwt>0</asrwt>
<pdfrwt beam="1">  1       21 0.11989742E+00 0.45386391E+03</pdfrwt>
<pdfrwt beam="2">  1       21 0.92888865E-02 0.45386391E+03</pdfrwt>
<totfact> 0.44573122E+04</totfact>
</mgrwt>
</event>
<event>
 7    0  0.4793433E-002  0.4602501E+03  0.7546771E-02  0.1024709E+00
         21   -1    0    0  502  501  0.00000000000E+00  0.00000000000E+00  0.13737718147E+03  0.13737718147E+03  0.00000000000E+00 0. -1.
         21   -1    0    0  501  502 -0.00000000000E+00 -0.00000000000E+00 -0.38549010675E+03  0.38549010675E+03  0.00000000000E+00 0. -1.
      99926    2    1    2    0    0  0.00000000000E+00  0.00000000000E+00 -0.24811292527E+03  0.52286728822E+03  0.46025012483E+03 0.  0.
      99925    2    3    3    0    0 -0.19667918604E+02 -0.11245544552E+03 -0.12172065108E+03  0.31154864417E+03  0.26308475162E+03 0.  0.
         25    1    4    4    0    0 -0.23649244441E+02 -0.74531576828E+02 -0.26739369819E+02  0.14992246231E+03  0.12509000000E+03 0.  0.
         25    1    4    4    0    0  0.39813258377E+01 -0.37923868687E+02 -0.94981281261E+02  0.16162618186E+03  0.12509000000E+03 0.  0.
         25    1    3    3    0    0  0.19667918604E+02  0.11245544552E+03 -0.12639227419E+03  0.21131864405E+03  0.12509000000E+03 0.  0.
<mgrwt>
<rscale>  2 0.46025012E+03</rscale>
<asrwt>0</asrwt>
<pdfrwt beam="1">  1       21 0.20202527E-01 0.46025012E+03</pdfrwt>
<pdfrwt beam="2">  1       21 0.56689722E-01 0.46025012E+03</pdfrwt>
<totfact> 0.61107038E+04</totfact>
</mgrwt>
</event>
<event>
 7    0  0.4793433E-002  0.4596837E+03  0.7546771E-02  0.1024873E+00
         21   -1    0    0  502  501  0.00000000000E+00  0.00000000000E+00  0.24574574285E+03  0.24574574285E+03  0.00000000000E+00 0. -1.
         21   -1    0    0  501  502 -0.00000000000E+00 -0.00000000000E+00 -0.21496720960E+03  0.21496720960E+03  0.00000000000E+00 0. -1.
      99926    2    1    2    0    0  0.14210854715E-13  0.00000000000E+00  0.30778533242E+02  0.46071295245E+03  0.45968370261E+03 0.  0.
      99925    2    3    3    0    0  0.94370420124E+02 -0.65616747685E+02 -0.55398637941E+01  0.28699517030E+03  0.26291482255E+03 0.  0.
         25    1    4    4    0    0  0.69031422963E+01 -0.43816655733E+02 -0.47688989656E+01  0.13280739133E+03  0.12509000000E+03 0.  0.
         25    1    3    3    0    0 -0.94370420124E+02  0.65616747685E+02  0.36318397036E+02  0.17371778215E+03  0.12509000000E+03 0.  0.
         25    1    4    4    0    0  0.87467277828E+02 -0.21800091951E+02 -0.77096482845E+00  0.15418777898E+03  0.12509000000E+03 0.  0.
<mgrwt>
<rscale>  2 0.45968370E+03</rscale>
<asrwt>0</asrwt>
<pdfrwt beam="1">  1       21 0.36139080E-01 0.45968370E+03</pdfrwt>
<pdfrwt beam="2">  1       21 0.31612825E-01 0.45968370E+03</pdfrwt>
<totfact> 0.65641754E+04</totfact>
</mgrwt>
</event>
<event>
 7    0  0.4793433E-002  0.4515938E+03  0.7546771E-02  0.1027248E+00
         21   -1    0    0  502  501  0.00000000000E+00  0.00000000000E+00  0.31561721171E+03  0.31561721171E+03  0.00000000000E+00 0. -1.
         21   -1    0    0  501  502 -0.00000000000E+00 -0.00000000000E+00 -0.16153817653E+03  0.16153817653E+03  0.00000000000E+00 0. -1.
      99926    2    1    2    0    0  0.00000000000E+00 -0.71054273576E-14  0.15407903518E+03  0.47715538824E+03  0.45159375044E+03 0.  0.
      99925    2    3    3    0    0 -0.85706880900E+02  0.52096958097E+02  0.49718827333E+02  0.28584850504E+03  0.26301643212E+03 0.  0.
         25    1    3    3    0    0  0.85706880900E+02 -0.52096958097E+02  0.10436020785E+03  0.19130688320E+03  0.12509000000E+03 0.  0.
         25    1    4    4    0    0 -0.78212182604E+02  0.37663661633E+02  0.61185102421E+01  0.15238320505E+03  0.12509000000E+03 0.  0.
         25    1    4    4    0    0 -0.74946982960E+01  0.14433296464E+02  0.43600317091E+02  0.13346529998E+03  0.12509000000E+03 0.  0.
<mgrwt>
<rscale>  2 0.45159375E+03</rscale>
<asrwt>0</asrwt>
<pdfrwt beam="1">  1       21 0.46414296E-01 0.45159375E+03</pdfrwt>
<pdfrwt beam="2">  1       21 0.23755614E-01 0.45159375E+03</pdfrwt>
<totfact> 0.68747705E+04</totfact>
</mgrwt>
</event>
<event>
 7    0  0.4793433E-002  0.4591212E+03  0.7546771E-02  0.1025036E+00
         21   -1    0    0  502  501  0.00000000000E+00  0.00000000000E+00  0.25630226936E+03  0.25630226936E+03  0.00000000000E+00 0. -1.
         21   -1    0    0  501  502 -0.00000000000E+00 -0.00000000000E+00 -0.20560906123E+03  0.20560906123E+03  0.00000000000E+00 0. -1.
      99926    2    1    2    0    0  0.35527136788E-14  0.00000000000E+00  0.50693208128E+02  0.46191133058E+03  0.45912119965E+03 0.  0.
      99925    2    3    3    0    0 -0.30249317908E+02  0.87296704969E+02 -0.40438976176E+02  0.28166616685E+03  0.26299198243E+03 0.  0.
         25    1    4    4    0    0  0.23545322719E+02  0.30873382334E+02 -0.26338870706E+02  0.13359937189E+03  0.12509000000E+03 0.  0.
         25    1    4    4    0    0 -0.53794640627E+02  0.56423322634E+02 -0.14100105469E+02  0.14806679497E+03  0.12509000000E+03 0.  0.
         25    1    3    3    0    0  0.30249317908E+02 -0.87296704969E+02  0.91132184304E+02  0.18024516373E+03  0.12509000000E+03 0.  0.
<mgrwt>
<rscale>  2 0.45912120E+03</rscale>
<asrwt>0</asrwt>
<pdfrwt beam="1">  1       21 0.37691510E-01 0.45912120E+03</pdfrwt>
<pdfrwt beam="2">  1       21 0.30236627E-01 0.45912120E+03</pdfrwt>
<totfact> 0.65850351E+04</totfact>
</mgrwt>
</event>
<event>
 7    0  0.4793433E-002  0.4459261E+03  0.7546771E-02  0.1028944E+00
         21   -1    0    0  502  501  0.00000000000E+00  0.00000000000E+00  0.39193648258E+03  0.39193648258E+03  0.00000000000E+00 0. -1.
         21   -1    0    0  501  502 -0.00000000000E+00 -0.00000000000E+00 -0.12683821082E+03  0.12683821082E+03  0.00000000000E+00 0. -1.
      99926    2    1    2    0    0  0.00000000000E+00  0.35527136788E-14  0.26509827176E+03  0.51877469340E+03  0.44592610242E+03 0.  0.
      99925    2    3    3    0    0  0.84308647836E+02 -0.82223056390E+01  0.23866511957E+03  0.36540659357E+03  0.26341105693E+03 0.  0.
         25    1    3    3    0    0 -0.84308647836E+02  0.82223056390E+01  0.26433152193E+02  0.15336809983E+03  0.12509000000E+03 0.  0.
         25    1    4    4    0    0  0.56142368920E+02  0.24018077983E+02  0.15781330396E+03  0.21043141558E+03  0.12509000000E+03 0.  0.
         25    1    4    4    0    0  0.28166278916E+02 -0.32240383622E+02  0.80851815612E+02  0.15497517799E+03  0.12509000000E+03 0.  0.
<mgrwt>
<rscale>  2 0.44592610E+03</rscale>
<asrwt>0</asrwt>
<pdfrwt beam="1">  1       21 0.57637718E-01 0.44592610E+03</pdfrwt>
<pdfrwt beam="2">  1       21 0.18652678E-01 0.44592610E+03</pdfrwt>
<totfact> 0.68788972E+04</totfact>
</mgrwt>
</event>
<event>
 7    0  0.4793433E-002  0.4548012E+03  0.7546771E-02  0.1026300E+00
         21   -1    0    0  502  501  0.00000000000E+00  0.00000000000E+00  0.27475656543E+02  0.27475656543E+02  0.00000000000E+00 0. -1.
         21   -1    0    0  501  502 -0.00000000000E+00 -0.00000000000E+00 -0.18820670449E+04  0.18820670449E+04  0.00000000000E+00 0. -1.
      99926    2    1    2    0    0  0.88817841970E-15  0.00000000000E+00 -0.18545913884E+04  0.19095427015E+04  0.45480117730E+03 0.  0.
      99925    2    3    3    0    0  0.73371805578E+01  0.16474889039E+02 -0.16354784265E+04  0.16565935874E+04  0.26303492882E+03 0.  0.
         25    1    3    3    0    0 -0.73371805578E+01 -0.16474889039E+02 -0.21911296185E+03  0.25294911413E+03  0.12509000000E+03 0.  0.
         25    1    4    4    0    0  0.97426265812E+01 -0.28016143065E+02 -0.69545125070E+03  0.70723388864E+03  0.12509000000E+03 0.  0.
         25    1    4    4    0    0 -0.24054460233E+01  0.44491032104E+02 -0.94002717585E+03  0.94935969871E+03  0.12509000000E+03 0.  0.
<mgrwt>
<rscale>  2 0.45480118E+03</rscale>
<asrwt>0</asrwt>
<pdfrwt beam="1">  1       21 0.40405373E-02 0.45480118E+03</pdfrwt>
<pdfrwt beam="2">  1       21 0.27677460E+00 0.45480118E+03</pdfrwt>
<totfact> 0.15266860E+04</totfact>
</mgrwt>
</event>
<event>
 7    0  0.4793433E-002  0.4561241E+03  0.7546771E-02  0.1025911E+00
         21   -1    0    0  502  501  0.00000000000E+00  0.00000000000E+00  0.21678367342E+02  0.21678367342E+02  0.00000000000E+00 0.  1.
         21   -1    0    0  501  502 -0.00000000000E+00 -0.00000000000E+00 -0.23992717304E+04  0.23992717304E+04  0.00000000000E+00 0.  1.
      99926    2    1    2    0    0 -0.55511151231E-15  0.00000000000E+00 -0.23775933631E+04  0.24209500978E+04  0.45612407929E+03 0.  0.
      99925    2    3    3    0    0 -0.78255160135E+00 -0.58909433112E+02 -0.20135924063E+04  0.20315722115E+04  0.26317358914E+03 0.  0.
         25    1    4    4    0    0 -0.26418521372E+02 -0.56816841332E+02 -0.11776106827E+04  0.11858922885E+04  0.12509000000E+03 0.  0.
         25    1    4    4    0    0  0.25635969771E+02 -0.20925917802E+01 -0.83598172362E+03  0.84567992303E+03  0.12509000000E+03 0.  0.
         25    1    3    3    0    0  0.78255160135E+00  0.58909433112E+02 -0.36400095679E+03  0.38937788630E+03  0.12509000000E+03 0.  0.
<mgrwt>
<rscale>  2 0.45612408E+03</rscale>
<asrwt>0</asrwt>
<pdfrwt beam="1">  1       21 0.31879952E-02 0.45612408E+03</pdfrwt>
<pdfrwt beam="2">  1       21 0.35283408E+00 0.45612408E+03</pdfrwt>
<totfact> 0.79054460E+03</totfact>
</mgrwt>
</event>
<event>
 7    0  0.4793433E-002  0.4554162E+03  0.7546771E-02  0.1026119E+00
         21   -1    0    0  502  501  0.00000000000E+00  0.00000000000E+00  0.75994849383E+03  0.75994849383E+03  0.00000000000E+00 0. -1.
         21   -1    0    0  501  502 -0.00000000000E+00 -0.00000000000E+00 -0.68229584936E+02  0.68229584936E+02  0.00000000000E+00 0. -1.
      99926    2    1    2    0    0  0.71054273576E-14  0.00000000000E+00  0.69171890889E+03  0.82817807877E+03  0.45541616268E+03 0.  0.
      99925    2    3    3    0    0  0.50843948678E+02  0.98029159690E+02  0.38154875481E+03  0.47597379735E+03  0.26225327490E+03 0.  0.
         25    1    4    4    0    0  0.41204185199E+01  0.82584746895E+02  0.19262035488E+03  0.24410515660E+03  0.12509000000E+03 0.  0.
         25    1    4    4    0    0  0.46723530158E+02  0.15444412795E+02  0.18892839993E+03  0.23186864074E+03  0.12509000000E+03 0.  0.
         25    1    3    3    0    0 -0.50843948678E+02 -0.98029159690E+02  0.31017015408E+03  0.35220428142E+03  0.12509000000E+03 0.  0.
<mgrwt>
<rscale>  2 0.45541616E+03</rscale>
<asrwt>0</asrwt>
<pdfrwt beam="1">  1       21 0.11175713E+00 0.45541616E+03</pdfrwt>
<pdfrwt beam="2">  1       21 0.10033763E-01 0.45541616E+03</pdfrwt>
<totfact> 0.46280577E+04</totfact>
</mgrwt>
</event>
<event>
 7    0  0.4793433E-002  0.4623397E+03  0.7546771E-02  0.1024105E+00
         21   -1    0    0  502  501  0.00000000000E+00  0.00000000000E+00  0.19633637392E+04  0.19633637392E+04  0.00000000000E+00 0.  1.
         21   -1    0    0  501  502 -0.00000000000E+00 -0.00000000000E+00 -0.27218337756E+02  0.27218337756E+02  0.00000000000E+00 0.  1.
      99926    2    1    2    0    0  0.00000000000E+00 -0.35527136788E-14  0.19361454015E+04  0.19905820770E+04  0.46233969067E+03 0.  0.
      99925    2    3    3    0    0 -0.75513471648E+02  0.16889323939E+02  0.81585636716E+03  0.86067829251E+03  0.26297904423E+03 0.  0.
         25    1    4    4    0    0 -0.45691629437E+02  0.48404500812E+02  0.42791118010E+03  0.45076180723E+03  0.12509000000E+03 0.  0.
         25    1    4    4    0    0 -0.29821842212E+02 -0.31515176873E+02  0.38794518706E+03  0.40991648529E+03  0.12509000000E+03 0.  0.
         25    1    3    3    0    0  0.75513471648E+02 -0.16889323939E+02  0.11202890343E+04  0.11299037845E+04  0.12509000000E+03 0.  0.
<mgrwt>
<rscale>  2 0.46233969E+03</rscale>
<asrwt>0</asrwt>
<pdfrwt beam="1">  1       21 0.28872987E+00 0.46233969E+03</pdfrwt>
<pdfrwt beam="2">  1       21 0.40026981E-02 0.46233969E+03</pdfrwt>
<totfact> 0.13101674E+04</totfact>
</mgrwt>
</event>
<event>
 7    0  0.4793433E-002  0.4556980E+03  0.7546771E-02  0.1026036E+00
         21   -1    0    0  502  501  0.00000000000E+00  0.00000000000E+00  0.87892852094E+02  0.87892852094E+02  0.00000000000E+00 0.  1.
         21   -1    0    0  501  502 -0.00000000000E+00 -0.00000000000E+00 -0.59066427456E+03  0.59066427456E+03  0.00000000000E+00 0.  1.
      99926    2    1    2    0    0 -0.14210854715E-13  0.71054273576E-14 -0.50277142247E+03  0.67855712665E+03  0.45569800404E+03 0.  0.
      99925    2    3    3    0    0 -0.87162433870E+02  0.50179894940E+02 -0.23657531350E+03  0.36771442003E+03  0.26292718384E+03 0.  0.
         25    1    4    4    0    0 -0.73096549859E+02  0.56335351821E+02 -0.12801147283E+03  0.20137334169E+03  0.12509000000E+03 0.  0.
         25    1    3    3    0    0  0.87162433870E+02 -0.50179894940E+02 -0.26619610896E+03  0.31084270662E+03  0.12509000000E+03 0.  0.
         25    1    4    4    0    0 -0.14065884011E+02 -0.61554568810E+01 -0.10856384068E+03  0.16634107835E+03  0.12509000000E+03 0.  0.
<mgrwt>
<rscale>  2 0.45569800E+03</rscale>
<asrwt>0</asrwt>
<pdfrwt beam="1">  1       21 0.12925420E-01 0.45569800E+03</pdfrwt>
<pdfrwt beam="2">  1       21 0.86862391E-01 0.45569800E+03</pdfrwt>
<totfact> 0.53786894E+04</totfact>
</mgrwt>
</event>
<event>
 7    0  0.4793433E-002  0.4436206E+03  0.7546771E-02  0.1029642E+00
         21   -1    0    0  502  501  0.00000000000E+00  0.00000000000E+00  0.47293545518E+03  0.47293545518E+03  0.00000000000E+00 0.  1.
         21   -1    0    0  501  502 -0.00000000000E+00 -0.00000000000E+00 -0.10403070786E+03  0.10403070786E+03  0.00000000000E+00 0.  1.
      99926    2    1    2    0    0  0.00000000000E+00  0.00000000000E+00  0.36890474732E+03  0.57696616304E+03  0.44362060446E+03 0.  0.
      99925    2    3    3    0    0  0.60886946911E+02 -0.81904847140E+02  0.22830166259E+03  0.36288122704E+03  0.26295534128E+03 0.  0.
         25    1    4    4    0    0  0.65997896741E+02 -0.22956403537E+02  0.10642922486E+03  0.17848643322E+03  0.12509000000E+03 0.  0.
         25    1    3    3    0    0 -0.60886946911E+02  0.81904847140E+02  0.14060308473E+03  0.21408493600E+03  0.12509000000E+03 0.  0.
         25    1    4    4    0    0 -0.51109498304E+01 -0.58948443603E+02  0.12187243773E+03  0.18439479382E+03  0.12509000000E+03 0.  0.
<mgrwt>
<rscale>  2 0.44362060E+03</rscale>
<asrwt>0</asrwt>
<pdfrwt beam="1">  1       21 0.69549331E-01 0.44362060E+03</pdfrwt>
<pdfrwt beam="2">  1       21 0.15298634E-01 0.44362060E+03</pdfrwt>
<totfact> 0.65845919E+04</totfact>
</mgrwt>
</event>
<event>
 7    0  0.4793433E-002  0.4062133E+03  0.7546771E-02  0.1041649E+00
         21   -1    0    0  502  501  0.00000000000E+00  0.00000000000E+00  0.59772737300E+02  0.59772737300E+02  0.00000000000E+00 0.  1.
         21   -1    0    0  501  502 -0.00000000000E+00 -0.00000000000E+00 -0.69015251123E+03  0.69015251123E+03  0.00000000000E+00 0.  1.
      99926    2    1    2    0    0  0.00000000000E+00  0.00000000000E+00 -0.63037977393E+03  0.74992524853E+03  0.40621326788E+03 0.  0.
      99925    2    3    3    0    0 -0.44806914848E+02  0.17843260460E+02 -0.47148017662E+03  0.54202471537E+03  0.26300417025E+03 0.  0.
         25    1    4    4    0    0  0.14306762472E+02 -0.75683236658E+01 -0.24089271558E+03  0.27191684666E+03  0.12509000000E+03 0.  0.
         25    1    4    4    0    0 -0.59113677320E+02  0.25411584126E+02 -0.23058746103E+03  0.27010786871E+03  0.12509000000E+03 0.  0.
         25    1    3    3    0    0  0.44806914848E+02 -0.17843260460E+02 -0.15889959732E+03  0.20790053316E+03  0.12509000000E+03 0.  0.
<mgrwt>
<rscale>  2 0.40621327E+03</rscale>
<asrwt>0</asrwt>
<pdfrwt beam="1">  1       21 0.87901086E-02 0.40621327E+03</pdfrwt>
<pdfrwt beam="2">  1       21 0.10149301E+00 0.40621327E+03</pdfrwt>
<totfact> 0.75220822E+04</totfact>
</mgrwt>
</event>
<event>
 7    0  0.4793433E-002  0.4542552E+03  0.7546771E-02  0.1026461E+00
         21   -1    0    0  502  501  0.00000000000E+00  0.00000000000E+00  0.35144343912E+03  0.35144343912E+03  0.00000000000E+00 0. -1.
         21   -1    0    0  501  502 -0.00000000000E+00 -0.00000000000E+00 -0.14678591262E+03  0.14678591262E+03  0.00000000000E+00 0. -1.
      99926    2    1    2    0    0 -0.33445468617E-14  0.00000000000E+00  0.20465752650E+03  0.49822935173E+03  0.45425519675E+03 0.  0.
      99925    2    3    3    0    0  0.79342143264E-01  0.77052675379E+02  0.39118079377E+02  0.27689716309E+03  0.26306785002E+03 0.  0.
         25    1    4    4    0    0 -0.20281689885E+02  0.13519918724E+02 -0.74913211850E+01  0.12766269283E+03  0.12509000000E+03 0.  0.
         25    1    4    4    0    0  0.20361032028E+02  0.63532756655E+02  0.46609400562E+02  0.14923447026E+03  0.12509000000E+03 0.  0.
         25    1    3    3    0    0 -0.79342143264E-01 -0.77052675379E+02  0.16553944712E+03  0.22133218865E+03  0.12509000000E+03 0.  0.
<mgrwt>
<rscale>  2 0.45425520E+03</rscale>
<asrwt>0</asrwt>
<pdfrwt beam="1">  1       21 0.51682858E-01 0.45425520E+03</pdfrwt>
<pdfrwt beam="2">  1       21 0.21586164E-01 0.45425520E+03</pdfrwt>
<totfact> 0.65783311E+04</totfact>
</mgrwt>
</event>
<event>
 7    0  0.4793433E-002  0.4518805E+03  0.7546771E-02  0.1027163E+00
         21   -1    0    0  502  501  0.00000000000E+00  0.00000000000E+00  0.78310322731E+03  0.78310322731E+03  0.00000000000E+00 0.  1.
         21   -1    0    0  501  502 -0.00000000000E+00 -0.00000000000E+00 -0.65188081127E+02  0.65188081127E+02  0.00000000000E+00 0.  1.
      99926    2    1    2    0    0  0.14210854715E-13  0.00000000000E+00  0.71791514619E+03  0.84829130844E+03  0.45188050063E+03 0.  0.
      99925    2    3    3    0    0 -0.60501059217E+02 -0.62475028586E+02  0.58003827165E+03  0.64281369897E+03  0.26306187036E+03 0.  0.
         25    1    3    3    0    0  0.60501059217E+02  0.62475028586E+02  0.13787687454E+03  0.20547760947E+03  0.12509000000E+03 0.  0.
         25    1    4    4    0    0 -0.54687694078E+02 -0.40401347187E+02  0.37985054266E+03  0.40565620370E+03  0.12509000000E+03 0.  0.
         25    1    4    4    0    0 -0.58133651390E+01 -0.22073681399E+02  0.20018772899E+03  0.23715749527E+03  0.12509000000E+03 0.  0.
<mgrwt>
<rscale>  2 0.45188050E+03</rscale>
<asrwt>0</asrwt>
<pdfrwt beam="1">  1       21 0.11516223E+00 0.45188050E+03</pdfrwt>
<pdfrwt beam="2">  1       21 0.95864830E-02 0.45188050E+03</pdfrwt>
<totfact> 0.46646991E+04</totfact>
</mgrwt>
</event>
<event>
 7    0  0.6199975E-002  0.4173447E+03  0.7546771E-02  0.1037934E+00
         21   -1    0    0  502  501  0.00000000000E+00  0.00000000000E+00  0.11421677156E+03  0.11421677156E+03  0.00000000000E+00 0. -1.
         21   -1    0    0  501  502 -0.00000000000E+00 -0.00000000000E+00 -0.38124134892E+03  0.38124134892E+03  0.00000000000E+00 0. -1.
      99926    2    1    2    0    0 -0.71054273576E-14  0.00000000000E+00 -0.26702457737E+03  0.49545812048E+03  0.41734473069E+03 0.  0.
      99925    2    3    3    0    0 -0.60397474502E+02 -0.32106463276E+02 -0.19751043679E+03  0.33684411180E+03  0.26414939542E+03 0.  0.
         25    1    3    3    0    0  0.60397474502E+02  0.32106463276E+02 -0.69514140579E+02  0.15861400868E+03  0.12509000000E+03 0.  0.
         25    1    4    4    0    0 -0.38311449240E+02 -0.57698659576E+02 -0.11149660985E+03  0.18131713809E+03  0.12509000000E+03 0.  0.
         25    1    4    4    0    0 -0.22086025262E+02  0.25592196300E+02 -0.86013826943E+02  0.15552697370E+03  0.12509000000E+03 0.  0.
<mgrwt>
<rscale>  2 0.41734473E+03</rscale>
<asrwt>0</asrwt>
<pdfrwt beam="1">  1       21 0.16796584E-01 0.41734473E+03</pdfrwt>
<pdfrwt beam="2">  1       21 0.56064904E-01 0.41734473E+03</pdfrwt>
<totfact> 0.89469924E+04</totfact>
</mgrwt>
</event>
<event>
 7    0  0.4793433E-002  0.4565352E+03  0.7546771E-02  0.1025791E+00
         21   -1    0    0  502  501  0.00000000000E+00  0.00000000000E+00  0.29379833038E+03  0.29379833038E+03  0.00000000000E+00 0.  1.
         21   -1    0    0  501  502 -0.00000000000E+00 -0.00000000000E+00 -0.17735329780E+03  0.17735329780E+03  0.00000000000E+00 0.  1.
      99926    2    1    2    0    0  0.00000000000E+00  0.14210854715E-13  0.11644503259E+03  0.47115162818E+03  0.45653522440E+03 0.  0.
      99925    2    3    3    0    0 -0.72451565491E+02 -0.80480041472E+02  0.34199973091E+02  0.28638684710E+03  0.26290972141E+03 0.  0.
         25    1    4    4    0    0 -0.19796103162E+02 -0.76520018229E+02  0.86171113359E+01  0.14821930238E+03  0.12509000000E+03 0.  0.
         25    1    4    4    0    0 -0.52655462328E+02 -0.39600232431E+01  0.25582861755E+02  0.13816754472E+03  0.12509000000E+03 0.  0.
         25    1    3    3    0    0  0.72451565491E+02  0.80480041472E+02  0.82245059499E+02  0.18476478108E+03  0.12509000000E+03 0.  0.
<mgrwt>
<rscale>  2 0.45653522E+03</rscale>
<asrwt>0</asrwt>
<pdfrwt beam="1">  1       21 0.43205637E-01 0.45653522E+03</pdfrwt>
<pdfrwt beam="2">  1       21 0.26081367E-01 0.45653522E+03</pdfrwt>
<totfact> 0.66536120E+04</totfact>
</mgrwt>
</event>
<event>
 7    0  0.4793433E-002  0.4558051E+03  0.7546771E-02  0.1026005E+00
         21   -1    0    0  502  501  0.00000000000E+00  0.00000000000E+00  0.13342077342E+03  0.13342077342E+03  0.00000000000E+00 0.  1.
         21   -1    0    0  501  502 -0.00000000000E+00 -0.00000000000E+00 -0.38929147095E+03  0.38929147095E+03  0.00000000000E+00 0.  1.
      99926    2    1    2    0    0  0.00000000000E+00 -0.71054273576E-14 -0.25587069754E+03  0.52271224437E+03  0.45580508614E+03 0.  0.
      99925    2    3    3    0    0  0.50008268605E+02  0.44757928848E+02 -0.26650748439E+03  0.38035793829E+03  0.26294832736E+03 0.  0.
         25    1    3    3    0    0 -0.50008268605E+02 -0.44757928848E+02  0.10636786853E+02  0.14235430608E+03  0.12509000000E+03 0.  0.
         25    1    4    4    0    0  0.69602913941E+01 -0.13440983051E+02 -0.10918630910E+03  0.16672811364E+03  0.12509000000E+03 0.  0.
         25    1    4    4    0    0  0.43047977211E+02  0.58198911899E+02 -0.15732117529E+03  0.21362982465E+03  0.12509000000E+03 0.  0.
<mgrwt>
<rscale>  2 0.45580509E+03</rscale>
<asrwt>0</asrwt>
<pdfrwt beam="1">  1       21 0.19620702E-01 0.45580509E+03</pdfrwt>
<pdfrwt beam="2">  1       21 0.57248744E-01 0.45580509E+03</pdfrwt>
<totfact> 0.63297523E+04</totfact>
</mgrwt>
</event>
<event>
 7    0  0.4793433E-002  0.4519987E+03  0.7546771E-02  0.1027128E+00
         21   -1    0    0  502  501  0.00000000000E+00  0.00000000000E+00  0.80307944922E+03  0.80307944922E+03  0.00000000000E+00 0. -1.
         21   -1    0    0  501  502 -0.00000000000E+00 -0.00000000000E+00 -0.63599808523E+02  0.63599808523E+02  0.00000000000E+00 0. -1.
      99926    2    1    2    0    0  0.00000000000E+00  0.00000000000E+00  0.73947964069E+03  0.86667925774E+03  0.45199866902E+03 0.  0.
      99925    2    3    3    0    0 -0.21697497855E+02  0.76757462014E+02  0.32041254308E+03  0.42212641523E+03  0.26299053838E+03 0.  0.
         25    1    4    4    0    0  0.67733785362E+01  0.37262499782E+02  0.21433458592E+03  0.25104022660E+03  0.12509000000E+03 0.  0.
         25    1    3    3    0    0  0.21697497855E+02 -0.76757462014E+02  0.41906709761E+03  0.44455284251E+03  0.12509000000E+03 0.  0.
         25    1    4    4    0    0 -0.28470876391E+02  0.39494962232E+02  0.10607795716E+03  0.17108618863E+03  0.12509000000E+03 0.  0.
<mgrwt>
<rscale>  2 0.45199867E+03</rscale>
<asrwt>0</asrwt>
<pdfrwt beam="1">  1       21 0.11809991E+00 0.45199867E+03</pdfrwt>
<pdfrwt beam="2">  1       21 0.93529135E-02 0.45199867E+03</pdfrwt>
<totfact> 0.45769996E+04</totfact>
</mgrwt>
</event>
<event>
 7    0  0.4793433E-002  0.4523543E+03  0.7546771E-02  0.1027022E+00
         21   -1    0    0  502  501  0.00000000000E+00  0.00000000000E+00  0.49708757856E+02  0.49708757856E+02  0.00000000000E+00 0. -1.
         21   -1    0    0  501  502 -0.00000000000E+00 -0.00000000000E+00 -0.10291164171E+04  0.10291164171E+04  0.00000000000E+00 0. -1.
      99926    2    1    2    0    0 -0.35527136788E-14  0.14210854715E-13 -0.97940765926E+03  0.10788251750E+04  0.45235428056E+03 0.  0.
      99925    2    3    3    0    0  0.26472623527E+02 -0.93931164444E+02 -0.74380352202E+03  0.79478172577E+03  0.26250799759E+03 0.  0.
         25    1    3    3    0    0 -0.26472623527E+02  0.93931164444E+02 -0.23560413724E+03  0.28404344920E+03  0.12509000000E+03 0.  0.
         25    1    4    4    0    0  0.12472029136E+02 -0.88639279049E+02 -0.42589858943E+03  0.45282401646E+03  0.12509000000E+03 0.  0.
         25    1    4    4    0    0  0.14000594391E+02 -0.52918853948E+01 -0.31790493259E+03  0.34195770931E+03  0.12509000000E+03 0.  0.
<mgrwt>
<rscale>  2 0.45235428E+03</rscale>
<asrwt>0</asrwt>
<pdfrwt beam="1">  1       21 0.73101118E-02 0.45235428E+03</pdfrwt>
<pdfrwt beam="2">  1       21 0.15134064E+00 0.45235428E+03</pdfrwt>
<totfact> 0.36995006E+04</totfact>
</mgrwt>
</event>
<event>
 7    0  0.4793433E-002  0.4542385E+03  0.7546771E-02  0.1026466E+00
         21   -1    0    0  502  501  0.00000000000E+00  0.00000000000E+00  0.56555076812E+02  0.56555076812E+02  0.00000000000E+00 0. -1.
         21   -1    0    0  501  502 -0.00000000000E+00 -0.00000000000E+00 -0.91208692091E+03  0.91208692091E+03  0.00000000000E+00 0. -1.
      99926    2    1    2    0    0  0.00000000000E+00 -0.17763568394E-14 -0.85553184410E+03  0.96864199773E+03  0.45423846544E+03 0.  0.
      99925    2    3    3    0    0 -0.71967523189E+02  0.15529003042E+02 -0.72038504769E+03  0.77031741778E+03  0.26270483984E+03 0.  0.
         25    1    4    4    0    0 -0.41553448275E+02 -0.31187978589E+02 -0.37975617953E+03  0.40318933898E+03  0.12509000000E+03 0.  0.
         25    1    3    3    0    0  0.71967523189E+02 -0.15529003042E+02 -0.13514679642E+03  0.19832457995E+03  0.12509000000E+03 0.  0.
         25    1    4    4    0    0 -0.30414074914E+02  0.46716981630E+02 -0.34062886816E+03  0.36712807880E+03  0.12509000000E+03 0.  0.
<mgrwt>
<rscale>  2 0.45423847E+03</rscale>
<asrwt>0</asrwt>
<pdfrwt beam="1">  1       21 0.83169233E-02 0.45423847E+03</pdfrwt>
<pdfrwt beam="2">  1       21 0.13413043E+00 0.45423847E+03</pdfrwt>
<totfact> 0.40636436E+04</totfact>
</mgrwt>
</event>
<event>
 7    0  0.4793433E-002  0.4323452E+03  0.7546771E-02  0.1033122E+00
         21   -1    0    0  502  501  0.00000000000E+00  0.00000000000E+00  0.38256152468E+03  0.38256152468E+03  0.00000000000E+00 0.  1.
         21   -1    0    0  501  502 -0.00000000000E+00 -0.00000000000E+00 -0.12215181451E+03  0.12215181451E+03  0.00000000000E+00 0.  1.
      99926    2    1    2    0    0  0.71054273576E-14  0.00000000000E+00  0.26040971017E+03  0.50471333919E+03  0.43234516026E+03 0.  0.
      99925    2    3    3    0    0  0.35430769471E+02  0.77203055267E+02  0.20343543573E+03  0.34312983998E+03  0.26293812847E+03 0.  0.
         25    1    4    4    0    0  0.40540063781E+02  0.46759590248E+02  0.14628788277E+03  0.20218211789E+03  0.12509000000E+03 0.  0.
         25    1    3    3    0    0 -0.35430769471E+02 -0.77203055267E+02  0.56974274445E+02  0.16158349921E+03  0.12509000000E+03 0.  0.
         25    1    4    4    0    0 -0.51092943108E+01  0.30443465019E+02  0.57147552961E+02  0.14094772208E+03  0.12509000000E+03 0.  0.
<mgrwt>
<rscale>  2 0.43234516E+03</rscale>
<asrwt>0</asrwt>
<pdfrwt beam="1">  1       21 0.56259047E-01 0.43234516E+03</pdfrwt>
<pdfrwt beam="2">  1       21 0.17963502E-01 0.43234516E+03</pdfrwt>
<totfact> 0.78050718E+04</totfact>
</mgrwt>
</event>
<event>
 7    0  0.4793433E-002  0.4516565E+03  0.7546771E-02  0.1027229E+00
         21   -1    0    0  502  501  0.00000000000E+00  0.00000000000E+00  0.25236029379E+04  0.25236029379E+04  0.00000000000E+00 0. -1.
         21   -1    0    0  501  502 -0.00000000000E+00 -0.00000000000E+00 -0.20208564873E+02  0.20208564873E+02  0.00000000000E+00 0. -1.
      99926    2    1    2    0    0 -0.35527136788E-14  0.00000000000E+00  0.25033943730E+04  0.25438115028E+04  0.45165647869E+03 0.  0.
      99925    2    3    3    0    0 -0.30210012719E+02 -0.96410334883E+02  0.13366059317E+04  0.13659955696E+04  0.26309861640E+03 0.  0.
         25    1    4    4    0    0 -0.31256355921E+01 -0.36284719868E+02  0.82428251007E+03  0.83451513767E+03  0.12509000000E+03 0.  0.
         25    1    4    4    0    0 -0.27084377127E+02 -0.60125615015E+02  0.51232342164E+03  0.53148043193E+03  0.12509000000E+03 0.  0.
         25    1    3    3    0    0  0.30210012719E+02  0.96410334883E+02  0.11667884413E+04  0.11778159332E+04  0.12509000000E+03 0.  0.
<mgrwt>
<rscale>  2 0.45165648E+03</rscale>
<asrwt>0</asrwt>
<pdfrwt beam="1">  1       21 0.37111786E+00 0.45165648E+03</pdfrwt>
<pdfrwt beam="2">  1       21 0.29718495E-02 0.45165648E+03</pdfrwt>
<totfact> 0.68707712E+03</totfact>
</mgrwt>
</event>
<event>
 7    0  0.4793433E-002  0.4559360E+03  0.7546771E-02  0.1025967E+00
         21   -1    0    0  502  501  0.00000000000E+00  0.00000000000E+00  0.18951473333E+03  0.18951473333E+03  0.00000000000E+00 0.  1.
         21   -1    0    0  501  502 -0.00000000000E+00 -0.00000000000E+00 -0.27422361540E+03  0.27422361540E+03  0.00000000000E+00 0.  1.
      99926    2    1    2    0    0  0.00000000000E+00  0.00000000000E+00 -0.84708882067E+02  0.46373834873E+03  0.45593602773E+03 0.  0.
      99925    2    3    3    0    0 -0.73816020541E+02  0.37253519067E+02  0.26403253115E+02  0.27711025798E+03  0.26316598134E+03 0.  0.
         25    1    4    4    0    0 -0.53096372287E+02  0.25986855980E+02 -0.23589237269E+02  0.14035135072E+03  0.12509000000E+03 0.  0.
         25    1    4    4    0    0 -0.20719648254E+02  0.11266663087E+02  0.49992490384E+02  0.13675890726E+03  0.12509000000E+03 0.  0.
         25    1    3    3    0    0  0.73816020541E+02 -0.37253519067E+02 -0.11111213518E+03  0.18662809075E+03  0.12509000000E+03 0.  0.
<mgrwt>
<rscale>  2 0.45593603E+03</rscale>
<asrwt>0</asrwt>
<pdfrwt beam="1">  1       21 0.27869814E-01 0.45593603E+03</pdfrwt>
<pdfrwt beam="2">  1       21 0.40327002E-01 0.45593603E+03</pdfrwt>
<totfact> 0.67400995E+04</totfact>
</mgrwt>
</event>
<event>
 7    0  0.4793433E-002  0.4669530E+03  0.7546771E-02  0.1022784E+00
         21   -1    0    0  502  501  0.00000000000E+00  0.00000000000E+00  0.24370097122E+03  0.24370097122E+03  0.00000000000E+00 0. -1.
         21   -1    0    0  501  502 -0.00000000000E+00 -0.00000000000E+00 -0.22368101764E+03  0.22368101764E+03  0.00000000000E+00 0. -1.
      99926    2    1    2    0    0  0.00000000000E+00  0.00000000000E+00  0.20019953575E+02  0.46738198886E+03  0.46695302223E+03 0.  0.
      99925    2    3    3    0    0 -0.16055230580E+02  0.57703219570E+02  0.12152140873E+03  0.29551725869E+03  0.26263199620E+03 0.  0.
         25    1    3    3    0    0  0.16055230580E+02 -0.57703219570E+02 -0.10150145515E+03  0.17186473017E+03  0.12509000000E+03 0.  0.
         25    1    4    4    0    0 -0.18034949231E+02 -0.10527126055E+02  0.54321809948E+02  0.13796538302E+03  0.12509000000E+03 0.  0.
         25    1    4    4    0    0  0.19797186509E+01  0.68230345625E+02  0.67199598780E+02  0.15755187567E+03  0.12509000000E+03 0.  0.
<mgrwt>
<rscale>  2 0.46695302E+03</rscale>
<asrwt>0</asrwt>
<pdfrwt beam="1">  1       21 0.35838378E-01 0.46695302E+03</pdfrwt>
<pdfrwt beam="2">  1       21 0.32894267E-01 0.46695302E+03</pdfrwt>
<totfact> 0.61563771E+04</totfact>
</mgrwt>
</event>
<event>
 7    0  0.4793433E-002  0.4504371E+03  0.7546771E-02  0.1027592E+00
         21   -1    0    0  502  501  0.00000000000E+00  0.00000000000E+00  0.14649965339E+04  0.14649965339E+04  0.00000000000E+00 0.  1.
         21   -1    0    0  501  502 -0.00000000000E+00 -0.00000000000E+00 -0.34623566678E+02  0.34623566678E+02  0.00000000000E+00 0.  1.
      99926    2    1    2    0    0  0.00000000000E+00  0.00000000000E+00  0.14303729673E+04  0.14996201006E+04  0.45043714401E+03 0.  0.
      99925    2    3    3    0    0  0.39734080339E+02 -0.98875579982E+02  0.97639722196E+03  0.10168192484E+04  0.26308681353E+03 0.  0.
         25    1    4    4    0    0  0.83368035623E+01 -0.72882356300E+02  0.62495070207E+03  0.64155454038E+03  0.12509000000E+03 0.  0.
         25    1    3    3    0    0 -0.39734080339E+02  0.98875579982E+02  0.45397574530E+03  0.48280085219E+03  0.12509000000E+03 0.  0.
         25    1    4    4    0    0  0.31397276777E+02 -0.25993223682E+02  0.35144651989E+03  0.37526470805E+03  0.12509000000E+03 0.  0.
<mgrwt>
<rscale>  2 0.45043714E+03</rscale>
<asrwt>0</asrwt>
<pdfrwt beam="1">  1       21 0.21544063E+00 0.45043714E+03</pdfrwt>
<pdfrwt beam="2">  1       21 0.50917020E-02 0.45043714E+03</pdfrwt>
<totfact> 0.24650588E+04</totfact>
</mgrwt>
</event>
<event>
 7    0  0.4793433E-002  0.4193746E+03  0.7546771E-02  0.1037270E+00
         21   -1    0    0  502  501  0.00000000000E+00  0.00000000000E+00  0.11755399824E+03  0.11755399824E+03  0.00000000000E+00 0. -1.
         21   -1    0    0  501  502 -0.00000000000E+00 -0.00000000000E+00 -0.37403033313E+03  0.37403033313E+03  0.00000000000E+00 0. -1.
      99926    2    1    2    0    0  0.00000000000E+00  0.71054273576E-14 -0.25647633490E+03  0.49158433137E+03  0.41937458731E+03 0.  0.
      99925    2    3    3    0    0 -0.50427012551E+02  0.43348979335E+02 -0.12519341261E+03  0.29844000350E+03  0.26262335677E+03 0.  0.
         25    1    3    3    0    0  0.50427012551E+02 -0.43348979335E+02 -0.13128292228E+03  0.19314432787E+03  0.12509000000E+03 0.  0.
         25    1    4    4    0    0 -0.13422182136E+01  0.46872065167E+02 -0.40632971097E+02  0.13963287035E+03  0.12509000000E+03 0.  0.
         25    1    4    4    0    0 -0.49084794337E+02 -0.35230858324E+01 -0.84560441516E+02  0.15880713315E+03  0.12509000000E+03 0.  0.
<mgrwt>
<rscale>  2 0.41937459E+03</rscale>
<asrwt>0</asrwt>
<pdfrwt beam="1">  1       21 0.17287353E-01 0.41937459E+03</pdfrwt>
<pdfrwt beam="2">  1       21 0.55004460E-01 0.41937459E+03</pdfrwt>
<totfact> 0.88304342E+04</totfact>
</mgrwt>
</event>
<event>
 7    0  0.4793433E-002  0.4534348E+03  0.7546771E-02  0.1026703E+00
         21   -1    0    0  502  501  0.00000000000E+00  0.00000000000E+00  0.11722436461E+03  0.11722436461E+03  0.00000000000E+00 0. -1.
         21   -1    0    0  501  502 -0.00000000000E+00 -0.00000000000E+00 -0.43848204217E+03  0.43848204217E+03  0.00000000000E+00 0. -1.
      99926    2    1    2    0    0  0.00000000000E+00  0.00000000000E+00 -0.32125767756E+03  0.55570640678E+03  0.45343479701E+03 0.  0.
      99925    2    3    3    0    0 -0.86090303328E+02 -0.68427460544E+02 -0.22742077484E+03  0.36453441590E+03  0.26281414319E+03 0.  0.
         25    1    4    4    0    0 -0.48164370430E+02 -0.62138682790E+02 -0.82289637220E+02  0.16911568517E+03  0.12509000000E+03 0.  0.
         25    1    4    4    0    0 -0.37925932898E+02 -0.62887777542E+01 -0.14513113762E+03  0.19541873073E+03  0.12509000000E+03 0.  0.
         25    1    3    3    0    0  0.86090303328E+02  0.68427460544E+02 -0.93836902719E+02  0.19117199088E+03  0.12509000000E+03 0.  0.
<mgrwt>
<rscale>  2 0.45343480E+03</rscale>
<asrwt>0</asrwt>
<pdfrwt beam="1">  1       21 0.17238877E-01 0.45343480E+03</pdfrwt>
<pdfrwt beam="2">  1       21 0.64482653E-01 0.45343480E+03</pdfrwt>
<totfact> 0.62258298E+04</totfact>
</mgrwt>
</event>
<event>
 7    0  0.4793433E-002  0.5191034E+03  0.7546771E-02  0.1008910E+00
         21   -1    0    0  502  501  0.00000000000E+00  0.00000000000E+00  0.90404601123E+02  0.90404601123E+02  0.00000000000E+00 0.  1.
         21   -1    0    0  501  502 -0.00000000000E+00 -0.00000000000E+00 -0.74517331368E+03  0.74517331368E+03  0.00000000000E+00 0.  1.
      99926    2    1    2    0    0 -0.44408920985E-15  0.00000000000E+00 -0.65476871255E+03  0.83557791480E+03  0.51910344322E+03 0.  0.
      99925    2    3    3    0    0  0.39787213233E+01 -0.16538820642E+03 -0.36752227598E+03  0.48127985882E+03  0.26303724093E+03 0.  0.
         25    1    3    3    0    0 -0.39787213233E+01  0.16538820642E+03 -0.28724643657E+03  0.35429805598E+03  0.12509000000E+03 0.  0.
         25    1    4    4    0    0 -0.12358741240E+02 -0.59675355354E+02 -0.11842418730E+03  0.18271749440E+03  0.12509000000E+03 0.  0.
         25    1    4    4    0    0  0.16337462564E+02 -0.10571285107E+03 -0.24909808868E+03  0.29856236442E+03  0.12509000000E+03 0.  0.
<mgrwt>
<rscale>  2 0.51910344E+03</rscale>
<asrwt>0</asrwt>
<pdfrwt beam="1">  1       21 0.13294794E-01 0.51910344E+03</pdfrwt>
<pdfrwt beam="2">  1       21 0.10958431E+00 0.51910344E+03</pdfrwt>
<totfact> 0.28698525E+04</totfact>
</mgrwt>
</event>
<event>
 7    0  0.4793433E-002  0.4541454E+03  0.7546771E-02  0.1026493E+00
         21   -1    0    0  502  501  0.00000000000E+00  0.00000000000E+00  0.78778491338E+03  0.78778491338E+03  0.00000000000E+00 0. -1.
         21   -1    0    0  501  502 -0.00000000000E+00 -0.00000000000E+00 -0.65451892820E+02  0.65451892820E+02  0.00000000000E+00 0. -1.
      99926    2    1    2    0    0  0.35527136788E-14  0.00000000000E+00  0.72233302056E+03  0.85323680620E+03  0.45414541158E+03 0.  0.
      99925    2    3    3    0    0 -0.13193009181E+02  0.10825161365E+03  0.40319161290E+03  0.49352690429E+03  0.26289325057E+03 0.  0.
         25    1    3    3    0    0  0.13193009181E+02 -0.10825161365E+03  0.31914140766E+03  0.35970990191E+03  0.12509000000E+03 0.  0.
         25    1    4    4    0    0  0.24521862617E+02  0.55017864057E+02  0.15539167888E+03  0.20838034715E+03  0.12509000000E+03 0.  0.
         25    1    4    4    0    0 -0.37714871798E+02  0.53233749593E+02  0.24779993402E+03  0.28514655714E+03  0.12509000000E+03 0.  0.
<mgrwt>
<rscale>  2 0.45414541E+03</rscale>
<asrwt>0</asrwt>
<pdfrwt beam="1">  1       21 0.11585072E+00 0.45414541E+03</pdfrwt>
<pdfrwt beam="2">  1       21 0.96252788E-02 0.45414541E+03</pdfrwt>
<totfact> 0.45599841E+04</totfact>
</mgrwt>
</event>
<event>
 7    0  0.4793433E-002  0.4566455E+03  0.7546771E-02  0.1025759E+00
         21   -1    0    0  502  501  0.00000000000E+00  0.00000000000E+00  0.59890502407E+03  0.59890502407E+03  0.00000000000E+00 0.  1.
         21   -1    0    0  501  502 -0.00000000000E+00 -0.00000000000E+00 -0.87044311669E+02  0.87044311669E+02  0.00000000000E+00 0.  1.
      99926    2    1    2    0    0  0.14210854715E-13  0.14210854715E-13  0.51186071240E+03  0.68594933574E+03  0.45664548865E+03 0.  0.
      99925    2    3    3    0    0  0.73941167995E+02  0.84762235966E+02  0.28756667475E+03  0.40557947930E+03  0.26296043169E+03 0.  0.
         25    1    3    3    0    0 -0.73941167995E+02 -0.84762235966E+02  0.22429403766E+03  0.28036985644E+03  0.12509000000E+03 0.  0.
         25    1    4    4    0    0  0.29761211008E+02  0.29788191916E+02  0.83966856054E+02  0.15643211650E+03  0.12509000000E+03 0.  0.
         25    1    4    4    0    0  0.44179956987E+02  0.54974044051E+02  0.20359981869E+03  0.24914736280E+03  0.12509000000E+03 0.  0.
<mgrwt>
<rscale>  2 0.45664549E+03</rscale>
<asrwt>0</asrwt>
<pdfrwt beam="1">  1       21 0.88074266E-01 0.45664549E+03</pdfrwt>
<pdfrwt beam="2">  1       21 0.12800634E-01 0.45664549E+03</pdfrwt>
<totfact> 0.52982953E+04</totfact>
</mgrwt>
</event>
<event>
 7    0  0.4793433E-002  0.4596185E+03  0.7546771E-02  0.1024892E+00
         21   -1    0    0  502  501  0.00000000000E+00  0.00000000000E+00  0.20537307151E+03  0.20537307151E+03  0.00000000000E+00 0.  1.
         21   -1    0    0  501  502 -0.00000000000E+00 -0.00000000000E+00 -0.25715295603E+03  0.25715295603E+03  0.00000000000E+00 0.  1.
      99926    2    1    2    0    0  0.00000000000E+00  0.00000000000E+00 -0.51779884516E+02  0.46252602754E+03  0.45961850453E+03 0.  0.
      99925    2    3    3    0    0 -0.10403205983E+03 -0.26132285885E+02  0.15729460762E+02  0.28445136444E+03  0.26298212289E+03 0.  0.
         25    1    4    4    0    0 -0.31118598688E+02 -0.47824724951E+02  0.11794297124E+02  0.13799342392E+03  0.12509000000E+03 0.  0.
         25    1    4    4    0    0 -0.72913461138E+02  0.21692439066E+02  0.39351636375E+01  0.14645794052E+03  0.12509000000E+03 0.  0.
         25    1    3    3    0    0  0.10403205983E+03  0.26132285885E+02 -0.67509345277E+02  0.17807466310E+03  0.12509000000E+03 0.  0.
<mgrwt>
<rscale>  2 0.45961850E+03</rscale>
<asrwt>0</asrwt>
<pdfrwt beam="1">  1       21 0.30201922E-01 0.45961850E+03</pdfrwt>
<pdfrwt beam="2">  1       21 0.37816611E-01 0.45961850E+03</pdfrwt>
<totfact> 0.65548961E+04</totfact>
</mgrwt>
</event>
<event>
 7    0  0.4793433E-002  0.4531171E+03  0.7546771E-02  0.1026797E+00
         21   -1    0    0  502  501  0.00000000000E+00  0.00000000000E+00  0.37147780206E+03  0.37147780206E+03  0.00000000000E+00 0.  1.
         21   -1    0    0  501  502 -0.00000000000E+00 -0.00000000000E+00 -0.13817453137E+03  0.13817453137E+03  0.00000000000E+00 0.  1.
      99926    2    1    2    0    0  0.00000000000E+00  0.00000000000E+00  0.23330327068E+03  0.50965233343E+03  0.45311707633E+03 0.  0.
      99925    2    3    3    0    0 -0.48009334775E+02  0.75251733768E+02  0.22197099770E+03  0.35556259279E+03  0.26303215376E+03 0.  0.
         25    1    4    4    0    0 -0.28788857901E+02  0.25412205035E+02  0.15829883097E+03  0.20537917735E+03  0.12509000000E+03 0.  0.
         25    1    4    4    0    0 -0.19220476874E+02  0.49839528734E+02  0.63672166733E+02  0.15018341544E+03  0.12509000000E+03 0.  0.
         25    1    3    3    0    0  0.48009334775E+02 -0.75251733768E+02  0.11332272986E+02  0.15408974064E+03  0.12509000000E+03 0.  0.
<mgrwt>
<rscale>  2 0.45311708E+03</rscale>
<asrwt>0</asrwt>
<pdfrwt beam="1">  1       21 0.54629088E-01 0.45311708E+03</pdfrwt>
<pdfrwt beam="2">  1       21 0.20319784E-01 0.45311708E+03</pdfrwt>
<totfact> 0.65572123E+04</totfact>
</mgrwt>
</event>
<event>
 7    0  0.4793433E-002  0.4555291E+03  0.7546771E-02  0.1026086E+00
         21   -1    0    0  502  501  0.00000000000E+00  0.00000000000E+00  0.11475431964E+03  0.11475431964E+03  0.00000000000E+00 0.  1.
         21   -1    0    0  501  502 -0.00000000000E+00 -0.00000000000E+00 -0.45206751430E+03  0.45206751430E+03  0.00000000000E+00 0.  1.
      99926    2    1    2    0    0  0.00000000000E+00  0.00000000000E+00 -0.33731319466E+03  0.56682183395E+03  0.45552914303E+03 0.  0.
      99925    2    3    3    0    0 -0.10402349275E+03  0.27287846979E+02 -0.16643559596E+03  0.32930935960E+03  0.26301774290E+03 0.  0.
         25    1    4    4    0    0 -0.33990487939E+02 -0.11820889181E+01 -0.38932582869E+02  0.13535141194E+03  0.12509000000E+03 0.  0.
         25    1    4    4    0    0 -0.70033004807E+02  0.28469935898E+02 -0.12750301309E+03  0.19395794766E+03  0.12509000000E+03 0.  0.
         25    1    3    3    0    0  0.10402349275E+03 -0.27287846979E+02 -0.17087759870E+03  0.23751247435E+03  0.12509000000E+03 0.  0.
<mgrwt>
<rscale>  2 0.45552914E+03</rscale>
<asrwt>0</asrwt>
<pdfrwt beam="1">  1       21 0.16875636E-01 0.45552914E+03</pdfrwt>
<pdfrwt beam="2">  1       21 0.66480515E-01 0.45552914E+03</pdfrwt>
<totfact> 0.60514773E+04</totfact>
</mgrwt>
</event>
<event>
 7    0  0.4793433E-002  0.4505755E+03  0.7546771E-02  0.1027551E+00
         21   -1    0    0  502  501  0.00000000000E+00  0.00000000000E+00  0.27425813202E+03  0.27425813202E+03  0.00000000000E+00 0. -1.
         21   -1    0    0  501  502 -0.00000000000E+00 -0.00000000000E+00 -0.18506130594E+03  0.18506130594E+03  0.00000000000E+00 0. -1.
      99926    2    1    2    0    0  0.00000000000E+00  0.00000000000E+00  0.89196826081E+02  0.45931943796E+03  0.45057549013E+03 0.  0.
      99925    2    3    3    0    0 -0.63183473239E+02  0.49710670338E+02 -0.20005663593E+02  0.27483097250E+03  0.26204681802E+03 0.  0.
         25    1    3    3    0    0  0.63183473239E+02 -0.49710670338E+02  0.10920248967E+03  0.18448846546E+03  0.12509000000E+03 0.  0.
         25    1    4    4    0    0 -0.66965957406E+02  0.44229673407E+02 -0.54490097493E+01  0.14872089049E+03  0.12509000000E+03 0.  0.
         25    1    4    4    0    0  0.37824841667E+01  0.54809969313E+01 -0.14556653843E+02  0.12611008201E+03  0.12509000000E+03 0.  0.
<mgrwt>
<rscale>  2 0.45057549E+03</rscale>
<asrwt>0</asrwt>
<pdfrwt beam="1">  1       21 0.40332078E-01 0.45057549E+03</pdfrwt>
<pdfrwt beam="2">  1       21 0.27214898E-01 0.45057549E+03</pdfrwt>
<totfact> 0.70687662E+04</totfact>
</mgrwt>
</event>
<event>
 7    0  0.4793433E-002  0.4551811E+03  0.7546771E-02  0.1026188E+00
         21   -1    0    0  502  501  0.00000000000E+00  0.00000000000E+00  0.59008029265E+02  0.59008029265E+02  0.00000000000E+00 0. -1.
         21   -1    0    0  501  502 -0.00000000000E+00 -0.00000000000E+00 -0.87780367715E+03  0.87780367715E+03  0.00000000000E+00 0. -1.
      99926    2    1    2    0    0 -0.35527136788E-14  0.14210854715E-13 -0.81879564788E+03  0.93681170641E+03  0.45518112909E+03 0.  0.
      99925    2    3    3    0    0 -0.29612154363E+02  0.10852316998E+03 -0.48570097429E+03  0.56364454845E+03  0.26293646088E+03 0.  0.
         25    1    3    3    0    0  0.29612154363E+02 -0.10852316998E+03 -0.33309467359E+03  0.37316715797E+03  0.12509000000E+03 0.  0.
         25    1    4    4    0    0 -0.20349329733E+02  0.97829545530E+02 -0.27120297951E+03  0.31493376985E+03  0.12509000000E+03 0.  0.
         25    1    4    4    0    0 -0.92628246297E+01  0.10693624450E+02 -0.21449799478E+03  0.24871077859E+03  0.12509000000E+03 0.  0.
<mgrwt>
<rscale>  2 0.45518113E+03</rscale>
<asrwt>0</asrwt>
<pdfrwt beam="1">  1       21 0.86776519E-02 0.45518113E+03</pdfrwt>
<pdfrwt beam="2">  1       21 0.12908877E+00 0.45518113E+03</pdfrwt>
<totfact> 0.41620515E+04</totfact>
</mgrwt>
</event>
<event>
 7    0  0.4793433E-002  0.4599684E+03  0.7546771E-02  0.1024790E+00
         21   -1    0    0  502  501  0.00000000000E+00  0.00000000000E+00  0.48736205762E+02  0.48736205762E+02  0.00000000000E+00 0. -1.
         21   -1    0    0  501  502 -0.00000000000E+00 -0.00000000000E+00 -0.10852860962E+04  0.10852860962E+04  0.00000000000E+00 0. -1.
      99926    2    1    2    0    0 -0.14210854715E-13  0.00000000000E+00 -0.10365498904E+04  0.11340223019E+04  0.45996837497E+03 0.  0.
      99925    2    3    3    0    0 -0.74660247223E+02  0.88716457658E+02 -0.70069684011E+03  0.75734001954E+03  0.26295071987E+03 0.  0.
         25    1    4    4    0    0 -0.20257834720E+02  0.26788131314E+02 -0.41510410206E+03  0.43484124401E+03  0.12509000000E+03 0.  0.
         25    1    4    4    0    0 -0.54402412503E+02  0.61928326345E+02 -0.28559273805E+03  0.32249877553E+03  0.12509000000E+03 0.  0.
         25    1    3    3    0    0  0.74660247223E+02 -0.88716457658E+02 -0.33585305031E+03  0.37668228241E+03  0.12509000000E+03 0.  0.
<mgrwt>
<rscale>  2 0.45996837E+03</rscale>
<asrwt>0</asrwt>
<pdfrwt beam="1">  1       21 0.71670892E-02 0.45996837E+03</pdfrwt>
<pdfrwt beam="2">  1       21 0.15960089E+00 0.45996837E+03</pdfrwt>
<totfact> 0.33022756E+04</totfact>
</mgrwt>
</event>
<event>
 6    0  0.4793433E-002  0.4528994E+03  0.7546771E-02  0.1026861E+00
         21   -1    0    0  502  501  0.00000000000E+00  0.00000000000E+00  0.14391436855E+03  0.14391436855E+03  0.00000000000E+00 0.  1.
         21   -1    0    0  501  502 -0.00000000000E+00 -0.00000000000E+00 -0.35631930637E+03  0.35631930637E+03  0.00000000000E+00 0.  1.
      99926    2    1    2    0    0 -0.14210854715E-13  0.35527136788E-14 -0.21240493782E+03  0.50023367491E+03  0.45289940595E+03 0.  0.
         25    1    3    3    0    0  0.74652191083E+02  0.23036807054E+02 -0.31327196681E+01  0.14751598607E+03  0.12509000000E+03 0.  0.
         25    1    3    3    0    0 -0.91661055456E+02 -0.13667549663E+01 -0.12736096598E+03  0.20067870057E+03  0.12509000000E+03 0.  0.
         25    1    3    3    0    0  0.17008864373E+02 -0.21670052088E+02 -0.81911252174E+02  0.15203898828E+03  0.12509000000E+03 0.  0.
<mgrwt>
<rscale>  2 0.45289941E+03</rscale>
<asrwt>0</asrwt>
<pdfrwt beam="1">  1       21 0.21163878E-01 0.45289941E+03</pdfrwt>
<pdfrwt beam="2">  1       21 0.52399897E-01 0.45289941E+03</pdfrwt>
<totfact> 0.66353762E+04</totfact>
</mgrwt>
</event>
<event>
 7    0  0.4793433E-002  0.4350333E+03  0.7546771E-02  0.1032282E+00
         21   -1    0    0  502  501  0.00000000000E+00  0.00000000000E+00  0.15178768601E+03  0.15178768601E+03  0.00000000000E+00 0. -1.
         21   -1    0    0  501  502 -0.00000000000E+00 -0.00000000000E+00 -0.31170834888E+03  0.31170834888E+03  0.00000000000E+00 0. -1.
      99926    2    1    2    0    0  0.00000000000E+00  0.00000000000E+00 -0.15992066287E+03  0.46349603489E+03  0.43503328142E+03 0.  0.
      99925    2    3    3    0    0  0.35377792943E+02  0.81399855184E+02 -0.72253708103E+02  0.28683101935E+03  0.26300933571E+03 0.  0.
         25    1    4    4    0    0  0.38221893213E+02  0.57571377552E+02 -0.70722345669E+02  0.15945072879E+03  0.12509000000E+03 0.  0.
         25    1    4    4    0    0 -0.28441002702E+01  0.23828477632E+02 -0.15313624340E+01  0.12738029056E+03  0.12509000000E+03 0.  0.
         25    1    3    3    0    0 -0.35377792943E+02 -0.81399855184E+02 -0.87666954771E+02  0.17666501554E+03  0.12509000000E+03 0.  0.
<mgrwt>
<rscale>  2 0.43503328E+03</rscale>
<asrwt>0</asrwt>
<pdfrwt beam="1">  1       21 0.22321719E-01 0.43503328E+03</pdfrwt>
<pdfrwt beam="2">  1       21 0.45839463E-01 0.43503328E+03</pdfrwt>
<totfact> 0.79843205E+04</totfact>
</mgrwt>
</event>
<event>
 7    0  0.4793433E-002  0.4478180E+03  0.7546771E-02  0.1028375E+00
         21   -1    0    0  502  501  0.00000000000E+00  0.00000000000E+00  0.26805359119E+03  0.26805359119E+03  0.00000000000E+00 0.  1.
         21   -1    0    0  501  502 -0.00000000000E+00 -0.00000000000E+00 -0.18703435395E+03  0.18703435395E+03  0.00000000000E+00 0.  1.
      99926    2    1    2    0    0  0.71054273576E-14  0.00000000000E+00  0.81019237245E+02  0.45508794514E+03  0.44781795521E+03 0.  0.
      99925    2    3    3    0    0 -0.35281254512E+02 -0.76218209220E+02 -0.14951009805E+02  0.27644926301E+03  0.26295756309E+03 0.  0.
         25    1    4    4    0    0 -0.53896535065E+02 -0.20277692979E+02 -0.10070487839E+02  0.13807586375E+03  0.12509000000E+03 0.  0.
         25    1    4    4    0    0  0.18615280553E+02 -0.55940516241E+02 -0.48805219660E+01  0.13837339926E+03  0.12509000000E+03 0.  0.
         25    1    3    3    0    0  0.35281254512E+02  0.76218209220E+02  0.95970247050E+02  0.17863868214E+03  0.12509000000E+03 0.  0.
<mgrwt>
<rscale>  2 0.44781796E+03</rscale>
<asrwt>0</asrwt>
<pdfrwt beam="1">  1       21 0.39419646E-01 0.44781796E+03</pdfrwt>
<pdfrwt beam="2">  1       21 0.27505052E-01 0.44781796E+03</pdfrwt>
<totfact> 0.72610028E+04</totfact>
</mgrwt>
</event>
<event>
 7    0  0.4793433E-002  0.4611080E+03  0.7546771E-02  0.1024460E+00
         21   -1    0    0  502  501  0.00000000000E+00  0.00000000000E+00  0.41532505462E+02  0.41532505462E+02  0.00000000000E+00 0. -1.
         21   -1    0    0  501  502 -0.00000000000E+00 -0.00000000000E+00 -0.12798443308E+04  0.12798443308E+04  0.00000000000E+00 0. -1.
      99926    2    1    2    0    0  0.00000000000E+00 -0.14210854715E-13 -0.12383118254E+04  0.13213768363E+04  0.46110797721E+03 0.  0.
      99925    2    3    3    0    0  0.25702125668E+02 -0.11553689821E+03 -0.74491303704E+03  0.79878785197E+03  0.26297761424E+03 0.  0.
         25    1    4    4    0    0 -0.11369907786E+01 -0.17652552273E+02 -0.36011602849E+03  0.38163328920E+03  0.12509000000E+03 0.  0.
         25    1    4    4    0    0  0.26839116447E+02 -0.97884345938E+02 -0.38479700855E+03  0.41715456277E+03  0.12509000000E+03 0.  0.
         25    1    3    3    0    0 -0.25702125668E+02  0.11553689821E+03 -0.49339878834E+03  0.52258898433E+03  0.12509000000E+03 0.  0.
<mgrwt>
<rscale>  2 0.46110798E+03</rscale>
<asrwt>0</asrwt>
<pdfrwt beam="1">  1       21 0.61077218E-02 0.46110798E+03</pdfrwt>
<pdfrwt beam="2">  1       21 0.18821239E+00 0.46110798E+03</pdfrwt>
<totfact> 0.27185837E+04</totfact>
</mgrwt>
</event>
<event>
 7    0  0.4793433E-002  0.4355158E+03  0.7546771E-02  0.1032132E+00
         21   -1    0    0  502  501  0.00000000000E+00  0.00000000000E+00  0.11362338674E+03  0.11362338674E+03  0.00000000000E+00 0.  1.
         21   -1    0    0  501  502 -0.00000000000E+00 -0.00000000000E+00 -0.41733049082E+03  0.41733049082E+03  0.00000000000E+00 0.  1.
      99926    2    1    2    0    0  0.14210854715E-13 -0.35527136788E-14 -0.30370710407E+03  0.53095387756E+03  0.43551580343E+03 0.  0.
      99925    2    3    3    0    0  0.74632674858E+02 -0.21106750550E+02 -0.25888454619E+03  0.37709647322E+03  0.26299241583E+03 0.  0.
         25    1    4    4    0    0 -0.45654766626E+00 -0.69637432316E+01 -0.95043781658E+02  0.15725625802E+03  0.12509000000E+03 0.  0.
         25    1    4    4    0    0  0.75089222524E+02 -0.14143007318E+02 -0.16384076454E+03  0.21984021520E+03  0.12509000000E+03 0.  0.
         25    1    3    3    0    0 -0.74632674858E+02  0.21106750550E+02 -0.44822557880E+02  0.15385740434E+03  0.12509000000E+03 0.  0.
<mgrwt>
<rscale>  2 0.43551580E+03</rscale>
<asrwt>0</asrwt>
<pdfrwt beam="1">  1       21 0.16709322E-01 0.43551580E+03</pdfrwt>
<pdfrwt beam="2">  1       21 0.61372131E-01 0.43551580E+03</pdfrwt>
<totfact> 0.73897488E+04</totfact>
</mgrwt>
</event>
<event>
 7    0  0.4793433E-002  0.4666119E+03  0.7546771E-02  0.1022881E+00
         21   -1    0    0  502  501  0.00000000000E+00  0.00000000000E+00  0.90444566177E+02  0.90444566177E+02  0.00000000000E+00 0.  1.
         21   -1    0    0  501  502 -0.00000000000E+00 -0.00000000000E+00 -0.60182352877E+03  0.60182352877E+03  0.00000000000E+00 0.  1.
      99926    2    1    2    0    0  0.00000000000E+00  0.00000000000E+00 -0.51137896260E+03  0.69226809495E+03  0.46661190716E+03 0.  0.
      99925    2    3    3    0    0 -0.90507566524E+02  0.64624538945E+02 -0.39958681286E+03  0.49098982122E+03  0.26274214146E+03 0.  0.
         25    1    3    3    0    0  0.90507566524E+02 -0.64624538945E+02 -0.11179214974E+03  0.20127827373E+03  0.12509000000E+03 0.  0.
         25    1    4    4    0    0 -0.86327266907E+02  0.41759166088E+02 -0.23487941984E+03  0.28286405733E+03  0.12509000000E+03 0.  0.
         25    1    4    4    0    0 -0.41802996171E+01  0.22865372856E+02 -0.16470739302E+03  0.20812576389E+03  0.12509000000E+03 0.  0.
<mgrwt>
<rscale>  2 0.46661191E+03</rscale>
<asrwt>0</asrwt>
<pdfrwt beam="1">  1       21 0.13300672E-01 0.46661191E+03</pdfrwt>
<pdfrwt beam="2">  1       21 0.88503459E-01 0.46661191E+03</pdfrwt>
<totfact> 0.48714866E+04</totfact>
</mgrwt>
</event>
<event>
 7    0  0.4793433E-002  0.4553393E+03  0.7546771E-02  0.1026142E+00
         21   -1    0    0  502  501  0.00000000000E+00  0.00000000000E+00  0.52246341771E+03  0.52246341771E+03  0.00000000000E+00 0. -1.
         21   -1    0    0  501  502 -0.00000000000E+00 -0.00000000000E+00 -0.99209761595E+02  0.99209761595E+02  0.00000000000E+00 0. -1.
      99926    2    1    2    0    0  0.00000000000E+00 -0.71054273576E-14  0.42325365612E+03  0.62167317931E+03  0.45533930695E+03 0.  0.
      99925    2    3    3    0    0  0.98106603785E+02  0.46333037102E+02  0.31151458249E+03  0.42191135936E+03  0.26305171359E+03 0.  0.
         25    1    4    4    0    0  0.39241649343E+02 -0.17397937982E+02  0.14023854662E+03  0.19276138967E+03  0.12509000000E+03 0.  0.
         25    1    3    3    0    0 -0.98106603785E+02 -0.46333037102E+02  0.11173907363E+03  0.19976181995E+03  0.12509000000E+03 0.  0.
         25    1    4    4    0    0  0.58864954442E+02  0.63730975085E+02  0.17127603586E+03  0.22914996969E+03  0.12509000000E+03 0.  0.
<mgrwt>
<rscale>  2 0.45533931E+03</rscale>
<asrwt>0</asrwt>
<pdfrwt beam="1">  1       21 0.76832854E-01 0.45533931E+03</pdfrwt>
<pdfrwt beam="2">  1       21 0.14589671E-01 0.45533931E+03</pdfrwt>
<totfact> 0.57210241E+04</totfact>
</mgrwt>
</event>
<event>
 7    0  0.4793433E-002  0.4417955E+03  0.7546771E-02  0.1030197E+00
         21   -1    0    0  502  501  0.00000000000E+00  0.00000000000E+00  0.46229857650E+03  0.46229857650E+03  0.00000000000E+00 0.  1.
         21   -1    0    0  501  502 -0.00000000000E+00 -0.00000000000E+00 -0.10555043083E+03  0.10555043083E+03  0.00000000000E+00 0.  1.
      99926    2    1    2    0    0 -0.14210854715E-13  0.00000000000E+00  0.35674814567E+03  0.56784900733E+03  0.44179549080E+03 0.  0.
      99925    2    3    3    0    0 -0.83776125796E+02 -0.36311937446E+02  0.17715048785E+03  0.33069963911E+03  0.26389952616E+03 0.  0.
         25    1    4    4    0    0 -0.47850033191E+01 -0.32953981119E+02  0.10154807990E+03  0.16452471474E+03  0.12509000000E+03 0.  0.
         25    1    3    3    0    0  0.83776125796E+02  0.36311937446E+02  0.17959765782E+03  0.23714936822E+03  0.12509000000E+03 0.  0.
         25    1    4    4    0    0 -0.78991122477E+02 -0.33579563275E+01  0.75602407947E+02  0.16617492437E+03  0.12509000000E+03 0.  0.
<mgrwt>
<rscale>  2 0.44179549E+03</rscale>
<asrwt>0</asrwt>
<pdfrwt beam="1">  1       21 0.67985084E-01 0.44179549E+03</pdfrwt>
<pdfrwt beam="2">  1       21 0.15522122E-01 0.44179549E+03</pdfrwt>
<totfact> 0.67477049E+04</totfact>
</mgrwt>
</event>
<event>
 7    0  0.4793433E-002  0.4542944E+03  0.7546771E-02  0.1026449E+00
         21   -1    0    0  502  501  0.00000000000E+00  0.00000000000E+00  0.40055995009E+02  0.40055995009E+02  0.00000000000E+00 0.  1.
         21   -1    0    0  501  502 -0.00000000000E+00 -0.00000000000E+00 -0.12880933535E+04  0.12880933535E+04  0.00000000000E+00 0.  1.
      99926    2    1    2    0    0  0.14210854715E-13 -0.35527136788E-14 -0.12480373585E+04  0.13281493485E+04  0.45429444610E+03 0.  0.
      99925    2    3    3    0    0  0.11046353886E+03 -0.16890863914E+02 -0.74761544427E+03  0.80036426437E+03  0.26299545334E+03 0.  0.
         25    1    4    4    0    0  0.89856435981E+02 -0.27426348937E+02 -0.45990612421E+03  0.48578548237E+03  0.12509000000E+03 0.  0.
         25    1    3    3    0    0 -0.11046353886E+03  0.16890863914E+02 -0.50042191420E+03  0.52778508411E+03  0.12509000000E+03 0.  0.
         25    1    4    4    0    0  0.20607102878E+02  0.10535485024E+02 -0.28770932006E+03  0.31457878200E+03  0.12509000000E+03 0.  0.
<mgrwt>
<rscale>  2 0.45429445E+03</rscale>
<asrwt>0</asrwt>
<pdfrwt beam="1">  1       21 0.58905885E-02 0.45429445E+03</pdfrwt>
<pdfrwt beam="2">  1       21 0.18942546E+00 0.45429445E+03</pdfrwt>
<totfact> 0.28463894E+04</totfact>
</mgrwt>
</event>
<event>
 7    0  0.4793433E-002  0.4579288E+03  0.7546771E-02  0.1025384E+00
         21   -1    0    0  502  501  0.00000000000E+00  0.00000000000E+00  0.52509699327E+03  0.52509699327E+03  0.00000000000E+00 0. -1.
         21   -1    0    0  501  502 -0.00000000000E+00 -0.00000000000E+00 -0.99838138729E+02  0.99838138729E+02  0.00000000000E+00 0. -1.
      99926    2    1    2    0    0  0.00000000000E+00  0.71054273576E-14  0.42525885454E+03  0.62493513200E+03  0.45792884364E+03 0.  0.
      99925    2    3    3    0    0  0.94849508986E+02 -0.57544655812E+02  0.22096601548E+03  0.36094481218E+03  0.26295885738E+03 0.  0.
         25    1    4    4    0    0  0.48827608929E+02 -0.66804357604E+02  0.96502618712E+02  0.17834579083E+03  0.12509000000E+03 0.  0.
         25    1    3    3    0    0 -0.94849508986E+02  0.57544655812E+02  0.20429283906E+03  0.26399031982E+03  0.12509000000E+03 0.  0.
         25    1    4    4    0    0  0.46021900056E+02  0.92597017926E+01  0.12446339677E+03  0.18259902135E+03  0.12509000000E+03 0.  0.
<mgrwt>
<rscale>  2 0.45792884E+03</rscale>
<asrwt>0</asrwt>
<pdfrwt beam="1">  1       21 0.77220144E-01 0.45792884E+03</pdfrwt>
<pdfrwt beam="2">  1       21 0.14682080E-01 0.45792884E+03</pdfrwt>
<totfact> 0.55865977E+04</totfact>
</mgrwt>
</event>
<event>
 7    0  0.4793433E-002  0.4588553E+03  0.7546771E-02  0.1025114E+00
         21   -1    0    0  502  501  0.00000000000E+00  0.00000000000E+00  0.13228319939E+03  0.13228319939E+03  0.00000000000E+00 0.  1.
         21   -1    0    0  501  502 -0.00000000000E+00 -0.00000000000E+00 -0.39791177868E+03  0.39791177868E+03  0.00000000000E+00 0.  1.
      99926    2    1    2    0    0  0.00000000000E+00  0.00000000000E+00 -0.26562857928E+03  0.53019497807E+03  0.45885528507E+03 0.  0.
      99925    2    3    3    0    0 -0.27746009377E+02 -0.30579368886E+02 -0.29293495248E+03  0.39566585500E+03  0.26274634838E+03 0.  0.
         25    1    3    3    0    0  0.27746009377E+02  0.30579368886E+02  0.27306373197E+02  0.13452912307E+03  0.12509000000E+03 0.  0.
         25    1    4    4    0    0  0.17419944060E+02 -0.34055806728E+02 -0.17019496988E+03  0.21465574368E+03  0.12509000000E+03 0.  0.
         25    1    4    4    0    0 -0.45165953437E+02  0.34764378424E+01 -0.12273998260E+03  0.18101011132E+03  0.12509000000E+03 0.  0.
<mgrwt>
<rscale>  2 0.45885529E+03</rscale>
<asrwt>0</asrwt>
<pdfrwt beam="1">  1       21 0.19453412E-01 0.45885529E+03</pdfrwt>
<pdfrwt beam="2">  1       21 0.58516437E-01 0.45885529E+03</pdfrwt>
<totfact> 0.61298592E+04</totfact>
</mgrwt>
</event>
<event>
 7    0  0.4793433E-002  0.4597496E+03  0.7546771E-02  0.1024854E+00
         21   -1    0    0  502  501  0.00000000000E+00  0.00000000000E+00  0.61841190947E+03  0.61841190947E+03  0.00000000000E+00 0.  1.
         21   -1    0    0  501  502 -0.00000000000E+00 -0.00000000000E+00 -0.85448570807E+02  0.85448570807E+02  0.00000000000E+00 0.  1.
      99926    2    1    2    0    0  0.00000000000E+00  0.00000000000E+00  0.53296333866E+03  0.70386048028E+03  0.45974955719E+03 0.  0.
      99925    2    3    3    0    0  0.80569871534E+01  0.10175559749E+03  0.24465970335E+03  0.37342801986E+03  0.26300380018E+03 0.  0.
         25    1    4    4    0    0  0.40071346317E+02  0.44773624557E+02  0.14462871954E+03  0.20043793270E+03  0.12509000000E+03 0.  0.
         25    1    4    4    0    0 -0.32014359164E+02  0.56981972934E+02  0.10003098382E+03  0.17299008716E+03  0.12509000000E+03 0.  0.
         25    1    3    3    0    0 -0.80569871534E+01 -0.10175559749E+03  0.28830363531E+03  0.33043246042E+03  0.12509000000E+03 0.  0.
<mgrwt>
<rscale>  2 0.45974956E+03</rscale>
<asrwt>0</asrwt>
<pdfrwt beam="1">  1       21 0.90942926E-01 0.45974956E+03</pdfrwt>
<pdfrwt beam="2">  1       21 0.12565967E-01 0.45974956E+03</pdfrwt>
<totfact> 0.50769584E+04</totfact>
</mgrwt>
</event>
<event>
 7    0  0.4793433E-002  0.4570688E+03  0.7546771E-02  0.1025635E+00
         21   -1    0    0  502  501  0.00000000000E+00  0.00000000000E+00  0.38949012064E+03  0.38949012064E+03  0.00000000000E+00 0. -1.
         21   -1    0    0  501  502 -0.00000000000E+00 -0.00000000000E+00 -0.13409316590E+03  0.13409316590E+03  0.00000000000E+00 0. -1.
      99926    2    1    2    0    0  0.00000000000E+00  0.00000000000E+00  0.25539695474E+03  0.52358328654E+03  0.45706876229E+03 0.  0.
      99925    2    3    3    0    0  0.58767661018E+01 -0.66223536377E+02  0.26787405732E+03  0.38137470966E+03  0.26319206947E+03 0.  0.
         25    1    4    4    0    0 -0.24989248863E+02 -0.45322538331E+02  0.97892580610E+02  0.16706005051E+03  0.12509000000E+03 0.  0.
         25    1    4    4    0    0  0.30866014965E+02 -0.20900998046E+02  0.16998147671E+03  0.21431465915E+03  0.12509000000E+03 0.  0.
         25    1    3    3    0    0 -0.58767661018E+01  0.66223536377E+02 -0.12477102586E+02  0.14220857688E+03  0.12509000000E+03 0.  0.
<mgrwt>
<rscale>  2 0.45706876E+03</rscale>
<asrwt>0</asrwt>
<pdfrwt beam="1">  1       21 0.57277959E-01 0.45706876E+03</pdfrwt>
<pdfrwt beam="2">  1       21 0.19719583E-01 0.45706876E+03</pdfrwt>
<totfact> 0.62609755E+04</totfact>
</mgrwt>
</event>
<event>
 7    0  0.4793433E-002  0.4554796E+03  0.7546771E-02  0.1026100E+00
         21   -1    0    0  502  501  0.00000000000E+00  0.00000000000E+00  0.75168603155E+03  0.75168603155E+03  0.00000000000E+00 0. -1.
         21   -1    0    0  501  502 -0.00000000000E+00 -0.00000000000E+00 -0.68998779177E+02  0.68998779177E+02  0.00000000000E+00 0. -1.
      99926    2    1    2    0    0  0.00000000000E+00  0.00000000000E+00  0.68268725238E+03  0.82068481073E+03  0.45547960877E+03 0.  0.
      99925    2    3    3    0    0  0.68814155646E+02 -0.89916968408E+02  0.42286732507E+03  0.51088753516E+03  0.26337966843E+03 0.  0.
         25    1    4    4    0    0 -0.78391346992E+01 -0.46202074363E+02  0.20037891600E+03  0.24082213724E+03  0.12509000000E+03 0.  0.
         25    1    4    4    0    0  0.76653290345E+02 -0.43714894045E+02  0.22248840907E+03  0.27006539792E+03  0.12509000000E+03 0.  0.
         25    1    3    3    0    0 -0.68814155646E+02  0.89916968408E+02  0.25981992731E+03  0.30979727557E+03  0.12509000000E+03 0.  0.
<mgrwt>
<rscale>  2 0.45547961E+03</rscale>
<asrwt>0</asrwt>
<pdfrwt beam="1">  1       21 0.11054206E+00 0.45547961E+03</pdfrwt>
<pdfrwt beam="2">  1       21 0.10146880E-01 0.45547961E+03</pdfrwt>
<totfact> 0.46604901E+04</totfact>
</mgrwt>
</event>
<event>
 7    0  0.4793433E-002  0.4523912E+03  0.7546771E-02  0.1027011E+00
         21   -1    0    0  502  501  0.00000000000E+00  0.00000000000E+00  0.18517084855E+04  0.18517084855E+04  0.00000000000E+00 0. -1.
         21   -1    0    0  501  502 -0.00000000000E+00 -0.00000000000E+00 -0.27630940343E+02  0.27630940343E+02  0.00000000000E+00 0. -1.
      99926    2    1    2    0    0  0.00000000000E+00  0.00000000000E+00  0.18240775451E+04  0.18793394258E+04  0.45239118778E+03 0.  0.
      99925    2    3    3    0    0  0.60409593448E+02 -0.57163041036E+02  0.14543770148E+04  0.14802868949E+04  0.26290655688E+03 0.  0.
         25    1    3    3    0    0 -0.60409593448E+02  0.57163041036E+02  0.36970053030E+03  0.39905253094E+03  0.12509000000E+03 0.  0.
         25    1    4    4    0    0 -0.16175496728E+01 -0.16087442561E+02  0.55027686080E+03  0.56454721141E+03  0.12509000000E+03 0.  0.
         25    1    4    4    0    0  0.62027143121E+02 -0.41075598475E+02  0.90410015401E+03  0.91573968346E+03  0.12509000000E+03 0.  0.
<mgrwt>
<rscale>  2 0.45239119E+03</rscale>
<asrwt>0</asrwt>
<pdfrwt beam="1">  1       21 0.27230999E+00 0.45239119E+03</pdfrwt>
<pdfrwt beam="2">  1       21 0.40633748E-02 0.45239119E+03</pdfrwt>
<totfact> 0.16105068E+04</totfact>
</mgrwt>
</event>
<event>
 7    0  0.4793433E-002  0.4516197E+03  0.7546771E-02  0.1027240E+00
         21   -1    0    0  502  501  0.00000000000E+00  0.00000000000E+00  0.35582784107E+03  0.35582784107E+03  0.00000000000E+00 0.  1.
         21   -1    0    0  501  502 -0.00000000000E+00 -0.00000000000E+00 -0.14329985995E+03  0.14329985995E+03  0.00000000000E+00 0.  1.
      99926    2    1    2    0    0 -0.71054273576E-14  0.14210854715E-13  0.21252798113E+03  0.49912770102E+03  0.45161966206E+03 0.  0.
      99925    2    3    3    0    0 -0.33350294570E+02 -0.10340482097E+03  0.15271520483E+03  0.32297471224E+03  0.26303218779E+03 0.  0.
         25    1    4    4    0    0 -0.45849631617E+02 -0.66961730115E+02  0.10999704726E+03  0.18529144752E+03  0.12509000000E+03 0.  0.
         25    1    3    3    0    0  0.33350294570E+02  0.10340482097E+03  0.59812776298E+02  0.17615298878E+03  0.12509000000E+03 0.  0.
         25    1    4    4    0    0  0.12499337047E+02 -0.36443090851E+02  0.42718157574E+02  0.13768326472E+03  0.12509000000E+03 0.  0.
<mgrwt>
<rscale>  2 0.45161966E+03</rscale>
<asrwt>0</asrwt>
<pdfrwt beam="1">  1       21 0.52327624E-01 0.45161966E+03</pdfrwt>
<pdfrwt beam="2">  1       21 0.21073509E-01 0.45161966E+03</pdfrwt>
<totfact> 0.67114868E+04</totfact>
</mgrwt>
</event>
<event>
 7    0  0.4793433E-002  0.4543644E+03  0.7546771E-02  0.1026428E+00
         21   -1    0    0  502  501  0.00000000000E+00  0.00000000000E+00  0.38256761848E+02  0.38256761848E+02  0.00000000000E+00 0.  1.
         21   -1    0    0  501  502 -0.00000000000E+00 -0.00000000000E+00 -0.13490882827E+04  0.13490882827E+04  0.00000000000E+00 0.  1.
      99926    2    1    2    0    0  0.00000000000E+00 -0.35527136788E-14 -0.13108315209E+04  0.13873450446E+04  0.45436438745E+03 0.  0.
      99925    2    3    3    0    0  0.10639635665E+03 -0.31362413625E+02 -0.88398000788E+03  0.92892001478E+03  0.26299801107E+03 0.  0.
         25    1    3    3    0    0 -0.10639635665E+03  0.31362413625E+02 -0.42685151301E+03  0.45842502980E+03  0.12509000000E+03 0.  0.
         25    1    4    4    0    0  0.74113831249E+02 -0.42610263806E+02 -0.39574710683E+03  0.42375910046E+03  0.12509000000E+03 0.  0.
         25    1    4    4    0    0  0.32282525396E+02  0.11247850181E+02 -0.48823290106E+03  0.50516091432E+03  0.12509000000E+03 0.  0.
<mgrwt>
<rscale>  2 0.45436439E+03</rscale>
<asrwt>0</asrwt>
<pdfrwt beam="1">  1       21 0.56259961E-02 0.45436439E+03</pdfrwt>
<pdfrwt beam="2">  1       21 0.19839528E+00 0.45436439E+03</pdfrwt>
<totfact> 0.26803361E+04</totfact>
</mgrwt>
</event>
<event>
 7    0  0.4793433E-002  0.4592199E+03  0.7546771E-02  0.1025008E+00
         21   -1    0    0  502  501  0.00000000000E+00  0.00000000000E+00  0.11503323652E+03  0.11503323652E+03  0.00000000000E+00 0. -1.
         21   -1    0    0  501  502 -0.00000000000E+00 -0.00000000000E+00 -0.45830856754E+03  0.45830856754E+03  0.00000000000E+00 0. -1.
      99926    2    1    2    0    0  0.22204460493E-14  0.35527136788E-14 -0.34327533102E+03  0.57334180406E+03  0.45921985083E+03 0.  0.
      99925    2    3    3    0    0 -0.32286927235E+01 -0.20554735386E+02 -0.35920197182E+03  0.44553692313E+03  0.26276257669E+03 0.  0.
         25    1    3    3    0    0  0.32286927235E+01  0.20554735386E+02  0.15926640798E+02  0.12780488093E+03  0.12509000000E+03 0.  0.
         25    1    4    4    0    0 -0.41701713456E+02 -0.83102984029E+01 -0.18288064558E+03  0.22561235027E+03  0.12509000000E+03 0.  0.
         25    1    4    4    0    0  0.38473020733E+02 -0.12244436983E+02 -0.17632132624E+03  0.21992457286E+03  0.12509000000E+03 0.  0.
<mgrwt>
<rscale>  2 0.45921985E+03</rscale>
<asrwt>0</asrwt>
<pdfrwt beam="1">  1       21 0.16916652E-01 0.45921985E+03</pdfrwt>
<pdfrwt beam="2">  1       21 0.67398319E-01 0.45921985E+03</pdfrwt>
<totfact> 0.58377485E+04</totfact>
</mgrwt>
</event>
<event>
 7    0  0.4793433E-002  0.4441073E+03  0.7546771E-02  0.1029494E+00
         21   -1    0    0  502  501  0.00000000000E+00  0.00000000000E+00  0.34275229673E+03  0.34275229673E+03  0.00000000000E+00 0. -1.
         21   -1    0    0  501  502 -0.00000000000E+00 -0.00000000000E+00 -0.14385847089E+03  0.14385847089E+03  0.00000000000E+00 0. -1.
      99926    2    1    2    0    0  0.00000000000E+00  0.00000000000E+00  0.19889382583E+03  0.48661076762E+03  0.44410729020E+03 0.  0.
      99925    2    3    3    0    0  0.74007560960E+02  0.68651991933E+02  0.14683705308E+03  0.31765032620E+03  0.26296462595E+03 0.  0.
         25    1    4    4    0    0  0.21210314728E+02 -0.52081262981E+01  0.61482353095E+02  0.14108362723E+03  0.12509000000E+03 0.  0.
         25    1    3    3    0    0 -0.74007560960E+02 -0.68651991933E+02  0.52056772753E+02  0.16896044142E+03  0.12509000000E+03 0.  0.
         25    1    4    4    0    0  0.52797246232E+02  0.73860118231E+02  0.85354699985E+02  0.17656669897E+03  0.12509000000E+03 0.  0.
<mgrwt>
<rscale>  2 0.44410729E+03</rscale>
<asrwt>0</asrwt>
<pdfrwt beam="1">  1       21 0.50404750E-01 0.44410729E+03</pdfrwt>
<pdfrwt beam="2">  1       21 0.21155657E-01 0.44410729E+03</pdfrwt>
<totfact> 0.72272242E+04</totfact>
</mgrwt>
</event>
<event>
 7    0  0.4793433E-002  0.4523042E+03  0.7546771E-02  0.1027037E+00
         21   -1    0    0  502  501  0.00000000000E+00  0.00000000000E+00  0.86986298329E+02  0.86986298329E+02  0.00000000000E+00 0. -1.
         21   -1    0    0  501  502 -0.00000000000E+00 -0.00000000000E+00 -0.58796346969E+03  0.58796346969E+03  0.00000000000E+00 0. -1.
      99926    2    1    2    0    0  0.00000000000E+00  0.00000000000E+00 -0.50097717136E+03  0.67494976802E+03  0.45230417102E+03 0.  0.
      99925    2    3    3    0    0 -0.92507097066E+02 -0.58080897045E+02 -0.34184558889E+03  0.44494689358E+03  0.26303683745E+03 0.  0.
         25    1    3    3    0    0  0.92507097066E+02  0.58080897045E+02 -0.15913158247E+03  0.23000287444E+03  0.12509000000E+03 0.  0.
         25    1    4    4    0    0 -0.69467956997E+02 -0.10555516454E+02 -0.13172797316E+03  0.19477418461E+03  0.12509000000E+03 0.  0.
         25    1    4    4    0    0 -0.23039140069E+02 -0.47525380592E+02 -0.21011761573E+03  0.25017270897E+03  0.12509000000E+03 0.  0.
<mgrwt>
<rscale>  2 0.45230417E+03</rscale>
<asrwt>0</asrwt>
<pdfrwt beam="1">  1       21 0.12792102E-01 0.45230417E+03</pdfrwt>
<pdfrwt beam="2">  1       21 0.86465219E-01 0.45230417E+03</pdfrwt>
<totfact> 0.55452871E+04</totfact>
</mgrwt>
</event>
<event>
 7    0  0.4793433E-002  0.4143255E+03  0.7546771E-02  0.1038929E+00
         21   -1    0    0  502  501  0.00000000000E+00  0.00000000000E+00  0.23166366550E+03  0.23166366550E+03  0.00000000000E+00 0. -1.
         21   -1    0    0  501  502 -0.00000000000E+00 -0.00000000000E+00 -0.18525310777E+03  0.18525310777E+03  0.00000000000E+00 0. -1.
      99926    2    1    2    0    0  0.00000000000E+00  0.11102230246E-15  0.46410557729E+02  0.41691677327E+03  0.41432554346E+03 0.  0.
      99925    2    3    3    0    0  0.68190701267E+02 -0.88972856261E+00  0.35603465028E+02  0.27403547740E+03  0.26301534707E+03 0.  0.
         25    1    4    4    0    0  0.53485957540E+02 -0.40474210861E+01 -0.17664286200E+02  0.13724672812E+03  0.12509000000E+03 0.  0.
         25    1    4    4    0    0  0.14704743727E+02  0.31576925235E+01  0.53267751227E+02  0.13678874929E+03  0.12509000000E+03 0.  0.
         25    1    3    3    0    0 -0.68190701267E+02  0.88972856261E+00  0.10807092701E+02  0.14288129587E+03  0.12509000000E+03 0.  0.
<mgrwt>
<rscale>  2 0.41432554E+03</rscale>
<asrwt>0</asrwt>
<pdfrwt beam="1">  1       21 0.34068186E-01 0.41432554E+03</pdfrwt>
<pdfrwt beam="2">  1       21 0.27243104E-01 0.41432554E+03</pdfrwt>
<totfact> 0.10021239E+05</totfact>
</mgrwt>
</event>
<event>
 7    0  0.4793433E-002  0.4628547E+03  0.7546771E-02  0.1023957E+00
         21   -1    0    0  502  501  0.00000000000E+00  0.00000000000E+00  0.11604023651E+03  0.11604023651E+03  0.00000000000E+00 0. -1.
         21   -1    0    0  501  502 -0.00000000000E+00 -0.00000000000E+00 -0.46155203450E+03  0.46155203450E+03  0.00000000000E+00 0. -1.
      99926    2    1    2    0    0  0.00000000000E+00  0.00000000000E+00 -0.34551179799E+03  0.57759227100E+03  0.46285465210E+03 0.  0.
      99925    2    3    3    0    0 -0.97364345773E+02  0.35197277800E+02 -0.29258832588E+03  0.40680858855E+03  0.26299550393E+03 0.  0.
         25    1    4    4    0    0 -0.56138677636E+02  0.47432772834E+02 -0.11369948798E+03  0.18432715680E+03  0.12509000000E+03 0.  0.
         25    1    3    3    0    0  0.97364345773E+02 -0.35197277800E+02 -0.52923472112E+02  0.17078368245E+03  0.12509000000E+03 0.  0.
         25    1    4    4    0    0 -0.41225668137E+02 -0.12235495035E+02 -0.17888883789E+03  0.22248143175E+03  0.12509000000E+03 0.  0.
<mgrwt>
<rscale>  2 0.46285465E+03</rscale>
<asrwt>0</asrwt>
<pdfrwt beam="1">  1       21 0.17064741E-01 0.46285465E+03</pdfrwt>
<pdfrwt beam="2">  1       21 0.67875298E-01 0.46285465E+03</pdfrwt>
<totfact> 0.56488510E+04</totfact>
</mgrwt>
</event>
<event>
 7    0  0.4793433E-002  0.4214712E+03  0.7546771E-02  0.1036589E+00
         21   -1    0    0  502  501  0.00000000000E+00  0.00000000000E+00  0.14073667400E+04  0.14073667400E+04  0.00000000000E+00 0. -1.
         21   -1    0    0  501  502 -0.00000000000E+00 -0.00000000000E+00 -0.31555027648E+02  0.31555027648E+02  0.00000000000E+00 0. -1.
      99926    2    1    2    0    0  0.00000000000E+00  0.71054273576E-14  0.13758117124E+04  0.14389217677E+04  0.42147121559E+03 0.  0.
      99925    2    3    3    0    0 -0.55148948963E+02 -0.53517838227E+02  0.85839867940E+03  0.90108413384E+03  0.26305656781E+03 0.  0.
         25    1    4    4    0    0 -0.29651099637E+02 -0.64562542745E+02  0.50861150722E+03  0.52856473871E+03  0.12509000000E+03 0.  0.
         25    1    4    4    0    0 -0.25497849326E+02  0.11044704518E+02  0.34978717218E+03  0.37251939512E+03  0.12509000000E+03 0.  0.
         25    1    3    3    0    0  0.55148948963E+02  0.53517838227E+02  0.51741303298E+03  0.53783763384E+03  0.12509000000E+03 0.  0.
<mgrwt>
<rscale>  2 0.42147122E+03</rscale>
<asrwt>0</asrwt>
<pdfrwt beam="1">  1       21 0.20696566E+00 0.42147122E+03</pdfrwt>
<pdfrwt beam="2">  1       21 0.46404462E-02 0.42147122E+03</pdfrwt>
<totfact> 0.33143039E+04</totfact>
</mgrwt>
</event>
<event>
 7    0  0.4793433E-002  0.4528452E+03  0.7546771E-02  0.1026877E+00
         21   -1    0    0  502  501  0.00000000000E+00  0.00000000000E+00  0.65803889002E+02  0.65803889002E+02  0.00000000000E+00 0.  1.
         21   -1    0    0  501  502 -0.00000000000E+00 -0.00000000000E+00 -0.77909069008E+03  0.77909069008E+03  0.00000000000E+00 0.  1.
      99926    2    1    2    0    0 -0.14210854715E-13  0.00000000000E+00 -0.71328680108E+03  0.84489457909E+03  0.45284521547E+03 0.  0.
      99925    2    3    3    0    0  0.11047933454E+03 -0.43096889054E+01 -0.47082379991E+03  0.55051375122E+03  0.26299445420E+03 0.  0.
         25    1    4    4    0    0  0.28510934953E+02  0.20941845463E+02 -0.26135800510E+03  0.29190229398E+03  0.12509000000E+03 0.  0.
         25    1    4    4    0    0  0.81968399584E+02 -0.25251534368E+02 -0.20946579482E+03  0.25861145724E+03  0.12509000000E+03 0.  0.
         25    1    3    3    0    0 -0.11047933454E+03  0.43096889054E+01 -0.24246300117E+03  0.29438082786E+03  0.12509000000E+03 0.  0.
<mgrwt>
<rscale>  2 0.45284522E+03</rscale>
<asrwt>0</asrwt>
<pdfrwt beam="1">  1       21 0.96770427E-02 0.45284522E+03</pdfrwt>
<pdfrwt beam="2">  1       21 0.11457216E+00 0.45284522E+03</pdfrwt>
<totfact> 0.46448847E+04</totfact>
</mgrwt>
</event>
<event>
 7    0  0.4793433E-002  0.4739549E+03  0.7546771E-02  0.1020810E+00
         21   -1    0    0  502  501  0.00000000000E+00  0.00000000000E+00  0.15008439412E+03  0.15008439412E+03  0.00000000000E+00 0.  1.
         21   -1    0    0  501  502 -0.00000000000E+00 -0.00000000000E+00 -0.37417823978E+03  0.37417823978E+03  0.00000000000E+00 0.  1.
      99926    2    1    2    0    0  0.00000000000E+00  0.00000000000E+00 -0.22409384566E+03  0.52426263391E+03  0.47395491098E+03 0.  0.
      99925    2    3    3    0    0  0.19744168186E+02  0.55404628613E+02 -0.10379072979E+02  0.26974148113E+03  0.26304607284E+03 0.  0.
         25    1    3    3    0    0 -0.19744168186E+02 -0.55404628613E+02 -0.21371477268E+03  0.25452115278E+03  0.12509000000E+03 0.  0.
         25    1    4    4    0    0  0.97001689441E+01  0.30777595171E+02 -0.45761291814E+02  0.13705093057E+03  0.12509000000E+03 0.  0.
         25    1    4    4    0    0  0.10043999242E+02  0.24627033442E+02  0.35382218835E+02  0.13269055056E+03  0.12509000000E+03 0.  0.
<mgrwt>
<rscale>  2 0.47395491E+03</rscale>
<asrwt>0</asrwt>
<pdfrwt beam="1">  1       21 0.22071234E-01 0.47395491E+03</pdfrwt>
<pdfrwt beam="2">  1       21 0.55026212E-01 0.47395491E+03</pdfrwt>
<totfact> 0.54868426E+04</totfact>
</mgrwt>
</event>
<event>
 7    0  0.4793433E-002  0.4587533E+03  0.7546771E-02  0.1025143E+00
         21   -1    0    0  502  501  0.00000000000E+00  0.00000000000E+00  0.21372492607E+04  0.21372492607E+04  0.00000000000E+00 0.  1.
         21   -1    0    0  501  502 -0.00000000000E+00 -0.00000000000E+00 -0.24617460448E+02  0.24617460448E+02  0.00000000000E+00 0.  1.
      99926    2    1    2    0    0  0.00000000000E+00 -0.71054273576E-14  0.21126318003E+04  0.21618667212E+04  0.45875330688E+03 0.  0.
      99925    2    3    3    0    0  0.35573043890E+02  0.45193689881E+02  0.84706834530E+03  0.88883636893E+03  0.26305398318E+03 0.  0.
         25    1    4    4    0    0 -0.87053209487E+01  0.19846026889E+02  0.51324904962E+03  0.52871707220E+03  0.12509000000E+03 0.  0.
         25    1    4    4    0    0  0.44278364839E+02  0.25347662993E+02  0.33381929568E+03  0.36011929674E+03  0.12509000000E+03 0.  0.
         25    1    3    3    0    0 -0.35573043890E+02 -0.45193689881E+02  0.12655634550E+04  0.12730303522E+04  0.12509000000E+03 0.  0.
<mgrwt>
<rscale>  2 0.45875331E+03</rscale>
<asrwt>0</asrwt>
<pdfrwt beam="1">  1       21 0.31430124E+00 0.45875331E+03</pdfrwt>
<pdfrwt beam="2">  1       21 0.36202162E-02 0.45875331E+03</pdfrwt>
<totfact> 0.10920745E+04</totfact>
</mgrwt>
</event>
<event>
 7    0  0.4793433E-002  0.4493623E+03  0.7546771E-02  0.1027912E+00
         21   -1    0    0  502  501  0.00000000000E+00  0.00000000000E+00  0.25021042964E+04  0.25021042964E+04  0.00000000000E+00 0. -1.
         21   -1    0    0  501  502 -0.00000000000E+00 -0.00000000000E+00 -0.20175667621E+02  0.20175667621E+02  0.00000000000E+00 0. -1.
      99926    2    1    2    0    0  0.35527136788E-14 -0.14210854715E-13  0.24819286288E+04  0.25222799640E+04  0.44936232435E+03 0.  0.
      99925    2    3    3    0    0 -0.24682701735E+02  0.72244839421E+02  0.19969578730E+04  0.20156512098E+04  0.26302186270E+03 0.  0.
         25    1    3    3    0    0  0.24682701735E+02 -0.72244839421E+02  0.48497075577E+03  0.50662875425E+03  0.12509000000E+03 0.  0.
         25    1    4    4    0    0  0.20942871576E+01 -0.33226092892E+01  0.94632519299E+03  0.95456498195E+03  0.12509000000E+03 0.  0.
         25    1    4    4    0    0 -0.26776988893E+02  0.75567448711E+02  0.10506326800E+04  0.10610862278E+04  0.12509000000E+03 0.  0.
<mgrwt>
<rscale>  2 0.44936232E+03</rscale>
<asrwt>0</asrwt>
<pdfrwt beam="1">  1       21 0.36795630E+00 0.44936232E+03</pdfrwt>
<pdfrwt beam="2">  1       21 0.29670117E-02 0.44936232E+03</pdfrwt>
<totfact> 0.72177351E+03</totfact>
</mgrwt>
</event>
<event>
 7    0  0.4793433E-002  0.4535632E+03  0.7546771E-02  0.1026665E+00
         21   -1    0    0  502  501  0.00000000000E+00  0.00000000000E+00  0.71595895404E+03  0.71595895404E+03  0.00000000000E+00 0.  1.
         21   -1    0    0  501  502 -0.00000000000E+00 -0.00000000000E+00 -0.71833563859E+02  0.71833563859E+02  0.00000000000E+00 0.  1.
      99926    2    1    2    0    0  0.00000000000E+00  0.00000000000E+00  0.64412539018E+03  0.78779251790E+03  0.45356315214E+03 0.  0.
      99925    2    3    3    0    0  0.93474157689E+02 -0.61735558233E+02  0.39507677078E+03  0.48742371088E+03  0.26257860120E+03 0.  0.
         25    1    4    4    0    0  0.25938975019E+02 -0.43359725818E+02  0.13738520333E+03  0.19254895077E+03  0.12509000000E+03 0.  0.
         25    1    3    3    0    0 -0.93474157689E+02  0.61735558233E+02  0.24904861940E+03  0.30036880702E+03  0.12509000000E+03 0.  0.
         25    1    4    4    0    0  0.67535182670E+02 -0.18375832415E+02  0.25769156745E+03  0.29487476011E+03  0.12509000000E+03 0.  0.
<mgrwt>
<rscale>  2 0.45356315E+03</rscale>
<asrwt>0</asrwt>
<pdfrwt beam="1">  1       21 0.10528808E+00 0.45356315E+03</pdfrwt>
<pdfrwt beam="2">  1       21 0.10563760E-01 0.45356315E+03</pdfrwt>
<totfact> 0.48910211E+04</totfact>
</mgrwt>
</event>
<event>
 7    0  0.4793433E-002  0.4598957E+03  0.7546771E-02  0.1024811E+00
         21   -1    0    0  502  501  0.00000000000E+00  0.00000000000E+00  0.19487142125E+03  0.19487142125E+03  0.00000000000E+00 0. -1.
         21   -1    0    0  501  502 -0.00000000000E+00 -0.00000000000E+00 -0.27133800751E+03  0.27133800751E+03  0.00000000000E+00 0. -1.
      99926    2    1    2    0    0  0.00000000000E+00  0.00000000000E+00 -0.76466586258E+02  0.46620942875E+03  0.45989574106E+03 0.  0.
      99925    2    3    3    0    0 -0.17015598542E+02 -0.20062524199E+02 -0.16412240749E+03  0.31121560124E+03  0.26311014870E+03 0.  0.
         25    1    4    4    0    0 -0.20210712844E+02  0.45413428042E+01 -0.12444193028E+03  0.17765809528E+03  0.12509000000E+03 0.  0.
         25    1    4    4    0    0  0.31951143018E+01 -0.24603867003E+02 -0.39680477205E+02  0.13355750596E+03  0.12509000000E+03 0.  0.
         25    1    3    3    0    0  0.17015598542E+02  0.20062524199E+02  0.87655821227E+02  0.15499382751E+03  0.12509000000E+03 0.  0.
<mgrwt>
<rscale>  2 0.45989574E+03</rscale>
<asrwt>0</asrwt>
<pdfrwt beam="1">  1       21 0.28657562E-01 0.45989574E+03</pdfrwt>
<pdfrwt beam="2">  1       21 0.39902648E-01 0.45989574E+03</pdfrwt>
<totfact> 0.65147830E+04</totfact>
</mgrwt>
</event>
<event>
 7    0  0.4793433E-002  0.4555188E+03  0.7546771E-02  0.1026089E+00
         21   -1    0    0  502  501  0.00000000000E+00  0.00000000000E+00  0.25710402554E+04  0.25710402554E+04  0.00000000000E+00 0.  1.
         21   -1    0    0  501  502 -0.00000000000E+00 -0.00000000000E+00 -0.20176399495E+02  0.20176399495E+02  0.00000000000E+00 0.  1.
      99926    2    1    2    0    0  0.00000000000E+00  0.00000000000E+00  0.25508638559E+04  0.25912166549E+04  0.45551876058E+03 0.  0.
      99925    2    3    3    0    0  0.10342587714E+03 -0.42047538299E+02  0.14829706062E+04  0.15102409806E+04  0.26298496745E+03 0.  0.
         25    1    4    4    0    0  0.23814565912E+02 -0.50138314252E+02  0.74890531532E+03  0.76130655030E+03  0.12509000000E+03 0.  0.
         25    1    4    4    0    0  0.79611311231E+02  0.80907759526E+01  0.73406529091E+03  0.74893443034E+03  0.12509000000E+03 0.  0.
         25    1    3    3    0    0 -0.10342587714E+03  0.42047538299E+02  0.10678932497E+04  0.10809756743E+04  0.12509000000E+03 0.  0.
<mgrwt>
<rscale>  2 0.45551876E+03</rscale>
<asrwt>0</asrwt>
<pdfrwt beam="1">  1       21 0.37809393E+00 0.45551876E+03</pdfrwt>
<pdfrwt beam="2">  1       21 0.29671193E-02 0.45551876E+03</pdfrwt>
<totfact> 0.62177903E+03</totfact>
</mgrwt>
</event>
<event>
 7    0  0.4793433E-002  0.4529104E+03  0.7546771E-02  0.1026858E+00
         21   -1    0    0  502  501  0.00000000000E+00  0.00000000000E+00  0.25583726586E+04  0.25583726586E+04  0.00000000000E+00 0. -1.
         21   -1    0    0  501  502 -0.00000000000E+00 -0.00000000000E+00 -0.20044757365E+02  0.20044757365E+02  0.00000000000E+00 0. -1.
      99926    2    1    2    0    0  0.00000000000E+00  0.00000000000E+00  0.25383279013E+04  0.25784174160E+04  0.45291040700E+03 0.  0.
      99925    2    3    3    0    0  0.98963912451E+02 -0.50323912310E+02  0.15887430769E+04  0.16142155705E+04  0.26317483065E+03 0.  0.
         25    1    3    3    0    0 -0.98963912451E+02  0.50323912310E+02  0.94958482438E+03  0.96420184552E+03  0.12509000000E+03 0.  0.
         25    1    4    4    0    0  0.23095916557E+02 -0.37322930959E+02  0.58849896856E+03  0.60324536188E+03  0.12509000000E+03 0.  0.
         25    1    4    4    0    0  0.75867995894E+02 -0.13000981351E+02  0.10002441083E+04  0.10109702086E+04  0.12509000000E+03 0.  0.
<mgrwt>
<rscale>  2 0.45291041E+03</rscale>
<asrwt>0</asrwt>
<pdfrwt beam="1">  1       21 0.37623105E+00 0.45291041E+03</pdfrwt>
<pdfrwt beam="2">  1       21 0.29477602E-02 0.45291041E+03</pdfrwt>
<totfact> 0.64668527E+03</totfact>
</mgrwt>
</event>
<event>
 7    0  0.4793433E-002  0.4562447E+03  0.7546771E-02  0.1025876E+00
         21   -1    0    0  502  501  0.00000000000E+00  0.00000000000E+00  0.16631038048E+03  0.16631038048E+03  0.00000000000E+00 0. -1.
         21   -1    0    0  501  502 -0.00000000000E+00 -0.00000000000E+00 -0.31290769666E+03  0.31290769666E+03  0.00000000000E+00 0. -1.
      99926    2    1    2    0    0  0.17763568394E-14  0.00000000000E+00 -0.14659731618E+03  0.47921807713E+03  0.45624466281E+03 0.  0.
      99925    2    3    3    0    0  0.50394560126E+01  0.45918910161E+02 -0.20192508134E+03  0.33484837074E+03  0.26308886423E+03 0.  0.
         25    1    4    4    0    0 -0.14330092494E+02  0.23173513040E+02 -0.14719254998E+03  0.19507823591E+03  0.12509000000E+03 0.  0.
         25    1    4    4    0    0  0.19369548507E+02  0.22745397121E+02 -0.54732531366E+02  0.13977013483E+03  0.12509000000E+03 0.  0.
         25    1    3    3    0    0 -0.50394560126E+01 -0.45918910161E+02  0.55327765163E+02  0.14436970640E+03  0.12509000000E+03 0.  0.
<mgrwt>
<rscale>  2 0.45624466E+03</rscale>
<asrwt>0</asrwt>
<pdfrwt beam="1">  1       21 0.24457409E-01 0.45624466E+03</pdfrwt>
<pdfrwt beam="2">  1       21 0.46015838E-01 0.45624466E+03</pdfrwt>
<totfact> 0.66101626E+04</totfact>
</mgrwt>
</event>
<event>
 7    0  0.4793433E-002  0.4695332E+03  0.7546771E-02  0.1022052E+00
         21   -1    0    0  502  501  0.00000000000E+00  0.00000000000E+00  0.83393524490E+02  0.83393524490E+02  0.00000000000E+00 0.  1.
         21   -1    0    0  501  502 -0.00000000000E+00 -0.00000000000E+00 -0.66090696573E+03  0.66090696573E+03  0.00000000000E+00 0.  1.
      99926    2    1    2    0    0  0.00000000000E+00  0.00000000000E+00 -0.57751344124E+03  0.74430049022E+03  0.46953322026E+03 0.  0.
      99925    2    3    3    0    0 -0.18455345171E+02 -0.10018275944E+02 -0.55632128509E+03  0.61570196301E+03  0.26297256396E+03 0.  0.
         25    1    3    3    0    0  0.18455345171E+02  0.10018275944E+02 -0.21192156154E+02  0.12859852721E+03  0.12509000000E+03 0.  0.
         25    1    4    4    0    0 -0.14050604915E+02 -0.59157080882E+00 -0.37182680700E+03  0.39255630419E+03  0.12509000000E+03 0.  0.
         25    1    4    4    0    0 -0.44047402561E+01 -0.94267051347E+01 -0.18449447809E+03  0.22314565882E+03  0.12509000000E+03 0.  0.
<mgrwt>
<rscale>  2 0.46953322E+03</rscale>
<asrwt>0</asrwt>
<pdfrwt beam="1">  1       21 0.12263754E-01 0.46953322E+03</pdfrwt>
<pdfrwt beam="2">  1       21 0.97192197E-01 0.46953322E+03</pdfrwt>
<totfact> 0.45176228E+04</totfact>
</mgrwt>
</event>
<event>
 7    0  0.4793433E-002  0.4528416E+03  0.7546771E-02  0.1026878E+00
         21   -1    0    0  502  501  0.00000000000E+00  0.00000000000E+00  0.42292262173E+03  0.42292262173E+03  0.00000000000E+00 0. -1.
         21   -1    0    0  501  502 -0.00000000000E+00 -0.00000000000E+00 -0.12121930432E+03  0.12121930432E+03  0.00000000000E+00 0. -1.
      99926    2    1    2    0    0  0.17763568394E-14 -0.14210854715E-13  0.30170331741E+03  0.54414192605E+03  0.45284163231E+03 0.  0.
      99925    2    3    3    0    0 -0.12947929708E+02 -0.10889498779E+03  0.21183917268E+03  0.35506828998E+03  0.26300549085E+03 0.  0.
         25    1    4    4    0    0 -0.36256360437E+02 -0.40757563059E+02  0.72869757115E+02  0.15470362704E+03  0.12509000000E+03 0.  0.
         25    1    3    3    0    0  0.12947929708E+02  0.10889498779E+03  0.89864144727E+02  0.18907363607E+03  0.12509000000E+03 0.  0.
         25    1    4    4    0    0  0.23308430728E+02 -0.68137424731E+02  0.13896941556E+03  0.20036466294E+03  0.12509000000E+03 0.  0.
<mgrwt>
<rscale>  2 0.45284163E+03</rscale>
<asrwt>0</asrwt>
<pdfrwt beam="1">  1       21 0.62194503E-01 0.45284163E+03</pdfrwt>
<pdfrwt beam="2">  1       21 0.17826368E-01 0.45284163E+03</pdfrwt>
<totfact> 0.63330005E+04</totfact>
</mgrwt>
</event>
<event>
 7    0  0.4793433E-002  0.4775728E+03  0.7546771E-02  0.1019804E+00
         21   -1    0    0  502  501  0.00000000000E+00  0.00000000000E+00  0.36338080114E+03  0.36338080114E+03  0.00000000000E+00 0. -1.
         21   -1    0    0  501  502 -0.00000000000E+00 -0.00000000000E+00 -0.15691238600E+03  0.15691238600E+03  0.00000000000E+00 0. -1.
      99926    2    1    2    0    0 -0.17763568394E-14  0.00000000000E+00  0.20646841514E+03  0.52029318714E+03  0.47757281554E+03 0.  0.
      99925    2    3    3    0    0 -0.69022443392E+01  0.30042429485E+02  0.26854203971E+03  0.37728678339E+03  0.26321151435E+03 0.  0.
         25    1    3    3    0    0  0.69022443392E+01 -0.30042429485E+02 -0.62073624572E+02  0.14300640375E+03  0.12509000000E+03 0.  0.
         25    1    4    4    0    0 -0.24004897163E+02  0.12828423872E+02  0.84320353442E+02  0.15329133587E+03  0.12509000000E+03 0.  0.
         25    1    4    4    0    0  0.17102652824E+02  0.17214005614E+02  0.18422168626E+03  0.22399544753E+03  0.12509000000E+03 0.  0.
<mgrwt>
<rscale>  2 0.47757282E+03</rscale>
<asrwt>0</asrwt>
<pdfrwt beam="1">  1       21 0.53438353E-01 0.47757282E+03</pdfrwt>
<pdfrwt beam="2">  1       21 0.23075351E-01 0.47757282E+03</pdfrwt>
<totfact> 0.53601311E+04</totfact>
</mgrwt>
</event>
<event>
 7    0  0.4793433E-002  0.4576953E+03  0.7546771E-02  0.1025452E+00
         21   -1    0    0  502  501  0.00000000000E+00  0.00000000000E+00  0.43687557623E+03  0.43687557623E+03  0.00000000000E+00 0. -1.
         21   -1    0    0  501  502 -0.00000000000E+00 -0.00000000000E+00 -0.11987678839E+03  0.11987678839E+03  0.00000000000E+00 0. -1.
      99926    2    1    2    0    0  0.00000000000E+00 -0.35527136788E-14  0.31699878783E+03  0.55675236462E+03  0.45769527420E+03 0.  0.
      99925    2    3    3    0    0  0.46612079178E+02  0.28153043905E+02  0.74792623868E+02  0.27876564952E+03  0.26296591217E+03 0.  0.
         25    1    4    4    0    0 -0.73696326499E+00 -0.18647589311E+02  0.28001401661E+02  0.12953710780E+03  0.12509000000E+03 0.  0.
         25    1    4    4    0    0  0.47349042443E+02  0.46800633215E+02  0.46791222207E+02  0.14922854172E+03  0.12509000000E+03 0.  0.
         25    1    3    3    0    0 -0.46612079178E+02 -0.28153043905E+02  0.24220616397E+03  0.27798671510E+03  0.12509000000E+03 0.  0.
<mgrwt>
<rscale>  2 0.45769527E+03</rscale>
<asrwt>0</asrwt>
<pdfrwt beam="1">  1       21 0.64246408E-01 0.45769527E+03</pdfrwt>
<pdfrwt beam="2">  1       21 0.17628940E-01 0.45769527E+03</pdfrwt>
<totfact> 0.60130164E+04</totfact>
</mgrwt>
</event>
<event>
 7    0  0.4793433E-002  0.4248668E+03  0.7546771E-02  0.1035494E+00
         21   -1    0    0  502  501  0.00000000000E+00  0.00000000000E+00  0.19196992452E+03  0.19196992452E+03  0.00000000000E+00 0.  1.
         21   -1    0    0  501  502 -0.00000000000E+00 -0.00000000000E+00 -0.23507823983E+03  0.23507823983E+03  0.00000000000E+00 0.  1.
      99926    2    1    2    0    0 -0.35527136788E-14  0.00000000000E+00 -0.43108315314E+02  0.42704816436E+03  0.42486681187E+03 0.  0.
      99925    2    3    3    0    0 -0.25307851722E+02 -0.59516348229E+02  0.22102083413E+02  0.27186251016E+03  0.26313122064E+03 0.  0.
         25    1    3    3    0    0  0.25307851722E+02  0.59516348229E+02 -0.65210398727E+02  0.15518565419E+03  0.12509000000E+03 0.  0.
         25    1    4    4    0    0  0.18790408853E+02 -0.36339255521E+02  0.36155870539E+02  0.13648580890E+03  0.12509000000E+03 0.  0.
         25    1    4    4    0    0 -0.44098260575E+02 -0.23177092708E+02 -0.14053787125E+02  0.13537670126E+03  0.12509000000E+03 0.  0.
<mgrwt>
<rscale>  2 0.42486681E+03</rscale>
<asrwt>0</asrwt>
<pdfrwt beam="1">  1       21 0.28230871E-01 0.42486681E+03</pdfrwt>
<pdfrwt beam="2">  1       21 0.34570329E-01 0.42486681E+03</pdfrwt>
<totfact> 0.90528240E+04</totfact>
</mgrwt>
</event>
<event>
 7    0  0.4793433E-002  0.4506974E+03  0.7546771E-02  0.1027514E+00
         21   -1    0    0  502  501  0.00000000000E+00  0.00000000000E+00  0.35981005116E+02  0.35981005116E+02  0.00000000000E+00 0.  1.
         21   -1    0    0  501  502 -0.00000000000E+00 -0.00000000000E+00 -0.14113569767E+04  0.14113569767E+04  0.00000000000E+00 0.  1.
      99926    2    1    2    0    0  0.00000000000E+00  0.35527136788E-14 -0.13753759716E+04  0.14473379818E+04  0.45069742666E+03 0.  0.
      99925    2    3    3    0    0 -0.54765152360E+02 -0.28784175801E+02 -0.11574043151E+04  0.11885197023E+04  0.26299540566E+03 0.  0.
         25    1    3    3    0    0  0.54765152360E+02  0.28784175801E+02 -0.21797165643E+03  0.25881827949E+03  0.12509000000E+03 0.  0.
         25    1    4    4    0    0 -0.32061653648E+01 -0.33579715756E+01 -0.69001992754E+03  0.70128208588E+03  0.12509000000E+03 0.  0.
         25    1    4    4    0    0 -0.51558986995E+02 -0.25426204226E+02 -0.46738438761E+03  0.48723761645E+03  0.12509000000E+03 0.  0.
<mgrwt>
<rscale>  2 0.45069743E+03</rscale>
<asrwt>0</asrwt>
<pdfrwt beam="1">  1       21 0.52913249E-02 0.45069743E+03</pdfrwt>
<pdfrwt beam="2">  1       21 0.20755247E+00 0.45069743E+03</pdfrwt>
<totfact> 0.25954235E+04</totfact>
</mgrwt>
</event>
<event>
 7    0  0.4793433E-002  0.4542706E+03  0.7546771E-02  0.1026456E+00
         21   -1    0    0  502  501  0.00000000000E+00  0.00000000000E+00  0.65158385746E+03  0.65158385746E+03  0.00000000000E+00 0.  1.
         21   -1    0    0  501  502 -0.00000000000E+00 -0.00000000000E+00 -0.79176980152E+02  0.79176980152E+02  0.00000000000E+00 0.  1.
      99926    2    1    2    0    0  0.00000000000E+00  0.00000000000E+00  0.57240687730E+03  0.73076083761E+03  0.45427058962E+03 0.  0.
      99925    2    3    3    0    0  0.10455774684E+02 -0.18342123760E+02  0.18208323426E+03  0.32033933336E+03  0.26271130081E+03 0.  0.
         25    1    3    3    0    0 -0.10455774684E+02  0.18342123760E+02  0.39032364305E+03  0.41042150425E+03  0.12509000000E+03 0.  0.
         25    1    4    4    0    0  0.18412876461E+02 -0.15553880754E+02  0.46343664046E+02  0.13555884524E+03  0.12509000000E+03 0.  0.
         25    1    4    4    0    0 -0.79571017766E+01 -0.27882430060E+01  0.13573957021E+03  0.18478048812E+03  0.12509000000E+03 0.  0.
<mgrwt>
<rscale>  2 0.45427059E+03</rscale>
<asrwt>0</asrwt>
<pdfrwt beam="1">  1       21 0.95821153E-01 0.45427059E+03</pdfrwt>
<pdfrwt beam="2">  1       21 0.11643674E-01 0.45427059E+03</pdfrwt>
<totfact> 0.51559586E+04</totfact>
</mgrwt>
</event>
<event>
 7    0  0.4793433E-002  0.4576436E+03  0.7546771E-02  0.1025467E+00
         21   -1    0    0  502  501  0.00000000000E+00  0.00000000000E+00  0.22396118686E+03  0.22396118686E+03  0.00000000000E+00 0. -1.
         21   -1    0    0  501  502 -0.00000000000E+00 -0.00000000000E+00 -0.23378793285E+03  0.23378793285E+03  0.00000000000E+00 0. -1.
      99926    2    1    2    0    0  0.00000000000E+00  0.00000000000E+00 -0.98267459894E+01  0.45774911972E+03  0.45764362955E+03 0.  0.
      99925    2    3    3    0    0 -0.67775215360E+02 -0.73387115592E+02 -0.64198798433E+02  0.28868411228E+03  0.26313092257E+03 0.  0.
         25    1    4    4    0    0 -0.33584968944E+02 -0.55607162903E+02  0.41665872447E+01  0.14101409594E+03  0.12509000000E+03 0.  0.
         25    1    3    3    0    0  0.67775215360E+02  0.73387115592E+02  0.54372052444E+02  0.16906500743E+03  0.12509000000E+03 0.  0.
         25    1    4    4    0    0 -0.34190246416E+02 -0.17779952688E+02 -0.68365385678E+02  0.14767001634E+03  0.12509000000E+03 0.  0.
<mgrwt>
<rscale>  2 0.45764363E+03</rscale>
<asrwt>0</asrwt>
<pdfrwt beam="1">  1       21 0.32935469E-01 0.45764363E+03</pdfrwt>
<pdfrwt beam="2">  1       21 0.34380578E-01 0.45764363E+03</pdfrwt>
<totfact> 0.66922075E+04</totfact>
</mgrwt>
</event>
<event>
 7    0  0.4793433E-002  0.4736875E+03  0.7546771E-02  0.1020885E+00
         21   -1    0    0  502  501  0.00000000000E+00  0.00000000000E+00  0.84052344446E+03  0.84052344446E+03  0.00000000000E+00 0. -1.
         21   -1    0    0  501  502 -0.00000000000E+00 -0.00000000000E+00 -0.66738141787E+02  0.66738141787E+02  0.00000000000E+00 0. -1.
      99926    2    1    2    0    0  0.17763568394E-14  0.00000000000E+00  0.77378530267E+03  0.90726158625E+03  0.47368754601E+03 0.  0.
      99925    2    3    3    0    0  0.54310389758E+01 -0.12999868200E+03  0.45834920348E+03  0.54383814963E+03  0.26219608533E+03 0.  0.
         25    1    3    3    0    0 -0.54310389758E+01  0.12999868200E+03  0.31543609920E+03  0.36342343662E+03  0.12509000000E+03 0.  0.
         25    1    4    4    0    0  0.25202945513E+02 -0.39669761767E+02  0.17028364843E+03  0.21645532445E+03  0.12509000000E+03 0.  0.
         25    1    4    4    0    0 -0.19771906537E+02 -0.90328920230E+02  0.28806555505E+03  0.32738282518E+03  0.12509000000E+03 0.  0.
<mgrwt>
<rscale>  2 0.47368755E+03</rscale>
<asrwt>0</asrwt>
<pdfrwt beam="1">  1       21 0.12360638E+00 0.47368755E+03</pdfrwt>
<pdfrwt beam="2">  1       21 0.98144331E-02 0.47368755E+03</pdfrwt>
<totfact> 0.37176366E+04</totfact>
</mgrwt>
</event>
