<event>
 6    0  0.9325672E-004  0.6060170E+03  0.7546771E-02  0.9893001E-01
         21   -1    0    0  502  501  0.00000000000E+00  0.00000000000E+00  0.51061832479E+03  0.51061832479E+03  0.00000000000E+00 0. -1.
         21   -1    0    0  501  502 -0.00000000000E+00 -0.00000000000E+00 -0.17980975970E+03  0.17980975970E+03  0.00000000000E+00 0. -1.
      99926    2    1    2    0    0  0.47779653120E+02  0.16831603999E+02  0.21674911713E+03  0.51372702643E+03  0.46300008614E+03 0.  0.
         25    1    3    3    0    0  0.10425131619E+03  0.18401997821E+03  0.14756286193E+03  0.28662518318E+03  0.12509000000E+03 0.  0.
         25    1    3    3    0    0 -0.56471663074E+02 -0.16718837422E+03  0.69186255196E+02  0.22710184326E+03  0.12509000000E+03 0.  0.
         25    1    1    2    0    0 -0.47779653120E+02 -0.16831603999E+02  0.11405944797E+03  0.17670105805E+03  0.12509000000E+03 0.  0.
<mgrwt>
<rscale>  2 0.60601702E+03</rscale>
<asrwt>0</asrwt>
<pdfrwt beam="1">  1       21 0.75090930E-01 0.60601702E+03</pdfrwt>
<pdfrwt beam="2">  1       21 0.26442612E-01 0.60601702E+03</pdfrwt>
<totfact> 0.18811855E+04</totfact>
</mgrwt>
</event>
<event>
 6    0  0.9325672E-004  0.6260857E+03  0.7546771E-02  0.9852717E-01
         21   -1    0    0  502  501  0.00000000000E+00  0.00000000000E+00  0.61433694167E+03  0.61433694167E+03  0.00000000000E+00 0. -1.
         21   -1    0    0  501  502 -0.00000000000E+00 -0.00000000000E+00 -0.15951481150E+03  0.15951481150E+03  0.00000000000E+00 0. -1.
      99926    2    1    2    0    0  0.91196414085E+02 -0.14851490369E+02  0.17381515074E+03  0.45268235347E+03  0.40764231111E+03 0.  0.
         25    1    3    3    0    0 -0.73820731801E+02 -0.11469390389E+03  0.10468968825E+03  0.21263026821E+03  0.12509000000E+03 0.  0.
         25    1    3    3    0    0  0.16501714589E+03  0.99842413520E+02  0.69125462484E+02  0.24005208526E+03  0.12509000000E+03 0.  0.
         25    1    1    2    0    0 -0.91196414085E+02  0.14851490369E+02  0.28100697944E+03  0.32116939969E+03  0.12509000000E+03 0.  0.
<mgrwt>
<rscale>  2 0.62608575E+03</rscale>
<asrwt>0</asrwt>
<pdfrwt beam="1">  1       21 0.90343667E-01 0.62608575E+03</pdfrwt>
<pdfrwt beam="2">  1       21 0.23458061E-01 0.62608575E+03</pdfrwt>
<totfact> 0.15361517E+04</totfact>
</mgrwt>
</event>
<event>
 6    0  0.9325672E-004  0.6374818E+03  0.7546771E-02  0.9830556E-01
         21   -1    0    0  502  501  0.00000000000E+00  0.00000000000E+00  0.80087625575E+03  0.80087625575E+03  0.00000000000E+00 0.  1.
         21   -1    0    0  501  502 -0.00000000000E+00 -0.00000000000E+00 -0.12685574916E+03  0.12685574916E+03  0.00000000000E+00 0.  1.
      99926    2    1    2    0    0 -0.43903309031E+02  0.57229170781E+02  0.61992365209E+03  0.77353519463E+03  0.45699965468E+03 0.  0.
         25    1    3    3    0    0  0.12995633642E+03 -0.28168260469E+02  0.45437579987E+03  0.48968048346E+03  0.12509000000E+03 0.  0.
         25    1    1    2    0    0  0.43903309031E+02 -0.57229170781E+02  0.54096854492E+02  0.15419681027E+03  0.12509000000E+03 0.  0.
         25    1    3    3    0    0 -0.17385964545E+03  0.85397431250E+02  0.16554785222E+03  0.28385471117E+03  0.12509000000E+03 0.  0.
<mgrwt>
<rscale>  2 0.63748179E+03</rscale>
<asrwt>0</asrwt>
<pdfrwt beam="1">  1       21 0.11777592E+00 0.63748179E+03</pdfrwt>
<pdfrwt beam="2">  1       21 0.18655258E-01 0.63748179E+03</pdfrwt>
<totfact> 0.12382814E+04</totfact>
</mgrwt>
</event>
<event>
 6    0  0.9325672E-004  0.6224538E+03  0.7546771E-02  0.9859886E-01
         21   -1    0    0  502  501  0.00000000000E+00  0.00000000000E+00  0.51214105259E+03  0.51214105259E+03  0.00000000000E+00 0. -1.
         21   -1    0    0  501  502 -0.00000000000E+00 -0.00000000000E+00 -0.18913186981E+03  0.18913186981E+03  0.00000000000E+00 0. -1.
      99926    2    1    2    0    0  0.39370604851E+02  0.29014204605E+02  0.13605091557E+03  0.47107133603E+03  0.44833746598E+03 0.  0.
         25    1    1    2    0    0 -0.39370604851E+02 -0.29014204605E+02  0.18695826720E+03  0.23020158637E+03  0.12509000000E+03 0.  0.
         25    1    3    3    0    0 -0.10533930255E+03 -0.97384081288E+02 -0.23453144820E+02  0.19177483165E+03  0.12509000000E+03 0.  0.
         25    1    3    3    0    0  0.14470990740E+03  0.12639828589E+03  0.15950406039E+03  0.27929650438E+03  0.12509000000E+03 0.  0.
<mgrwt>
<rscale>  2 0.62245384E+03</rscale>
<asrwt>0</asrwt>
<pdfrwt beam="1">  1       21 0.75314860E-01 0.62245384E+03</pdfrwt>
<pdfrwt beam="2">  1       21 0.27813510E-01 0.62245384E+03</pdfrwt>
<totfact> 0.16854362E+04</totfact>
</mgrwt>
</event>
<event>
 6    0  0.9325672E-004  0.7498467E+03  0.7546771E-02  0.9635591E-01
         21   -1    0    0  502  501  0.00000000000E+00  0.00000000000E+00  0.17264093896E+03  0.17264093896E+03  0.00000000000E+00 0.  1.
         21   -1    0    0  501  502 -0.00000000000E+00 -0.00000000000E+00 -0.81421894118E+03  0.81421894118E+03  0.00000000000E+00 0.  1.
      99926    2    1    2    0    0 -0.18359880993E+03 -0.43443344331E+02 -0.56496324052E+03  0.74787624685E+03  0.45226051152E+03 0.  0.
         25    1    1    2    0    0  0.18359880993E+03  0.43443344331E+02 -0.76614761695E+02  0.23898363330E+03  0.12509000000E+03 0.  0.
         25    1    3    3    0    0  0.60115580336E+02 -0.13929492668E+03 -0.18715496640E+03  0.27146169002E+03  0.12509000000E+03 0.  0.
         25    1    3    3    0    0 -0.24371439027E+03  0.95851582349E+02 -0.37780827412E+03  0.47641455683E+03  0.12509000000E+03 0.  0.
<mgrwt>
<rscale>  2 0.74984671E+03</rscale>
<asrwt>0</asrwt>
<pdfrwt beam="1">  1       21 0.25388374E-01 0.74984671E+03</pdfrwt>
<pdfrwt beam="2">  1       21 0.11973807E+00 0.74984671E+03</pdfrwt>
<totfact> 0.63925748E+03</totfact>
</mgrwt>
</event>
<event>
 6    0  0.9325672E-004  0.6483842E+03  0.7546771E-02  0.9809816E-01
         21   -1    0    0  502  501  0.00000000000E+00  0.00000000000E+00  0.66030121988E+03  0.66030121988E+03  0.00000000000E+00 0.  1.
         21   -1    0    0  501  502 -0.00000000000E+00 -0.00000000000E+00 -0.15917058116E+03  0.15917058116E+03  0.00000000000E+00 0.  1.
      99926    2    1    2    0    0 -0.66906829765E+02 -0.10439288294E+03  0.29935405934E+03  0.55163660177E+03  0.44644785775E+03 0.  0.
         25    1    3    3    0    0  0.29227974585E+02 -0.26171268026E+02  0.34555336269E+03  0.36958604456E+03  0.12509000000E+03 0.  0.
         25    1    3    3    0    0 -0.96134804350E+02 -0.78221614919E+02 -0.46199303354E+02  0.18205055720E+03  0.12509000000E+03 0.  0.
         25    1    1    2    0    0  0.66906829765E+02  0.10439288294E+03  0.20177657938E+03  0.26783519927E+03  0.12509000000E+03 0.  0.
<mgrwt>
<rscale>  2 0.64838423E+03</rscale>
<asrwt>0</asrwt>
<pdfrwt beam="1">  1       21 0.97103119E-01 0.64838423E+03</pdfrwt>
<pdfrwt beam="2">  1       21 0.23407439E-01 0.64838423E+03</pdfrwt>
<totfact> 0.12907282E+04</totfact>
</mgrwt>
</event>
<event>
 6    0  0.9325672E-004  0.6091725E+03  0.7546771E-02  0.9886557E-01
         21   -1    0    0  502  501  0.00000000000E+00  0.00000000000E+00  0.61834901557E+03  0.61834901557E+03  0.00000000000E+00 0.  1.
         21   -1    0    0  501  502 -0.00000000000E+00 -0.00000000000E+00 -0.15003303611E+03  0.15003303611E+03  0.00000000000E+00 0.  1.
      99926    2    1    2    0    0 -0.37195960888E+02 -0.73222541190E+02  0.34385289067E+03  0.57374482859E+03  0.45188852371E+03 0.  0.
         25    1    3    3    0    0  0.15986905720E+03 -0.91400386144E+02  0.13746552072E+03  0.26164178474E+03  0.12509000000E+03 0.  0.
         25    1    3    3    0    0 -0.19706501808E+03  0.18177844954E+02  0.20638736996E+03  0.31210304385E+03  0.12509000000E+03 0.  0.
         25    1    1    2    0    0  0.37195960888E+02  0.73222541190E+02  0.12446308878E+03  0.19463722309E+03  0.12509000000E+03 0.  0.
<mgrwt>
<rscale>  2 0.60917249E+03</rscale>
<asrwt>0</asrwt>
<pdfrwt beam="1">  1       21 0.90933677E-01 0.60917249E+03</pdfrwt>
<pdfrwt beam="2">  1       21 0.22063682E-01 0.60917249E+03</pdfrwt>
<totfact> 0.17089950E+04</totfact>
</mgrwt>
</event>
<event>
 6    0  0.9325672E-004  0.7291226E+03  0.7546771E-02  0.9668685E-01
         21   -1    0    0  502  501  0.00000000000E+00  0.00000000000E+00  0.25565172176E+03  0.25565172176E+03  0.00000000000E+00 0. -1.
         21   -1    0    0  501  502 -0.00000000000E+00 -0.00000000000E+00 -0.51986713094E+03  0.51986713094E+03  0.00000000000E+00 0. -1.
      99926    2    1    2    0    0  0.17337539855E+03  0.77557690654E+02 -0.12586084059E+03  0.50931645047E+03  0.45550858535E+03 0.  0.
         25    1    3    3    0    0 -0.80905474468E+02 -0.65054688024E+02 -0.10037095654E+03  0.19104880332E+03  0.12509000000E+03 0.  0.
         25    1    3    3    0    0  0.25428087302E+03  0.14261237868E+03 -0.25489884049E+02  0.31826764715E+03  0.12509000000E+03 0.  0.
         25    1    1    2    0    0 -0.17337539855E+03 -0.77557690654E+02 -0.13835456859E+03  0.26620240223E+03  0.12509000000E+03 0.  0.
<mgrwt>
<rscale>  2 0.72912256E+03</rscale>
<asrwt>0</asrwt>
<pdfrwt beam="1">  1       21 0.37595842E-01 0.72912256E+03</pdfrwt>
<pdfrwt beam="2">  1       21 0.76451048E-01 0.72912256E+03</pdfrwt>
<totfact> 0.86790157E+03</totfact>
</mgrwt>
</event>
<event>
 6    0  0.9325672E-004  0.6470634E+03  0.7546771E-02  0.9812305E-01
         21   -1    0    0  502  501  0.00000000000E+00  0.00000000000E+00  0.81381401462E+03  0.81381401462E+03  0.00000000000E+00 0. -1.
         21   -1    0    0  501  502 -0.00000000000E+00 -0.00000000000E+00 -0.12861998564E+03  0.12861998564E+03  0.00000000000E+00 0. -1.
      99926    2    1    2    0    0  0.92355275748E+01  0.74862505676E+02  0.35010507114E+03  0.57689083251E+03  0.45226074567E+03 0.  0.
         25    1    3    3    0    0  0.11153775067E+03 -0.63751570858E+02  0.15083536630E+02  0.17994430746E+03  0.12509000000E+03 0.  0.
         25    1    3    3    0    0 -0.10230222310E+03  0.13861407653E+03  0.33502153451E+03  0.39694652505E+03  0.12509000000E+03 0.  0.
         25    1    1    2    0    0 -0.92355275748E+01 -0.74862505676E+02  0.33508895784E+03  0.36554316775E+03  0.12509000000E+03 0.  0.
<mgrwt>
<rscale>  2 0.64706336E+03</rscale>
<asrwt>0</asrwt>
<pdfrwt beam="1">  1       21 0.11967853E+00 0.64706336E+03</pdfrwt>
<pdfrwt beam="2">  1       21 0.18914704E-01 0.64706336E+03</pdfrwt>
<totfact> 0.11553881E+04</totfact>
</mgrwt>
</event>
<event>
 6    0  0.9325672E-004  0.5833716E+03  0.7546771E-02  0.9940518E-01
         21   -1    0    0  502  501  0.00000000000E+00  0.00000000000E+00  0.55867055696E+03  0.55867055696E+03  0.00000000000E+00 0. -1.
         21   -1    0    0  501  502 -0.00000000000E+00 -0.00000000000E+00 -0.15229119934E+03  0.15229119934E+03  0.00000000000E+00 0. -1.
      99926    2    1    2    0    0  0.29016997273E+01  0.20206127394E+02  0.30232060011E+03  0.54697260861E+03  0.45537301399E+03 0.  0.
         25    1    3    3    0    0 -0.94976502489E+02 -0.64623663857E+02  0.32379272866E+03  0.36563095218E+03  0.12509000000E+03 0.  0.
         25    1    3    3    0    0  0.97878202217E+02  0.84829791251E+02 -0.21472128552E+02  0.18134165643E+03  0.12509000000E+03 0.  0.
         25    1    1    2    0    0 -0.29016997273E+01 -0.20206127394E+02  0.10405875751E+03  0.16398914769E+03  0.12509000000E+03 0.  0.
<mgrwt>
<rscale>  2 0.58337161E+03</rscale>
<asrwt>0</asrwt>
<pdfrwt beam="1">  1       21 0.82157434E-01 0.58337161E+03</pdfrwt>
<pdfrwt beam="2">  1       21 0.22395765E-01 0.58337161E+03</pdfrwt>
<totfact> 0.21215306E+04</totfact>
</mgrwt>
</event>
<event>
 6    0  0.9325672E-004  0.8212937E+03  0.7546771E-02  0.9529697E-01
         21   -1    0    0  502  501  0.00000000000E+00  0.00000000000E+00  0.31470018369E+03  0.31470018369E+03  0.00000000000E+00 0.  1.
         21   -1    0    0  501  502 -0.00000000000E+00 -0.00000000000E+00 -0.53584596939E+03  0.53584596939E+03  0.00000000000E+00 0.  1.
      99926    2    1    2    0    0 -0.25373561092E+03  0.41540908866E+02 -0.63359669728E+02  0.52397093379E+03  0.45213237481E+03 0.  0.
         25    1    3    3    0    0 -0.17968539422E+03  0.19948841161E+03 -0.85203047067E+02  0.30820372254E+03  0.12509000000E+03 0.  0.
         25    1    1    2    0    0  0.25373561092E+03 -0.41540908866E+02 -0.15778611597E+03  0.32657521929E+03  0.12509000000E+03 0.  0.
         25    1    3    3    0    0 -0.74050216708E+02 -0.15794750274E+03  0.21843377339E+02  0.21576721125E+03  0.12509000000E+03 0.  0.
<mgrwt>
<rscale>  2 0.82129367E+03</rscale>
<asrwt>0</asrwt>
<pdfrwt beam="1">  1       21 0.46279439E-01 0.82129367E+03</pdfrwt>
<pdfrwt beam="2">  1       21 0.78800877E-01 0.82129367E+03</pdfrwt>
<totfact> 0.51491151E+03</totfact>
</mgrwt>
</event>
<event>
 6    0  0.9325672E-004  0.7151586E+03  0.7546771E-02  0.9691654E-01
         21   -1    0    0  502  501  0.00000000000E+00  0.00000000000E+00  0.49148407164E+03  0.49148407164E+03  0.00000000000E+00 0. -1.
         21   -1    0    0  501  502 -0.00000000000E+00 -0.00000000000E+00 -0.26015685766E+03  0.26015685766E+03  0.00000000000E+00 0. -1.
      99926    2    1    2    0    0 -0.68976182829E+02 -0.16202608505E+03  0.66520070751E+02  0.47994428120E+03  0.44148774299E+03 0.  0.
         25    1    3    3    0    0  0.44068733394E+02 -0.19353806630E+03 -0.86528134180E+02  0.25006731589E+03  0.12509000000E+03 0.  0.
         25    1    1    2    0    0  0.68976182829E+02  0.16202608505E+03  0.16480714323E+03  0.27169664811E+03  0.12509000000E+03 0.  0.
         25    1    3    3    0    0 -0.11304491622E+03  0.31511981256E+02  0.15304820493E+03  0.22987696531E+03  0.12509000000E+03 0.  0.
<mgrwt>
<rscale>  2 0.71515859E+03</rscale>
<asrwt>0</asrwt>
<pdfrwt beam="1">  1       21 0.72277069E-01 0.71515859E+03</pdfrwt>
<pdfrwt beam="2">  1       21 0.38258362E-01 0.71515859E+03</pdfrwt>
<totfact> 0.95506451E+03</totfact>
</mgrwt>
</event>
<event>
 6    0  0.9325672E-004  0.1130396E+04  0.7546771E-02  0.9176062E-01
         21   -1    0    0  502  501  0.00000000000E+00  0.00000000000E+00  0.76492913675E+03  0.76492913675E+03  0.00000000000E+00 0.  1.
         21   -1    0    0  501  502 -0.00000000000E+00 -0.00000000000E+00 -0.41761892917E+03  0.41761892917E+03  0.00000000000E+00 0.  1.
      99926    2    1    2    0    0 -0.36354521089E+03  0.38635663764E+01 -0.10030507862E+03  0.59247434168E+03  0.45692963270E+03 0.  0.
         25    1    3    3    0    0 -0.16815249465E+03  0.19257181200E+03 -0.40324484092E+02  0.28745910378E+03  0.12509000000E+03 0.  0.
         25    1    3    3    0    0 -0.19539271625E+03 -0.18870824562E+03 -0.59980594527E+02  0.30501523789E+03  0.12509000000E+03 0.  0.
         25    1    1    2    0    0  0.36354521089E+03 -0.38635663764E+01  0.44761528619E+03  0.59007372424E+03  0.12509000000E+03 0.  0.
<mgrwt>
<rscale>  2 0.11303962E+04</rscale>
<asrwt>0</asrwt>
<pdfrwt beam="1">  1       21 0.11248958E+00 0.11303962E+04</pdfrwt>
<pdfrwt beam="2">  1       21 0.61414548E-01 0.11303962E+04</pdfrwt>
<totfact> 0.11075996E+03</totfact>
</mgrwt>
</event>
<event>
 5    0  0.9325672E-004  0.1200901E+04  0.7546771E-02  0.9112068E-01
         21   -1    0    0  502  501  0.00000000000E+00  0.00000000000E+00  0.23277969391E+04  0.23277969391E+04  0.00000000000E+00 0. -1.
         21   -1    0    0  501  502 -0.00000000000E+00 -0.00000000000E+00 -0.15488493234E+03  0.15488493234E+03  0.00000000000E+00 0. -1.
         25    1    1    2    0    0  0.19300608400E+03 -0.31172034811E+02  0.13218337414E+04  0.13420562552E+04  0.12509000000E+03 0.  0.
         25    1    1    2    0    0 -0.34555297406E+03  0.24951295838E+03  0.63763297135E+03  0.77710159473E+03  0.12509000000E+03 0.  0.
         25    1    1    2    0    0  0.15254689006E+03 -0.21834092357E+03  0.21344529406E+03  0.36352402153E+03  0.12509000000E+03 0.  0.
<mgrwt>
<rscale>  2 0.12009008E+04</rscale>
<asrwt>0</asrwt>
<pdfrwt beam="1">  1       21 0.34232306E+00 0.12009008E+04</pdfrwt>
<pdfrwt beam="2">  1       21 0.22777197E-01 0.12009008E+04</pdfrwt>
<totfact> 0.20964407E+02</totfact>
</mgrwt>
</event>
<event>
 6    0  0.9325672E-004  0.7332034E+03  0.7546771E-02  0.9662076E-01
         21   -1    0    0  502  501  0.00000000000E+00  0.00000000000E+00  0.52709831409E+03  0.52709831409E+03  0.00000000000E+00 0.  1.
         21   -1    0    0  501  502 -0.00000000000E+00 -0.00000000000E+00 -0.25497486467E+03  0.25497486467E+03  0.00000000000E+00 0.  1.
      99926    2    1    2    0    0  0.32448089754E+02  0.73810483704E+01  0.39839747484E+03  0.60124177663E+03  0.44906989167E+03 0.  0.
         25    1    3    3    0    0 -0.14473597701E+03  0.92029846312E+02  0.14475266647E+03  0.25694131276E+03  0.12509000000E+03 0.  0.
         25    1    1    2    0    0 -0.32448089754E+02 -0.73810483704E+01 -0.12627402542E+03  0.18083140214E+03  0.12509000000E+03 0.  0.
         25    1    3    3    0    0  0.17718406676E+03 -0.84648797941E+02  0.25364480837E+03  0.34430046387E+03  0.12509000000E+03 0.  0.
<mgrwt>
<rscale>  2 0.73320344E+03</rscale>
<asrwt>0</asrwt>
<pdfrwt beam="1">  1       21 0.77514458E-01 0.73320344E+03</pdfrwt>
<pdfrwt beam="2">  1       21 0.37496304E-01 0.73320344E+03</pdfrwt>
<totfact> 0.84453823E+03</totfact>
</mgrwt>
</event>
<event>
 5    0  0.9325672E-004  0.6944056E+03  0.7546771E-02  0.9726847E-01
         21   -1    0    0  502  501  0.00000000000E+00  0.00000000000E+00  0.18543222982E+03  0.18543222982E+03  0.00000000000E+00 0.  1.
         21   -1    0    0  501  502 -0.00000000000E+00 -0.00000000000E+00 -0.65010161970E+03  0.65010161970E+03  0.00000000000E+00 0.  1.
         25    1    1    2    0    0 -0.12378344452E+03 -0.12740624375E+03  0.39436905358E+02  0.22081093652E+03  0.12509000000E+03 0.  0.
         25    1    1    2    0    0  0.29497316226E+02 -0.13023226853E+01 -0.10085075000E+03  0.16337126303E+03  0.12509000000E+03 0.  0.
         25    1    1    2    0    0  0.94286128290E+02  0.12870856644E+03 -0.40325554524E+03  0.45135164997E+03  0.12509000000E+03 0.  0.
<mgrwt>
<rscale>  2 0.69440562E+03</rscale>
<asrwt>0</asrwt>
<pdfrwt beam="1">  1       21 0.27269446E-01 0.69440562E+03</pdfrwt>
<pdfrwt beam="2">  1       21 0.95603179E-01 0.69440562E+03</pdfrwt>
<totfact> 0.98435685E+03</totfact>
</mgrwt>
</event>
<event>
 6    0  0.9325672E-004  0.7219630E+03  0.7546771E-02  0.9680393E-01
         21   -1    0    0  502  501  0.00000000000E+00  0.00000000000E+00  0.24556325290E+03  0.24556325290E+03  0.00000000000E+00 0.  1.
         21   -1    0    0  501  502 -0.00000000000E+00 -0.00000000000E+00 -0.53064792751E+03  0.53064792751E+03  0.00000000000E+00 0.  1.
      99926    2    1    2    0    0 -0.69007263639E+01  0.19953828065E+03 -0.25170344667E+03  0.53825118388E+03  0.43185248223E+03 0.  0.
         25    1    3    3    0    0  0.49750788068E+02  0.24494510840E+03 -0.40717817867E+02  0.28245122736E+03  0.12509000000E+03 0.  0.
         25    1    1    2    0    0  0.69007263639E+01 -0.19953828065E+03 -0.33381227933E+02  0.23795999653E+03  0.12509000000E+03 0.  0.
         25    1    3    3    0    0 -0.56651514432E+02 -0.45406827751E+02 -0.21098562880E+03  0.25579995652E+03  0.12509000000E+03 0.  0.
<mgrwt>
<rscale>  2 0.72196297E+03</rscale>
<asrwt>0</asrwt>
<pdfrwt beam="1">  1       21 0.36112244E-01 0.72196297E+03</pdfrwt>
<pdfrwt beam="2">  1       21 0.78036458E-01 0.72196297E+03</pdfrwt>
<totfact> 0.90014935E+03</totfact>
</mgrwt>
</event>
<event>
 6    0  0.9325672E-004  0.7621914E+03  0.7546771E-02  0.9616416E-01
         21   -1    0    0  502  501  0.00000000000E+00  0.00000000000E+00  0.15035880435E+03  0.15035880435E+03  0.00000000000E+00 0. -1.
         21   -1    0    0  501  502 -0.00000000000E+00 -0.00000000000E+00 -0.96591573811E+03  0.96591573811E+03  0.00000000000E+00 0. -1.
      99926    2    1    2    0    0 -0.47289722047E+02 -0.16782673351E+03 -0.74519741170E+03  0.89044252360E+03  0.45515555049E+03 0.  0.
         25    1    3    3    0    0 -0.44741357980E+02  0.93498459053E+02 -0.44274379967E+03  0.47160717892E+03  0.12509000000E+03 0.  0.
         25    1    1    2    0    0  0.47289722047E+02  0.16782673351E+03 -0.70359522057E+02  0.22583201885E+03  0.12509000000E+03 0.  0.
         25    1    3    3    0    0 -0.25483640669E+01 -0.26132519257E+03 -0.30245361203E+03  0.41883534468E+03  0.12509000000E+03 0.  0.
<mgrwt>
<rscale>  2 0.76219141E+03</rscale>
<asrwt>0</asrwt>
<pdfrwt beam="1">  1       21 0.22111588E-01 0.76219141E+03</pdfrwt>
<pdfrwt beam="2">  1       21 0.14204643E+00 0.76219141E+03</pdfrwt>
<totfact> 0.53203817E+03</totfact>
</mgrwt>
</event>
<event>
 6    0  0.9325672E-004  0.6260458E+03  0.7546771E-02  0.9852796E-01
         21   -1    0    0  502  501  0.00000000000E+00  0.00000000000E+00  0.69606502808E+02  0.69606502808E+02  0.00000000000E+00 0. -1.
         21   -1    0    0  501  502 -0.00000000000E+00 -0.00000000000E+00 -0.14076748827E+04  0.14076748827E+04  0.00000000000E+00 0. -1.
      99926    2    1    2    0    0 -0.60280267268E+02 -0.19792298595E+02 -0.12014065129E+04  0.12814513069E+04  0.44126454303E+03 0.  0.
         25    1    3    3    0    0 -0.16540947760E+03  0.10105478589E+03 -0.78334198833E+03  0.81660550072E+03  0.12509000000E+03 0.  0.
         25    1    1    2    0    0  0.60280267268E+02  0.19792298595E+02 -0.13666186696E+03  0.19583007860E+03  0.12509000000E+03 0.  0.
         25    1    3    3    0    0  0.10512921033E+03 -0.12084708448E+03 -0.41806452459E+03  0.46484580617E+03  0.12509000000E+03 0.  0.
<mgrwt>
<rscale>  2 0.62604577E+03</rscale>
<asrwt>0</asrwt>
<pdfrwt beam="1">  1       21 0.10236250E-01 0.62604577E+03</pdfrwt>
<pdfrwt beam="2">  1       21 0.20701101E+00 0.62604577E+03</pdfrwt>
<totfact> 0.77374599E+03</totfact>
</mgrwt>
</event>
<event>
 6    0  0.9325672E-004  0.6588103E+03  0.7546771E-02  0.9790386E-01
         21   -1    0    0  502  501  0.00000000000E+00  0.00000000000E+00  0.32553040421E+03  0.32553040421E+03  0.00000000000E+00 0. -1.
         21   -1    0    0  501  502 -0.00000000000E+00 -0.00000000000E+00 -0.33332605210E+03  0.33332605210E+03  0.00000000000E+00 0. -1.
      99926    2    1    2    0    0 -0.14739284273E+02 -0.76688518116E+01 -0.15232358118E+03  0.46699220901E+03  0.44113851804E+03 0.  0.
         25    1    1    2    0    0  0.14739284273E+02  0.76688518116E+01  0.14452793330E+03  0.19186424730E+03  0.12509000000E+03 0.  0.
         25    1    3    3    0    0  0.12040102686E+03  0.10656682535E+03 -0.28463622543E+01  0.20373636252E+03  0.12509000000E+03 0.  0.
         25    1    3    3    0    0 -0.13514031113E+03 -0.11423567716E+03 -0.14947721893E+03  0.26325584649E+03  0.12509000000E+03 0.  0.
<mgrwt>
<rscale>  2 0.65881034E+03</rscale>
<asrwt>0</asrwt>
<pdfrwt beam="1">  1       21 0.47872118E-01 0.65881034E+03</pdfrwt>
<pdfrwt beam="2">  1       21 0.49018537E-01 0.65881034E+03</pdfrwt>
<totfact> 0.14220964E+04</totfact>
</mgrwt>
</event>
<event>
 6    0  0.9325672E-004  0.7057579E+03  0.7546771E-02  0.9707436E-01
         21   -1    0    0  502  501  0.00000000000E+00  0.00000000000E+00  0.24136352623E+03  0.24136352623E+03  0.00000000000E+00 0.  1.
         21   -1    0    0  501  502 -0.00000000000E+00 -0.00000000000E+00 -0.51591695627E+03  0.51591695627E+03  0.00000000000E+00 0.  1.
      99926    2    1    2    0    0 -0.87883103494E+02  0.11160956338E+03 -0.30236092755E+03  0.56596686684E+03  0.45685471360E+03 0.  0.
         25    1    3    3    0    0 -0.14456854626E+03  0.22558142367E+03 -0.22447090916E+03  0.37124350558E+03  0.12509000000E+03 0.  0.
         25    1    3    3    0    0  0.56685442765E+02 -0.11397186029E+03 -0.77890018386E+02  0.19472336127E+03  0.12509000000E+03 0.  0.
         25    1    1    2    0    0  0.87883103494E+02 -0.11160956338E+03  0.27807497514E+02  0.19131361565E+03  0.12509000000E+03 0.  0.
<mgrwt>
<rscale>  2 0.70575785E+03</rscale>
<asrwt>0</asrwt>
<pdfrwt beam="1">  1       21 0.35494636E-01 0.70575785E+03</pdfrwt>
<pdfrwt beam="2">  1       21 0.75870141E-01 0.70575785E+03</pdfrwt>
<totfact> 0.99834949E+03</totfact>
</mgrwt>
</event>
<event>
 6    0  0.9325672E-004  0.7383020E+03  0.7546771E-02  0.9653884E-01
         21   -1    0    0  502  501  0.00000000000E+00  0.00000000000E+00  0.11380073329E+03  0.11380073329E+03  0.00000000000E+00 0. -1.
         21   -1    0    0  501  502 -0.00000000000E+00 -0.00000000000E+00 -0.11974654460E+04  0.11974654460E+04  0.00000000000E+00 0. -1.
      99926    2    1    2    0    0 -0.14823882008E+02 -0.26108251951E+02 -0.36320794968E+03  0.57941452505E+03  0.45044399078E+03 0.  0.
         25    1    3    3    0    0 -0.25947651996E+02 -0.13127905537E+03 -0.24356125666E+01  0.18319637368E+03  0.12509000000E+03 0.  0.
         25    1    3    3    0    0  0.11123769988E+02  0.10517080341E+03 -0.36077233711E+03  0.39621815137E+03  0.12509000000E+03 0.  0.
         25    1    1    2    0    0  0.14823882008E+02  0.26108251951E+02 -0.72045676299E+03  0.73185165419E+03  0.12509000000E+03 0.  0.
<mgrwt>
<rscale>  2 0.73830196E+03</rscale>
<asrwt>0</asrwt>
<pdfrwt beam="1">  1       21 0.16735402E-01 0.73830196E+03</pdfrwt>
<pdfrwt beam="2">  1       21 0.17609786E+00 0.73830196E+03</pdfrwt>
<totfact> 0.49706711E+03</totfact>
</mgrwt>
</event>
<event>
 6    0  0.9325672E-004  0.8247781E+03  0.7546771E-02  0.9524829E-01
         21   -1    0    0  502  501  0.00000000000E+00  0.00000000000E+00  0.14642368313E+03  0.14642368313E+03  0.00000000000E+00 0.  1.
         21   -1    0    0  501  502 -0.00000000000E+00 -0.00000000000E+00 -0.11614563551E+04  0.11614563551E+04  0.00000000000E+00 0.  1.
      99926    2    1    2    0    0  0.34328083046E+02  0.14203025463E+03 -0.10094831943E+04  0.11154500112E+04  0.45146583201E+03 0.  0.
         25    1    3    3    0    0 -0.69720578326E+02  0.96811163171E+01 -0.82103759326E+03  0.83348960444E+03  0.12509000000E+03 0.  0.
         25    1    3    3    0    0  0.10404866137E+03  0.13234913831E+03 -0.18844560099E+03  0.28196040676E+03  0.12509000000E+03 0.  0.
         25    1    1    2    0    0 -0.34328083046E+02 -0.14203025463E+03 -0.55494777396E+01  0.19243002707E+03  0.12509000000E+03 0.  0.
<mgrwt>
<rscale>  2 0.82477807E+03</rscale>
<asrwt>0</asrwt>
<pdfrwt beam="1">  1       21 0.21532893E-01 0.82477807E+03</pdfrwt>
<pdfrwt beam="2">  1       21 0.17080242E+00 0.82477807E+03</pdfrwt>
<totfact> 0.32953613E+03</totfact>
</mgrwt>
</event>
<event>
 6    0  0.9325672E-004  0.6576535E+03  0.7546771E-02  0.9792523E-01
         21   -1    0    0  502  501  0.00000000000E+00  0.00000000000E+00  0.17905109233E+03  0.17905109233E+03  0.00000000000E+00 0. -1.
         21   -1    0    0  501  502 -0.00000000000E+00 -0.00000000000E+00 -0.60388918446E+03  0.60388918446E+03  0.00000000000E+00 0. -1.
      99926    2    1    2    0    0  0.88990417982E+00  0.16922862079E+03 -0.38947497898E+03  0.56954586286E+03  0.37954263611E+03 0.  0.
         25    1    3    3    0    0 -0.10402620011E+03  0.73075806779E+02 -0.32259622012E+03  0.36861545434E+03  0.12509000000E+03 0.  0.
         25    1    3    3    0    0  0.10491610429E+03  0.96152814008E+02 -0.66878758864E+02  0.20093040852E+03  0.12509000000E+03 0.  0.
         25    1    1    2    0    0 -0.88990417982E+00 -0.16922862079E+03 -0.35363113153E+02  0.21339441393E+03  0.12509000000E+03 0.  0.
<mgrwt>
<rscale>  2 0.65765346E+03</rscale>
<asrwt>0</asrwt>
<pdfrwt beam="1">  1       21 0.26331043E-01 0.65765346E+03</pdfrwt>
<pdfrwt beam="2">  1       21 0.88807234E-01 0.65765346E+03</pdfrwt>
<totfact> 0.12684786E+04</totfact>
</mgrwt>
</event>
<event>
 6    0  0.9325672E-004  0.6862268E+03  0.7546771E-02  0.9741081E-01
         21   -1    0    0  502  501  0.00000000000E+00  0.00000000000E+00  0.98510201647E+02  0.98510201647E+02  0.00000000000E+00 0. -1.
         21   -1    0    0  501  502 -0.00000000000E+00 -0.00000000000E+00 -0.11950721192E+04  0.11950721192E+04  0.00000000000E+00 0. -1.
      99926    2    1    2    0    0  0.20444945010E+02 -0.94179454507E+02 -0.54842837076E+03  0.72315646357E+03  0.46140419106E+03 0.  0.
         25    1    1    2    0    0 -0.20444945010E+02  0.94179454507E+02 -0.54813354680E+03  0.57042585728E+03  0.12509000000E+03 0.  0.
         25    1    3    3    0    0  0.91624598933E+02 -0.20014367597E+01 -0.68181337789E+01  0.15521941865E+03  0.12509000000E+03 0.  0.
         25    1    3    3    0    0 -0.71179653923E+02 -0.92178017747E+02 -0.54161023698E+03  0.56793704492E+03  0.12509000000E+03 0.  0.
<mgrwt>
<rscale>  2 0.68622677E+03</rscale>
<asrwt>0</asrwt>
<pdfrwt beam="1">  1       21 0.14486795E-01 0.68622677E+03</pdfrwt>
<pdfrwt beam="2">  1       21 0.17574589E+00 0.68622677E+03</pdfrwt>
<totfact> 0.66322506E+03</totfact>
</mgrwt>
</event>
<event>
 6    0  0.9325672E-004  0.7645109E+03  0.7546771E-02  0.9612856E-01
         21   -1    0    0  502  501  0.00000000000E+00  0.00000000000E+00  0.52292935524E+03  0.52292935524E+03  0.00000000000E+00 0.  1.
         21   -1    0    0  501  502 -0.00000000000E+00 -0.00000000000E+00 -0.27942438793E+03  0.27942438793E+03  0.00000000000E+00 0.  1.
      99926    2    1    2    0    0  0.32355631878E+02 -0.21990716958E+03  0.21203617893E+03  0.54536377665E+03  0.45061764009E+03 0.  0.
         25    1    3    3    0    0  0.11080962795E+03 -0.37299994334E+02  0.25448224605E+03  0.30672265140E+03  0.12509000000E+03 0.  0.
         25    1    1    2    0    0 -0.32355631878E+02  0.21990716958E+03  0.31468788368E+02  0.25698996651E+03  0.12509000000E+03 0.  0.
         25    1    3    3    0    0 -0.78453996068E+02 -0.18260717525E+03 -0.42446067120E+02  0.23864112526E+03  0.12509000000E+03 0.  0.
<mgrwt>
<rscale>  2 0.76451086E+03</rscale>
<asrwt>0</asrwt>
<pdfrwt beam="1">  1       21 0.76901376E-01 0.76451086E+03</pdfrwt>
<pdfrwt beam="2">  1       21 0.41091821E-01 0.76451086E+03</pdfrwt>
<totfact> 0.70737319E+03</totfact>
</mgrwt>
</event>
<event>
 6    0  0.9325672E-004  0.5961634E+03  0.7546771E-02  0.9913398E-01
         21   -1    0    0  502  501  0.00000000000E+00  0.00000000000E+00  0.82186774770E+03  0.82186774770E+03  0.00000000000E+00 0.  1.
         21   -1    0    0  501  502 -0.00000000000E+00 -0.00000000000E+00 -0.10811071657E+03  0.10811071657E+03  0.00000000000E+00 0.  1.
      99926    2    1    2    0    0  0.21724692809E+02 -0.28319696745E+01  0.45484559367E+03  0.64159916043E+03  0.45197896661E+03 0.  0.
         25    1    3    3    0    0  0.82678634516E+02  0.87005801165E+00  0.47756983471E+03  0.50055665886E+03  0.12509000000E+03 0.  0.
         25    1    1    2    0    0 -0.21724692809E+02  0.28319696745E+01  0.25891143746E+03  0.28837930383E+03  0.12509000000E+03 0.  0.
         25    1    3    3    0    0 -0.60953941707E+02 -0.37020276862E+01 -0.22724241039E+02  0.14104250157E+03  0.12509000000E+03 0.  0.
<mgrwt>
<rscale>  2 0.59616344E+03</rscale>
<asrwt>0</asrwt>
<pdfrwt beam="1">  1       21 0.12086290E+00 0.59616344E+03</pdfrwt>
<pdfrwt beam="2">  1       21 0.15898635E-01 0.59616344E+03</pdfrwt>
<totfact> 0.15808790E+04</totfact>
</mgrwt>
</event>
<event>
 6    0  0.9325672E-004  0.6329864E+03  0.7546771E-02  0.9839238E-01
         21   -1    0    0  502  501  0.00000000000E+00  0.00000000000E+00  0.30548757736E+03  0.30548757736E+03  0.00000000000E+00 0. -1.
         21   -1    0    0  501  502 -0.00000000000E+00 -0.00000000000E+00 -0.32789535355E+03  0.32789535355E+03  0.00000000000E+00 0. -1.
      99926    2    1    2    0    0 -0.10095147095E+03 -0.18564333728E+02  0.10916185047E+03  0.42483099797E+03  0.39752890871E+03 0.  0.
         25    1    3    3    0    0  0.28100369961E+01 -0.14836300830E+03  0.98136262028E+01  0.19432780012E+03  0.12509000000E+03 0.  0.
         25    1    3    3    0    0 -0.10376150795E+03  0.12979867458E+03  0.99348224263E+02  0.23050319785E+03  0.12509000000E+03 0.  0.
         25    1    1    2    0    0  0.10095147095E+03  0.18564333728E+02 -0.13156962665E+03  0.20855193294E+03  0.12509000000E+03 0.  0.
<mgrwt>
<rscale>  2 0.63298644E+03</rscale>
<asrwt>0</asrwt>
<pdfrwt beam="1">  1       21 0.44924644E-01 0.63298644E+03</pdfrwt>
<pdfrwt beam="2">  1       21 0.48219905E-01 0.63298644E+03</pdfrwt>
<totfact> 0.16933359E+04</totfact>
</mgrwt>
</event>
<event>
 6    0  0.9325672E-004  0.7281096E+03  0.7546771E-02  0.9670333E-01
         21   -1    0    0  502  501  0.00000000000E+00  0.00000000000E+00  0.31299711009E+03  0.31299711009E+03  0.00000000000E+00 0. -1.
         21   -1    0    0  501  502 -0.00000000000E+00 -0.00000000000E+00 -0.42344122642E+03  0.42344122642E+03  0.00000000000E+00 0. -1.
      99926    2    1    2    0    0 -0.14417243476E+03  0.42424881440E+02  0.47186879823E+02  0.48527981972E+03  0.45900363865E+03 0.  0.
         25    1    3    3    0    0 -0.46469774068E+01 -0.15711734029E+02 -0.15746573033E+03  0.20177070479E+03  0.12509000000E+03 0.  0.
         25    1    3    3    0    0 -0.13952545736E+03  0.58136615469E+02  0.20465261015E+03  0.28350911493E+03  0.12509000000E+03 0.  0.
         25    1    1    2    0    0  0.14417243476E+03 -0.42424881440E+02 -0.15763099615E+03  0.25115851680E+03  0.12509000000E+03 0.  0.
<mgrwt>
<rscale>  2 0.72810955E+03</rscale>
<asrwt>0</asrwt>
<pdfrwt beam="1">  1       21 0.46028987E-01 0.72810955E+03</pdfrwt>
<pdfrwt beam="2">  1       21 0.62270768E-01 0.72810955E+03</pdfrwt>
<totfact> 0.90567163E+03</totfact>
</mgrwt>
</event>
<event>
 6    0  0.9325672E-004  0.6797167E+03  0.7546771E-02  0.9752562E-01
         21   -1    0    0  502  501  0.00000000000E+00  0.00000000000E+00  0.19121353258E+03  0.19121353258E+03  0.00000000000E+00 0.  1.
         21   -1    0    0  501  502 -0.00000000000E+00 -0.00000000000E+00 -0.60405605919E+03  0.60405605919E+03  0.00000000000E+00 0.  1.
      99926    2    1    2    0    0 -0.47331488747E+01  0.14879974778E+03 -0.35286436011E+03  0.59177842196E+03  0.45113709271E+03 0.  0.
         25    1    1    2    0    0  0.47331488747E+01 -0.14879974778E+03 -0.59978166507E+02  0.20349116982E+03  0.12509000000E+03 0.  0.
         25    1    3    3    0    0 -0.82730997259E+02 -0.98131349076E+02 -0.19035925006E+03  0.26145426323E+03  0.12509000000E+03 0.  0.
         25    1    3    3    0    0  0.77997848384E+02  0.24693109685E+03 -0.16250511005E+03  0.33032415872E+03  0.12509000000E+03 0.  0.
<mgrwt>
<rscale>  2 0.67971668E+03</rscale>
<asrwt>0</asrwt>
<pdfrwt beam="1">  1       21 0.28119637E-01 0.67971668E+03</pdfrwt>
<pdfrwt beam="2">  1       21 0.88831773E-01 0.67971668E+03</pdfrwt>
<totfact> 0.11082812E+04</totfact>
</mgrwt>
</event>
<event>
 6    0  0.9325672E-004  0.8096616E+03  0.7546771E-02  0.9546137E-01
         21   -1    0    0  502  501  0.00000000000E+00  0.00000000000E+00  0.96168901292E+02  0.96168901292E+02  0.00000000000E+00 0.  1.
         21   -1    0    0  501  502 -0.00000000000E+00 -0.00000000000E+00 -0.17041682879E+04  0.17041682879E+04  0.00000000000E+00 0.  1.
      99926    2    1    2    0    0 -0.12850354306E+03  0.21420116922E+03 -0.90432422611E+03  0.10432364422E+04  0.45622874412E+03 0.  0.
         25    1    3    3    0    0 -0.94948530606E+02  0.17760465471E+02 -0.63861968140E+02  0.17045972156E+03  0.12509000000E+03 0.  0.
         25    1    3    3    0    0 -0.33555012452E+02  0.19644070375E+03 -0.84046225797E+03  0.87277672066E+03  0.12509000000E+03 0.  0.
         25    1    1    2    0    0  0.12850354306E+03 -0.21420116922E+03 -0.70367516049E+03  0.75710074697E+03  0.12509000000E+03 0.  0.
<mgrwt>
<rscale>  2 0.80966164E+03</rscale>
<asrwt>0</asrwt>
<pdfrwt beam="1">  1       21 0.14142486E-01 0.80966164E+03</pdfrwt>
<pdfrwt beam="2">  1       21 0.25061298E+00 0.80966164E+03</pdfrwt>
<totfact> 0.21342895E+03</totfact>
</mgrwt>
</event>
<event>
 6    0  0.9325672E-004  0.6256775E+03  0.7546771E-02  0.9853520E-01
         21   -1    0    0  502  501  0.00000000000E+00  0.00000000000E+00  0.31541485185E+03  0.31541485185E+03  0.00000000000E+00 0. -1.
         21   -1    0    0  501  502 -0.00000000000E+00 -0.00000000000E+00 -0.31028364209E+03  0.31028364209E+03  0.00000000000E+00 0. -1.
      99926    2    1    2    0    0 -0.10165804304E+03 -0.33656299435E+01 -0.84067420321E+02  0.44144435182E+03  0.42126013272E+03 0.  0.
         25    1    3    3    0    0  0.11448124316E+03  0.48050550641E+02 -0.12816257613E+02  0.17671042700E+03  0.12509000000E+03 0.  0.
         25    1    1    2    0    0  0.10165804304E+03  0.33656299435E+01  0.89198630078E+02  0.18425414212E+03  0.12509000000E+03 0.  0.
         25    1    3    3    0    0 -0.21613928620E+03 -0.51416180585E+02 -0.71251162708E+02  0.26473392482E+03  0.12509000000E+03 0.  0.
<mgrwt>
<rscale>  2 0.62567745E+03</rscale>
<asrwt>0</asrwt>
<pdfrwt beam="1">  1       21 0.46384537E-01 0.62567745E+03</pdfrwt>
<pdfrwt beam="2">  1       21 0.45629947E-01 0.62567745E+03</pdfrwt>
<totfact> 0.17818061E+04</totfact>
</mgrwt>
</event>
<event>
 6    0  0.9325672E-004  0.6049321E+03  0.7546771E-02  0.9895226E-01
         21   -1    0    0  502  501  0.00000000000E+00  0.00000000000E+00  0.88526030870E+02  0.88526030870E+02  0.00000000000E+00 0.  1.
         21   -1    0    0  501  502 -0.00000000000E+00 -0.00000000000E+00 -0.10334328521E+04  0.10334328521E+04  0.00000000000E+00 0.  1.
      99926    2    1    2    0    0 -0.12222584071E+03 -0.12488433179E+01 -0.76890882501E+03  0.87383891498E+03  0.39677821562E+03 0.  0.
         25    1    1    2    0    0  0.12222584071E+03  0.12488433179E+01 -0.17599799623E+03  0.24811996800E+03  0.12509000000E+03 0.  0.
         25    1    3    3    0    0 -0.10317458172E+02 -0.12501234043E+03 -0.19618679896E+03  0.26433180548E+03  0.12509000000E+03 0.  0.
         25    1    3    3    0    0 -0.11190838254E+03  0.12376349711E+03 -0.57272202605E+03  0.60950710949E+03  0.12509000000E+03 0.  0.
<mgrwt>
<rscale>  2 0.60493209E+03</rscale>
<asrwt>0</asrwt>
<pdfrwt beam="1">  1       21 0.13018534E-01 0.60493209E+03</pdfrwt>
<pdfrwt beam="2">  1       21 0.15197542E+00 0.60493209E+03</pdfrwt>
<totfact> 0.12451288E+04</totfact>
</mgrwt>
</event>
<event>
 6    0  0.9325672E-004  0.6406943E+03  0.7546771E-02  0.9824399E-01
         21   -1    0    0  502  501  0.00000000000E+00  0.00000000000E+00  0.11045463739E+04  0.11045463739E+04  0.00000000000E+00 0.  1.
         21   -1    0    0  501  502 -0.00000000000E+00 -0.00000000000E+00 -0.92908989653E+02  0.92908989653E+02  0.00000000000E+00 0.  1.
      99926    2    1    2    0    0 -0.21009531664E+02 -0.13124043127E+03  0.80225734096E+03  0.91969114367E+03  0.42959225714E+03 0.  0.
         25    1    1    2    0    0  0.21009531664E+02  0.13124043127E+03  0.20938004327E+03  0.27776421987E+03  0.12509000000E+03 0.  0.
         25    1    3    3    0    0 -0.21905034041E+02 -0.39465317110E+02  0.74107939844E+03  0.75291667843E+03  0.12509000000E+03 0.  0.
         25    1    3    3    0    0  0.89550237672E+00 -0.91775114157E+02  0.61177942520E+02  0.16677446523E+03  0.12509000000E+03 0.  0.
<mgrwt>
<rscale>  2 0.64069427E+03</rscale>
<asrwt>0</asrwt>
<pdfrwt beam="1">  1       21 0.16243328E+00 0.64069427E+03</pdfrwt>
<pdfrwt beam="2">  1       21 0.13663087E-01 0.64069427E+03</pdfrwt>
<totfact> 0.93768037E+03</totfact>
</mgrwt>
</event>
<event>
 6    0  0.9325672E-004  0.7805092E+03  0.7546771E-02  0.9588666E-01
         21   -1    0    0  502  501  0.00000000000E+00  0.00000000000E+00  0.71354181419E+03  0.71354181419E+03  0.00000000000E+00 0.  1.
         21   -1    0    0  501  502 -0.00000000000E+00 -0.00000000000E+00 -0.21344040000E+03  0.21344040000E+03  0.00000000000E+00 0.  1.
      99926    2    1    2    0    0 -0.37847961711E+01 -0.13481049387E+03  0.56111265491E+03  0.73318315967E+03  0.45224102002E+03 0.  0.
         25    1    3    3    0    0  0.64723431563E+02  0.16619416824E+02  0.49499319035E+03  0.51490882125E+03  0.12509000000E+03 0.  0.
         25    1    3    3    0    0 -0.68508227734E+02 -0.15142991069E+03  0.66119464564E+02  0.21827433842E+03  0.12509000000E+03 0.  0.
         25    1    1    2    0    0  0.37847961711E+01  0.13481049387E+03 -0.61011240721E+02  0.19379905452E+03  0.12509000000E+03 0.  0.
<mgrwt>
<rscale>  2 0.78050919E+03</rscale>
<asrwt>0</asrwt>
<pdfrwt beam="1">  1       21 0.10493262E+00 0.78050919E+03</pdfrwt>
<pdfrwt beam="2">  1       21 0.31388294E-01 0.78050919E+03</pdfrwt>
<totfact> 0.58129127E+03</totfact>
</mgrwt>
</event>
<event>
 6    0  0.9325672E-004  0.6165399E+03  0.7546771E-02  0.9871673E-01
         21   -1    0    0  502  501  0.00000000000E+00  0.00000000000E+00  0.47553195696E+03  0.47553195696E+03  0.00000000000E+00 0. -1.
         21   -1    0    0  501  502 -0.00000000000E+00 -0.00000000000E+00 -0.19984013516E+03  0.19984013516E+03  0.00000000000E+00 0. -1.
      99926    2    1    2    0    0 -0.69887275264E+02  0.93217060127E+02  0.33004191715E+03  0.49599792312E+03  0.35144362438E+03 0.  0.
         25    1    1    2    0    0  0.69887275264E+02 -0.93217060127E+02 -0.54350095354E+02  0.17937416901E+03  0.12509000000E+03 0.  0.
         25    1    3    3    0    0 -0.10217754305E+03  0.14505197488E+03  0.13247746218E+03  0.25431891751E+03  0.12509000000E+03 0.  0.
         25    1    3    3    0    0  0.32290267785E+02 -0.51834914750E+02  0.19756445497E+03  0.24167900560E+03  0.12509000000E+03 0.  0.
<mgrwt>
<rscale>  2 0.61653993E+03</rscale>
<asrwt>0</asrwt>
<pdfrwt beam="1">  1       21 0.69931170E-01 0.61653993E+03</pdfrwt>
<pdfrwt beam="2">  1       21 0.29388255E-01 0.61653993E+03</pdfrwt>
<totfact> 0.17913753E+04</totfact>
</mgrwt>
</event>
<event>
 6    0  0.9325672E-004  0.6295439E+03  0.7546771E-02  0.9845939E-01
         21   -1    0    0  502  501  0.00000000000E+00  0.00000000000E+00  0.13920413049E+04  0.13920413049E+04  0.00000000000E+00 0.  1.
         21   -1    0    0  501  502 -0.00000000000E+00 -0.00000000000E+00 -0.71177037166E+02  0.71177037166E+02  0.00000000000E+00 0.  1.
      99926    2    1    2    0    0  0.49073007750E+02  0.86366633736E+01  0.64886763744E+03  0.77786461495E+03  0.42610021853E+03 0.  0.
         25    1    3    3    0    0 -0.11610628018E+03 -0.91378573099E+02  0.23626083524E+03  0.30544623469E+03  0.12509000000E+03 0.  0.
         25    1    3    3    0    0  0.16517928793E+03  0.10001523647E+03  0.41260680220E+03  0.47241838026E+03  0.12509000000E+03 0.  0.
         25    1    1    2    0    0 -0.49073007750E+02 -0.86366633736E+01  0.67199663033E+03  0.68535372715E+03  0.12509000000E+03 0.  0.
<mgrwt>
<rscale>  2 0.62954388E+03</rscale>
<asrwt>0</asrwt>
<pdfrwt beam="1">  1       21 0.20471194E+00 0.62954388E+03</pdfrwt>
<pdfrwt beam="2">  1       21 0.10467212E-01 0.62954388E+03</pdfrwt>
<totfact> 0.76903041E+03</totfact>
</mgrwt>
</event>
<event>
 6    0  0.9325672E-004  0.8826692E+03  0.7546771E-02  0.9447509E-01
         21   -1    0    0  502  501  0.00000000000E+00  0.00000000000E+00  0.29382494490E+03  0.29382494490E+03  0.00000000000E+00 0.  1.
         21   -1    0    0  501  502 -0.00000000000E+00 -0.00000000000E+00 -0.66289883356E+03  0.66289883356E+03  0.00000000000E+00 0.  1.
      99926    2    1    2    0    0  0.12530550042E+03 -0.27978786384E+03 -0.31451559102E+03  0.62115436220E+03  0.43923793950E+03 0.  0.
         25    1    3    3    0    0  0.22027667438E+03 -0.57252552988E+02 -0.11782579987E+03  0.28518431814E+03  0.12509000000E+03 0.  0.
         25    1    3    3    0    0 -0.94971173959E+02 -0.22253531086E+03 -0.19668979115E+03  0.33597004406E+03  0.12509000000E+03 0.  0.
         25    1    1    2    0    0 -0.12530550042E+03  0.27978786384E+03 -0.54558297635E+02  0.33556941626E+03  0.12509000000E+03 0.  0.
<mgrwt>
<rscale>  2 0.88266916E+03</rscale>
<asrwt>0</asrwt>
<pdfrwt beam="1">  1       21 0.43209551E-01 0.88266916E+03</pdfrwt>
<pdfrwt beam="2">  1       21 0.97485121E-01 0.88266916E+03</pdfrwt>
<totfact> 0.35428379E+03</totfact>
</mgrwt>
</event>
<event>
 6    0  0.9325672E-004  0.6486977E+03  0.7546771E-02  0.9809226E-01
         21   -1    0    0  502  501  0.00000000000E+00  0.00000000000E+00  0.28584294209E+03  0.28584294209E+03  0.00000000000E+00 0.  1.
         21   -1    0    0  501  502 -0.00000000000E+00 -0.00000000000E+00 -0.36804188852E+03  0.36804188852E+03  0.00000000000E+00 0.  1.
      99926    2    1    2    0    0 -0.12412815597E+03  0.47977076905E+02 -0.11501824547E+03  0.46832025020E+03  0.43403347906E+03 0.  0.
         25    1    1    2    0    0  0.12412815597E+03 -0.47977076905E+02  0.32819299050E+02  0.18556458041E+03  0.12509000000E+03 0.  0.
         25    1    3    3    0    0 -0.10942841519E+03 -0.13452235284E+03 -0.12255307076E+03  0.24645000450E+03  0.12509000000E+03 0.  0.
         25    1    3    3    0    0 -0.14699740776E+02  0.18249942975E+03  0.75348252844E+01  0.22187024570E+03  0.12509000000E+03 0.  0.
<mgrwt>
<rscale>  2 0.64869770E+03</rscale>
<asrwt>0</asrwt>
<pdfrwt beam="1">  1       21 0.42035727E-01 0.64869770E+03</pdfrwt>
<pdfrwt beam="2">  1       21 0.54123807E-01 0.64869770E+03</pdfrwt>
<totfact> 0.15143594E+04</totfact>
</mgrwt>
</event>
<event>
 6    0  0.9325672E-004  0.6103693E+03  0.7546771E-02  0.9884124E-01
         21   -1    0    0  502  501  0.00000000000E+00  0.00000000000E+00  0.17009454441E+04  0.17009454441E+04  0.00000000000E+00 0. -1.
         21   -1    0    0  501  502 -0.00000000000E+00 -0.00000000000E+00 -0.54756403954E+02  0.54756403954E+02  0.00000000000E+00 0. -1.
      99926    2    1    2    0    0  0.45819710340E+02 -0.62901082095E+02  0.12840612087E+04  0.13647541964E+04  0.45572451845E+03 0.  0.
         25    1    3    3    0    0  0.15141203794E+03 -0.13274768605E+03  0.41750434798E+03  0.48010930221E+03  0.12509000000E+03 0.  0.
         25    1    3    3    0    0 -0.10559232760E+03  0.69846603953E+02  0.86655686075E+03  0.88464489415E+03  0.12509000000E+03 0.  0.
         25    1    1    2    0    0 -0.45819710340E+02  0.62901082095E+02  0.36212783144E+03  0.39094765172E+03  0.12509000000E+03 0.  0.
<mgrwt>
<rscale>  2 0.61036925E+03</rscale>
<asrwt>0</asrwt>
<pdfrwt beam="1">  1       21 0.25013900E+00 0.61036925E+03</pdfrwt>
<pdfrwt beam="2">  1       21 0.80524134E-02 0.61036925E+03</pdfrwt>
<totfact> 0.63310844E+03</totfact>
</mgrwt>
</event>
<event>
 6    0  0.9325672E-004  0.6477789E+03  0.7546771E-02  0.9810956E-01
         21   -1    0    0  502  501  0.00000000000E+00  0.00000000000E+00  0.66129271228E+02  0.66129271228E+02  0.00000000000E+00 0.  1.
         21   -1    0    0  501  502 -0.00000000000E+00 -0.00000000000E+00 -0.15863532207E+04  0.15863532207E+04  0.00000000000E+00 0.  1.
      99926    2    1    2    0    0 -0.92831082344E+02  0.50582910360E+02 -0.12975151321E+04  0.13760354516E+04  0.44581588730E+03 0.  0.
         25    1    3    3    0    0 -0.94670088245E+02 -0.76714227719E+02 -0.20614797884E+03  0.27017030855E+03  0.12509000000E+03 0.  0.
         25    1    1    2    0    0  0.92831082344E+02 -0.50582910360E+02 -0.22270881738E+03  0.27644704033E+03  0.12509000000E+03 0.  0.
         25    1    3    3    0    0  0.18390059009E+01  0.12729713808E+03 -0.10913671533E+04  0.11058651430E+04  0.12509000000E+03 0.  0.
<mgrwt>
<rscale>  2 0.64777892E+03</rscale>
<asrwt>0</asrwt>
<pdfrwt beam="1">  1       21 0.97248928E-02 0.64777892E+03</pdfrwt>
<pdfrwt beam="2">  1       21 0.23328724E+00 0.64777892E+03</pdfrwt>
<totfact> 0.56979914E+03</totfact>
</mgrwt>
</event>
<event>
 6    0  0.9325672E-004  0.5859007E+03  0.7546771E-02  0.9935097E-01
         21   -1    0    0  502  501  0.00000000000E+00  0.00000000000E+00  0.13029938580E+03  0.13029938580E+03  0.00000000000E+00 0. -1.
         21   -1    0    0  501  502 -0.00000000000E+00 -0.00000000000E+00 -0.65863622403E+03  0.65863622403E+03  0.00000000000E+00 0. -1.
      99926    2    1    2    0    0  0.38080802422E+01  0.54012305786E+02 -0.39342871609E+03  0.59715568342E+03  0.44595619174E+03 0.  0.
         25    1    1    2    0    0 -0.38080802422E+01 -0.54012305786E+02 -0.13490812215E+03  0.19177992641E+03  0.12509000000E+03 0.  0.
         25    1    3    3    0    0 -0.81887227465E+02 -0.40147757948E+02 -0.38893698921E+03  0.41861300764E+03  0.12509000000E+03 0.  0.
         25    1    3    3    0    0  0.85695307708E+02  0.94160063734E+02 -0.44917268807E+01  0.17854267578E+03  0.12509000000E+03 0.  0.
<mgrwt>
<rscale>  2 0.58590066E+03</rscale>
<asrwt>0</asrwt>
<pdfrwt beam="1">  1       21 0.19161674E-01 0.58590066E+03</pdfrwt>
<pdfrwt beam="2">  1       21 0.96858269E-01 0.58590066E+03</pdfrwt>
<totfact> 0.19334911E+04</totfact>
</mgrwt>
</event>
<event>
 6    0  0.9325672E-004  0.6972535E+03  0.7546771E-02  0.9721941E-01
         21   -1    0    0  502  501  0.00000000000E+00  0.00000000000E+00  0.33401195551E+03  0.33401195551E+03  0.00000000000E+00 0.  1.
         21   -1    0    0  501  502 -0.00000000000E+00 -0.00000000000E+00 -0.36388106328E+03  0.36388106328E+03  0.00000000000E+00 0.  1.
      99926    2    1    2    0    0 -0.69250075310E+02  0.13132850389E+03 -0.11052596143E+03  0.48766508295E+03  0.45117457388E+03 0.  0.
         25    1    3    3    0    0  0.91030892772E+02  0.20405148290E+03 -0.32750839893E+02  0.25815452103E+03  0.12509000000E+03 0.  0.
         25    1    3    3    0    0 -0.16028096808E+03 -0.72722979015E+02 -0.77775121534E+02  0.22951056193E+03  0.12509000000E+03 0.  0.
         25    1    1    2    0    0  0.69250075310E+02 -0.13132850389E+03  0.80656853653E+02  0.21022793583E+03  0.12509000000E+03 0.  0.
<mgrwt>
<rscale>  2 0.69725354E+03</rscale>
<asrwt>0</asrwt>
<pdfrwt beam="1">  1       21 0.49119406E-01 0.69725354E+03</pdfrwt>
<pdfrwt beam="2">  1       21 0.53511921E-01 0.69725354E+03</pdfrwt>
<totfact> 0.11065604E+04</totfact>
</mgrwt>
</event>
<event>
 6    0  0.9325672E-004  0.6774326E+03  0.7546771E-02  0.9756623E-01
         21   -1    0    0  502  501  0.00000000000E+00  0.00000000000E+00  0.85418880102E+03  0.85418880102E+03  0.00000000000E+00 0. -1.
         21   -1    0    0  501  502 -0.00000000000E+00 -0.00000000000E+00 -0.13431308437E+03  0.13431308437E+03  0.00000000000E+00 0. -1.
      99926    2    1    2    0    0  0.72063966150E+02  0.11531456710E+03  0.61188343754E+03  0.77449135983E+03  0.45491192632E+03 0.  0.
         25    1    3    3    0    0 -0.13749511044E+02  0.13031747559E+03  0.59399892164E+03  0.62101040290E+03  0.12509000000E+03 0.  0.
         25    1    3    3    0    0  0.85813477195E+02 -0.15002908493E+02  0.17884515900E+02  0.15348095693E+03  0.12509000000E+03 0.  0.
         25    1    1    2    0    0 -0.72063966150E+02 -0.11531456710E+03  0.10799227911E+03  0.21401052556E+03  0.12509000000E+03 0.  0.
<mgrwt>
<rscale>  2 0.67743260E+03</rscale>
<asrwt>0</asrwt>
<pdfrwt beam="1">  1       21 0.12561600E+00 0.67743260E+03</pdfrwt>
<pdfrwt beam="2">  1       21 0.19751925E-01 0.67743260E+03</pdfrwt>
<totfact> 0.93243780E+03</totfact>
</mgrwt>
</event>
<event>
 6    0  0.9325672E-004  0.6018171E+03  0.7546771E-02  0.9901643E-01
         21   -1    0    0  502  501  0.00000000000E+00  0.00000000000E+00  0.21982600247E+04  0.21982600247E+04  0.00000000000E+00 0. -1.
         21   -1    0    0  501  502 -0.00000000000E+00 -0.00000000000E+00 -0.41189827524E+02  0.41189827524E+02  0.00000000000E+00 0. -1.
      99926    2    1    2    0    0 -0.54149616207E+02 -0.81982849491E+01  0.15616628630E+04  0.16285842414E+04  0.45879880211E+03 0.  0.
         25    1    3    3    0    0  0.52555162622E+02 -0.56177925989E+02  0.16268936838E+03  0.21916510482E+03  0.12509000000E+03 0.  0.
         25    1    1    2    0    0  0.54149616207E+02  0.81982849491E+01  0.59540733421E+03  0.61086561087E+03  0.12509000000E+03 0.  0.
         25    1    3    3    0    0 -0.10670477883E+03  0.47979641040E+02  0.13989734946E+04  0.14094191366E+04  0.12509000000E+03 0.  0.
<mgrwt>
<rscale>  2 0.60181709E+03</rscale>
<asrwt>0</asrwt>
<pdfrwt beam="1">  1       21 0.32327345E+00 0.60181709E+03</pdfrwt>
<pdfrwt beam="2">  1       21 0.60573291E-02 0.60181709E+03</pdfrwt>
<totfact> 0.37448915E+03</totfact>
</mgrwt>
</event>
<event>
 6    0  0.9325672E-004  0.6880459E+03  0.7546771E-02  0.9737897E-01
         21   -1    0    0  502  501  0.00000000000E+00  0.00000000000E+00  0.24705917213E+03  0.24705917213E+03  0.00000000000E+00 0. -1.
         21   -1    0    0  501  502 -0.00000000000E+00 -0.00000000000E+00 -0.47904223334E+03  0.47904223334E+03  0.00000000000E+00 0. -1.
      99926    2    1    2    0    0 -0.18174938312E+03  0.80680006073E+02 -0.20302210527E+03  0.48939832835E+03  0.39843524809E+03 0.  0.
         25    1    3    3    0    0 -0.25904427340E+03  0.67712317249E+02 -0.15776349762E+03  0.33500107876E+03  0.12509000000E+03 0.  0.
         25    1    1    2    0    0  0.18174938312E+03 -0.80680006073E+02 -0.28960955935E+02  0.23670307711E+03  0.12509000000E+03 0.  0.
         25    1    3    3    0    0  0.77294890277E+02  0.12967688824E+02 -0.45258607652E+02  0.15439724960E+03  0.12509000000E+03 0.  0.
<mgrwt>
<rscale>  2 0.68804586E+03</rscale>
<asrwt>0</asrwt>
<pdfrwt beam="1">  1       21 0.36332232E-01 0.68804586E+03</pdfrwt>
<pdfrwt beam="2">  1       21 0.70447385E-01 0.68804586E+03</pdfrwt>
<totfact> 0.11318745E+04</totfact>
</mgrwt>
</event>
<event>
 6    0  0.9325672E-004  0.6455358E+03  0.7546771E-02  0.9815192E-01
         21   -1    0    0  502  501  0.00000000000E+00  0.00000000000E+00  0.16881906640E+03  0.16881906640E+03  0.00000000000E+00 0. -1.
         21   -1    0    0  501  502 -0.00000000000E+00 -0.00000000000E+00 -0.61710523627E+03  0.61710523627E+03  0.00000000000E+00 0. -1.
      99926    2    1    2    0    0 -0.39651930776E+02 -0.12440090961E+03 -0.29824676875E+03  0.55096219526E+03  0.44447760755E+03 0.  0.
         25    1    3    3    0    0 -0.73606925225E+02 -0.11383127631E+03  0.39857016951E+02  0.18871043640E+03  0.12509000000E+03 0.  0.
         25    1    1    2    0    0  0.39651930776E+02  0.12440090961E+03 -0.15003940112E+03  0.23496210740E+03  0.12509000000E+03 0.  0.
         25    1    3    3    0    0  0.33954994449E+02 -0.10569633306E+02 -0.33810378570E+03  0.36225175886E+03  0.12509000000E+03 0.  0.
<mgrwt>
<rscale>  2 0.64553584E+03</rscale>
<asrwt>0</asrwt>
<pdfrwt beam="1">  1       21 0.24826334E-01 0.64553584E+03</pdfrwt>
<pdfrwt beam="2">  1       21 0.90750769E-01 0.64553584E+03</pdfrwt>
<totfact> 0.13553534E+04</totfact>
</mgrwt>
</event>
<event>
 6    0  0.9325672E-004  0.5891482E+03  0.7546771E-02  0.9928179E-01
         21   -1    0    0  502  501  0.00000000000E+00  0.00000000000E+00  0.59809151935E+03  0.59809151935E+03  0.00000000000E+00 0. -1.
         21   -1    0    0  501  502 -0.00000000000E+00 -0.00000000000E+00 -0.14508467256E+03  0.14508467256E+03  0.00000000000E+00 0. -1.
      99926    2    1    2    0    0  0.48937528307E+02  0.55784607741E+01  0.30690879191E+03  0.54463614395E+03  0.44722424112E+03 0.  0.
         25    1    3    3    0    0  0.12414275745E+03  0.14878815692E+03  0.92923382716E+02  0.24865961277E+03  0.12509000000E+03 0.  0.
         25    1    1    2    0    0 -0.48937528307E+02 -0.55784607741E+01  0.14609805489E+03  0.19854004796E+03  0.12509000000E+03 0.  0.
         25    1    3    3    0    0 -0.75205229142E+02 -0.14320969615E+03  0.21398540919E+03  0.29597653118E+03  0.12509000000E+03 0.  0.
<mgrwt>
<rscale>  2 0.58914824E+03</rscale>
<asrwt>0</asrwt>
<pdfrwt beam="1">  1       21 0.87954634E-01 0.58914824E+03</pdfrwt>
<pdfrwt beam="2">  1       21 0.21335982E-01 0.58914824E+03</pdfrwt>
<totfact> 0.19817082E+04</totfact>
</mgrwt>
</event>
<event>
 6    0  0.9325672E-004  0.7024314E+03  0.7546771E-02  0.9713083E-01
         21   -1    0    0  502  501  0.00000000000E+00  0.00000000000E+00  0.62882054936E+03  0.62882054936E+03  0.00000000000E+00 0.  1.
         21   -1    0    0  501  502 -0.00000000000E+00 -0.00000000000E+00 -0.19616480525E+03  0.19616480525E+03  0.00000000000E+00 0.  1.
      99926    2    1    2    0    0 -0.11580286968E+03  0.95743205172E+02  0.40823129605E+03  0.62795457599E+03  0.45287646491E+03 0.  0.
         25    1    3    3    0    0  0.41162138266E+02 -0.82521322364E+02  0.30125397945E+03  0.33897722417E+03  0.12509000000E+03 0.  0.
         25    1    3    3    0    0 -0.15696500795E+03  0.17826452754E+03  0.10697731660E+03  0.28897735182E+03  0.12509000000E+03 0.  0.
         25    1    1    2    0    0  0.11580286968E+03 -0.95743205172E+02  0.24424448056E+02  0.19703077862E+03  0.12509000000E+03 0.  0.
<mgrwt>
<rscale>  2 0.70243138E+03</rscale>
<asrwt>0</asrwt>
<pdfrwt beam="1">  1       21 0.92473609E-01 0.70243138E+03</pdfrwt>
<pdfrwt beam="2">  1       21 0.28847766E-01 0.70243138E+03</pdfrwt>
<totfact> 0.95241174E+03</totfact>
</mgrwt>
</event>
<event>
 6    0  0.9325672E-004  0.8732683E+03  0.7546771E-02  0.9459628E-01
         21   -1    0    0  502  501  0.00000000000E+00  0.00000000000E+00  0.18684053407E+03  0.18684053407E+03  0.00000000000E+00 0.  1.
         21   -1    0    0  501  502 -0.00000000000E+00 -0.00000000000E+00 -0.10203854447E+04  0.10203854447E+04  0.00000000000E+00 0.  1.
      99926    2    1    2    0    0 -0.10406099858E+03  0.27730340493E+03 -0.47204993872E+03  0.72343677609E+03  0.46130657327E+03 0.  0.
         25    1    3    3    0    0  0.71901316537E+02 -0.33588489382E+02 -0.49592986384E+02  0.15622086396E+03  0.12509000000E+03 0.  0.
         25    1    1    2    0    0  0.10406099858E+03 -0.27730340493E+03 -0.36149497190E+03  0.48378920267E+03  0.12509000000E+03 0.  0.
         25    1    3    3    0    0 -0.17596231512E+03  0.31089189431E+03 -0.42245695233E+03  0.56721591212E+03  0.12509000000E+03 0.  0.
<mgrwt>
<rscale>  2 0.87326826E+03</rscale>
<asrwt>0</asrwt>
<pdfrwt beam="1">  1       21 0.27476550E-01 0.87326826E+03</pdfrwt>
<pdfrwt beam="2">  1       21 0.15005668E+00 0.87326826E+03</pdfrwt>
<totfact> 0.29226745E+03</totfact>
</mgrwt>
</event>
<event>
 6    0  0.9325672E-004  0.6160028E+03  0.7546771E-02  0.9872750E-01
         21   -1    0    0  502  501  0.00000000000E+00  0.00000000000E+00  0.95727101169E+03  0.95727101169E+03  0.00000000000E+00 0.  1.
         21   -1    0    0  501  502 -0.00000000000E+00 -0.00000000000E+00 -0.99099281479E+02  0.99099281479E+02  0.00000000000E+00 0.  1.
      99926    2    1    2    0    0  0.26775111953E+02  0.24717322881E+02  0.78526930652E+03  0.90707151839E+03  0.45255165788E+03 0.  0.
         25    1    1    2    0    0 -0.26775111953E+02 -0.24717322881E+02  0.72902423700E+02  0.14929877478E+03  0.12509000000E+03 0.  0.
         25    1    3    3    0    0  0.10109355201E+03  0.31474891148E+02  0.71864248706E+02  0.17894846569E+03  0.12509000000E+03 0.  0.
         25    1    3    3    0    0 -0.74318440060E+02 -0.67575682665E+01  0.71340505781E+03  0.72812305270E+03  0.12509000000E+03 0.  0.
<mgrwt>
<rscale>  2 0.61600282E+03</rscale>
<asrwt>0</asrwt>
<pdfrwt beam="1">  1       21 0.14077514E+00 0.61600282E+03</pdfrwt>
<pdfrwt beam="2">  1       21 0.14573424E-01 0.61600282E+03</pdfrwt>
<totfact> 0.12411705E+04</totfact>
</mgrwt>
</event>
<event>
 6    0  0.9325672E-004  0.7803597E+03  0.7546771E-02  0.9588889E-01
         21   -1    0    0  502  501  0.00000000000E+00  0.00000000000E+00  0.11819067927E+04  0.11819067927E+04  0.00000000000E+00 0.  1.
         21   -1    0    0  501  502 -0.00000000000E+00 -0.00000000000E+00 -0.12880906996E+03  0.12880906996E+03  0.00000000000E+00 0.  1.
      99926    2    1    2    0    0 -0.10687100575E+03 -0.84707592521E+01  0.10456895360E+04  0.11458051142E+04  0.45597103895E+03 0.  0.
         25    1    3    3    0    0 -0.99771689308E+02 -0.34741726217E+02  0.10078189468E+03  0.19226511884E+03  0.12509000000E+03 0.  0.
         25    1    1    2    0    0  0.10687100575E+03  0.84707592521E+01  0.74081867517E+01  0.16491074848E+03  0.12509000000E+03 0.  0.
         25    1    3    3    0    0 -0.70993164459E+01  0.26270966965E+02  0.94490764132E+03  0.95353999535E+03  0.12509000000E+03 0.  0.
<mgrwt>
<rscale>  2 0.78035970E+03</rscale>
<asrwt>0</asrwt>
<pdfrwt beam="1">  1       21 0.17380982E+00 0.78035970E+03</pdfrwt>
<pdfrwt beam="2">  1       21 0.18942511E-01 0.78035970E+03</pdfrwt>
<totfact> 0.40455668E+03</totfact>
</mgrwt>
</event>
<event>
 6    0  0.9325672E-004  0.9442610E+03  0.7546771E-02  0.9371884E-01
         21   -1    0    0  502  501  0.00000000000E+00  0.00000000000E+00  0.76929890354E+03  0.76929890354E+03  0.00000000000E+00 0.  1.
         21   -1    0    0  501  502 -0.00000000000E+00 -0.00000000000E+00 -0.28975370050E+03  0.28975370050E+03  0.00000000000E+00 0.  1.
      99926    2    1    2    0    0  0.57906988994E+02  0.34662248155E+03  0.12269499575E+03  0.54282596522E+03  0.39510201523E+03 0.  0.
         25    1    3    3    0    0 -0.11874882081E+03  0.11639405444E+03  0.13613358298E+02  0.20852263661E+03  0.12509000000E+03 0.  0.
         25    1    3    3    0    0  0.17665580981E+03  0.23022842711E+03  0.10908163745E+03  0.33430332861E+03  0.12509000000E+03 0.  0.
         25    1    1    2    0    0 -0.57906988994E+02 -0.34662248155E+03  0.35685020729E+03  0.51622663882E+03  0.12509000000E+03 0.  0.
<mgrwt>
<rscale>  2 0.94426099E+03</rscale>
<asrwt>0</asrwt>
<pdfrwt beam="1">  1       21 0.11313219E+00 0.94426099E+03</pdfrwt>
<pdfrwt beam="2">  1       21 0.42610839E-01 0.94426099E+03</pdfrwt>
<totfact> 0.24880249E+03</totfact>
</mgrwt>
</event>
<event>
 6    0  0.9325672E-004  0.8524481E+03  0.7546771E-02  0.9487057E-01
         21   -1    0    0  502  501  0.00000000000E+00  0.00000000000E+00  0.16384024436E+04  0.16384024436E+04  0.00000000000E+00 0. -1.
         21   -1    0    0  501  502 -0.00000000000E+00 -0.00000000000E+00 -0.11088054149E+03  0.11088054149E+03  0.00000000000E+00 0. -1.
      99926    2    1    2    0    0 -0.16501558058E+03  0.24620688747E+03  0.97203592322E+03  0.11073638670E+04  0.43994650212E+03 0.  0.
         25    1    3    3    0    0 -0.39146142919E+01 -0.40904028217E+02  0.50817184296E+03  0.52495199190E+03  0.12509000000E+03 0.  0.
         25    1    3    3    0    0 -0.16110096628E+03  0.28711091568E+03  0.46386408027E+03  0.58241187514E+03  0.12509000000E+03 0.  0.
         25    1    1    2    0    0  0.16501558058E+03 -0.24620688747E+03  0.55548597890E+03  0.64191911805E+03  0.12509000000E+03 0.  0.
<mgrwt>
<rscale>  2 0.85244812E+03</rscale>
<asrwt>0</asrwt>
<pdfrwt beam="1">  1       21 0.24094152E+00 0.85244812E+03</pdfrwt>
<pdfrwt beam="2">  1       21 0.16305963E-01 0.85244812E+03</pdfrwt>
<totfact> 0.18616340E+03</totfact>
</mgrwt>
</event>
<event>
 6    0  0.9325672E-004  0.6268079E+03  0.7546771E-02  0.9851298E-01
         21   -1    0    0  502  501  0.00000000000E+00  0.00000000000E+00  0.33209534596E+03  0.33209534596E+03  0.00000000000E+00 0. -1.
         21   -1    0    0  501  502 -0.00000000000E+00 -0.00000000000E+00 -0.29576458157E+03  0.29576458157E+03  0.00000000000E+00 0. -1.
      99926    2    1    2    0    0  0.31571512785E+02 -0.97496362433E+02  0.49739760397E+02  0.46559591310E+03  0.45144568823E+03 0.  0.
         25    1    3    3    0    0 -0.26621036035E+02  0.11494216824E+03  0.11141032858E+03  0.20489058302E+03  0.12509000000E+03 0.  0.
         25    1    1    2    0    0 -0.31571512785E+02  0.97496362433E+02 -0.13408996006E+02  0.16226401444E+03  0.12509000000E+03 0.  0.
         25    1    3    3    0    0  0.58192548821E+02 -0.21243853067E+03 -0.61670568179E+02  0.26070533008E+03  0.12509000000E+03 0.  0.
<mgrwt>
<rscale>  2 0.62680792E+03</rscale>
<asrwt>0</asrwt>
<pdfrwt beam="1">  1       21 0.48837551E-01 0.62680792E+03</pdfrwt>
<pdfrwt beam="2">  1       21 0.43494791E-01 0.62680792E+03</pdfrwt>
<totfact> 0.17660947E+04</totfact>
</mgrwt>
</event>
<event>
 6    0  0.9325672E-004  0.5448744E+03  0.7546771E-02  0.1002687E+00
         21   -1    0    0  502  501  0.00000000000E+00  0.00000000000E+00  0.83841285220E+03  0.83841285220E+03  0.00000000000E+00 0. -1.
         21   -1    0    0  501  502 -0.00000000000E+00 -0.00000000000E+00 -0.88526832898E+02  0.88526832898E+02  0.00000000000E+00 0. -1.
      99926    2    1    2    0    0  0.26945328591E+02 -0.98533712436E+01  0.32427161474E+03  0.48239692098E+03  0.35599377746E+03 0.  0.
         25    1    3    3    0    0 -0.52288936817E+02 -0.11227737316E+03  0.17896874839E+03  0.25103318991E+03  0.12509000000E+03 0.  0.
         25    1    1    2    0    0 -0.26945328591E+02  0.98533712436E+01  0.42561440456E+03  0.44454276412E+03  0.12509000000E+03 0.  0.
         25    1    3    3    0    0  0.79234265408E+02  0.10242400192E+03  0.14530286635E+03  0.23136373107E+03  0.12509000000E+03 0.  0.
<mgrwt>
<rscale>  2 0.54487442E+03</rscale>
<asrwt>0</asrwt>
<pdfrwt beam="1">  1       21 0.12329600E+00 0.54487442E+03</pdfrwt>
<pdfrwt beam="2">  1       21 0.13018652E-01 0.54487442E+03</pdfrwt>
<totfact> 0.22016720E+04</totfact>
</mgrwt>
</event>
<event>
 6    0  0.9325672E-004  0.5811018E+03  0.7546771E-02  0.9945408E-01
         21   -1    0    0  502  501  0.00000000000E+00  0.00000000000E+00  0.75592662957E+02  0.75592662957E+02  0.00000000000E+00 0.  1.
         21   -1    0    0  501  502 -0.00000000000E+00 -0.00000000000E+00 -0.11167728834E+04  0.11167728834E+04  0.00000000000E+00 0.  1.
      99926    2    1    2    0    0 -0.46067367610E+02  0.43660398557E+02 -0.69708538040E+03  0.82077814102E+03  0.42862605666E+03 0.  0.
         25    1    1    2    0    0  0.46067367610E+02 -0.43660398557E+02 -0.34409484004E+03  0.37158740533E+03  0.12509000000E+03 0.  0.
         25    1    3    3    0    0 -0.15597782357E+03 -0.57136929610E+02 -0.20681323146E+03  0.29327961228E+03  0.12509000000E+03 0.  0.
         25    1    3    3    0    0  0.10991045596E+03  0.10079732817E+03 -0.49027214895E+03  0.52749852875E+03  0.12509000000E+03 0.  0.
<mgrwt>
<rscale>  2 0.58110184E+03</rscale>
<asrwt>0</asrwt>
<pdfrwt beam="1">  1       21 0.11116568E-01 0.58110184E+03</pdfrwt>
<pdfrwt beam="2">  1       21 0.16423130E+00 0.58110184E+03</pdfrwt>
<totfact> 0.13462367E+04</totfact>
</mgrwt>
</event>
