<event>
 7    0  0.4712189E-002  0.4564836E+03  0.7546771E-02  0.1025806E+00
         21   -1    0    0  502  501  0.00000000000E+00  0.00000000000E+00  0.11813816453E+04  0.11813816453E+04  0.00000000000E+00 0.  1.
         21   -1    0    0  501  502 -0.00000000000E+00 -0.00000000000E+00 -0.44096098496E+02  0.44096098496E+02  0.00000000000E+00 0.  1.
      99926    2    1    2    0    0  0.00000000000E+00  0.00000000000E+00  0.11372855469E+04  0.12254777438E+04  0.45648360932E+03 0.  0.
      99925    2    3    3    0    0  0.90201321231E+01  0.10329324536E+03  0.58522035433E+03  0.65000025322E+03  0.26318550253E+03 0.  0.
         25    1    3    3    0    0 -0.90201321231E+01 -0.10329324536E+03  0.55206519252E+03  0.57547749063E+03  0.12509000000E+03 0.  0.
         25    1    4    4    0    0 -0.14045698408E+02  0.25727302992E+02  0.20870243021E+03  0.24507833083E+03  0.12509000000E+03 0.  0.
         25    1    4    4    0    0  0.23065830531E+02  0.77565942372E+02  0.37651792412E+03  0.40492192239E+03  0.12509000000E+03 0.  0.
<mgrwt>
<rscale>  2 0.45648361E+03</rscale>
<asrwt>0</asrwt>
<pdfrwt beam="1">  1       21 0.17373257E+00 0.45648361E+03</pdfrwt>
<pdfrwt beam="2">  1       21 0.64847211E-02 0.45648361E+03</pdfrwt>
<totfact> 0.30998446E+04</totfact>
</mgrwt>
</event>
<event>
 7    0  0.4712189E-002  0.4533191E+03  0.7546771E-02  0.1026737E+00
         21   -1    0    0  502  501  0.00000000000E+00  0.00000000000E+00  0.98266069050E+03  0.98266069050E+03  0.00000000000E+00 0. -1.
         21   -1    0    0  501  502 -0.00000000000E+00 -0.00000000000E+00 -0.52281064409E+02  0.52281064409E+02  0.00000000000E+00 0. -1.
      99926    2    1    2    0    0  0.00000000000E+00  0.00000000000E+00  0.93037962609E+03  0.10349417549E+04  0.45331907902E+03 0.  0.
      99925    2    3    3    0    0  0.84255461218E+02  0.73071585797E+02  0.57092134143E+03  0.63833589778E+03  0.26283664299E+03 0.  0.
         25    1    4    4    0    0  0.81592457767E+02  0.32366824587E+02  0.33492329907E+03  0.36813864896E+03  0.12509000000E+03 0.  0.
         25    1    3    3    0    0 -0.84255461218E+02 -0.73071585797E+02  0.35945828466E+03  0.39660585713E+03  0.12509000000E+03 0.  0.
         25    1    4    4    0    0  0.26630034514E+01  0.40704761210E+02  0.23599804235E+03  0.27019724882E+03  0.12509000000E+03 0.  0.
<mgrwt>
<rscale>  2 0.45331908E+03</rscale>
<asrwt>0</asrwt>
<pdfrwt beam="1">  1       21 0.14450891E+00 0.45331908E+03</pdfrwt>
<pdfrwt beam="2">  1       21 0.76883924E-02 0.45331908E+03</pdfrwt>
<totfact> 0.38335404E+04</totfact>
</mgrwt>
</event>
<event>
 7    0  0.4712189E-002  0.4545781E+03  0.7546771E-02  0.1026366E+00
         21   -1    0    0  502  501  0.00000000000E+00  0.00000000000E+00  0.25771714620E+03  0.25771714620E+03  0.00000000000E+00 0.  1.
         21   -1    0    0  501  502 -0.00000000000E+00 -0.00000000000E+00 -0.20045351392E+03  0.20045351392E+03  0.00000000000E+00 0.  1.
      99926    2    1    2    0    0  0.00000000000E+00 -0.71054273576E-14  0.57263632274E+02  0.45817066012E+03  0.45457807934E+03 0.  0.
      99925    2    3    3    0    0 -0.55104868017E+02 -0.40187092767E+02 -0.54483223893E+02  0.27710046139E+03  0.26299181568E+03 0.  0.
         25    1    4    4    0    0 -0.34894368301E+02  0.19792156818E+02 -0.21988709956E+02  0.13319293478E+03  0.12509000000E+03 0.  0.
         25    1    4    4    0    0 -0.20210499716E+02 -0.59979249584E+02 -0.32494513938E+02  0.14390752661E+03  0.12509000000E+03 0.  0.
         25    1    3    3    0    0  0.55104868017E+02  0.40187092767E+02  0.11174685617E+03  0.18107019873E+03  0.12509000000E+03 0.  0.
<mgrwt>
<rscale>  2 0.45457808E+03</rscale>
<asrwt>0</asrwt>
<pdfrwt beam="1">  1       21 0.37899580E-01 0.45457808E+03</pdfrwt>
<pdfrwt beam="2">  1       21 0.29478458E-01 0.45457808E+03</pdfrwt>
<totfact> 0.68544409E+04</totfact>
</mgrwt>
</event>
<event>
 7    0  0.4712189E-002  0.4531568E+03  0.7546771E-02  0.1026785E+00
         21   -1    0    0  502  501  0.00000000000E+00  0.00000000000E+00  0.99320108742E+03  0.99320108742E+03  0.00000000000E+00 0. -1.
         21   -1    0    0  501  502 -0.00000000000E+00 -0.00000000000E+00 -0.51689192580E+02  0.51689192580E+02  0.00000000000E+00 0. -1.
      99926    2    1    2    0    0 -0.17763568394E-14 -0.14210854715E-13  0.94151189484E+03  0.10448902800E+04  0.45315675998E+03 0.  0.
      99925    2    3    3    0    0  0.58323272838E+01  0.96879101441E+02  0.46616739624E+03  0.54387184044E+03  0.26280213310E+03 0.  0.
         25    1    4    4    0    0  0.20182915795E+02  0.87310743660E+02  0.25542296100E+03  0.29819274497E+03  0.12509000000E+03 0.  0.
         25    1    3    3    0    0 -0.58323272838E+01 -0.96879101441E+02  0.47534449859E+03  0.50101843956E+03  0.12509000000E+03 0.  0.
         25    1    4    4    0    0 -0.14350588511E+02  0.95683577809E+01  0.21074443525E+03  0.24567909547E+03  0.12509000000E+03 0.  0.
<mgrwt>
<rscale>  2 0.45315676E+03</rscale>
<asrwt>0</asrwt>
<pdfrwt beam="1">  1       21 0.14605897E+00 0.45315676E+03</pdfrwt>
<pdfrwt beam="2">  1       21 0.76013525E-02 0.45315676E+03</pdfrwt>
<totfact> 0.38009371E+04</totfact>
</mgrwt>
</event>
<event>
 7    0  0.4712189E-002  0.4749119E+03  0.7546771E-02  0.1020543E+00
         21   -1    0    0  502  501  0.00000000000E+00  0.00000000000E+00  0.11073140098E+04  0.11073140098E+04  0.00000000000E+00 0.  1.
         21   -1    0    0  501  502 -0.00000000000E+00 -0.00000000000E+00 -0.50920806540E+02  0.50920806540E+02  0.00000000000E+00 0.  1.
      99926    2    1    2    0    0  0.71054273576E-14  0.00000000000E+00  0.10563932033E+04  0.11582348163E+04  0.47491187592E+03 0.  0.
      99925    2    3    3    0    0  0.40252149851E+02  0.10719284710E+03  0.81017800150E+03  0.85926997608E+03  0.26238512846E+03 0.  0.
         25    1    4    4    0    0  0.43875654983E+02  0.75512988371E+02  0.36106900171E+03  0.39197655110E+03  0.12509000000E+03 0.  0.
         25    1    4    4    0    0 -0.36235051324E+01  0.31679858727E+02  0.44910899979E+03  0.46729342498E+03  0.12509000000E+03 0.  0.
         25    1    3    3    0    0 -0.40252149851E+02 -0.10719284710E+03  0.24621520176E+03  0.29896484027E+03  0.12509000000E+03 0.  0.
<mgrwt>
<rscale>  2 0.47491188E+03</rscale>
<asrwt>0</asrwt>
<pdfrwt beam="1">  1       21 0.16284028E+00 0.47491188E+03</pdfrwt>
<pdfrwt beam="2">  1       21 0.74883546E-02 0.47491188E+03</pdfrwt>
<totfact> 0.28776961E+04</totfact>
</mgrwt>
</event>
<event>
 7    0  0.4712189E-002  0.4560168E+03  0.7546771E-02  0.1025943E+00
         21   -1    0    0  502  501  0.00000000000E+00  0.00000000000E+00  0.16170755293E+03  0.16170755293E+03  0.00000000000E+00 0. -1.
         21   -1    0    0  501  502 -0.00000000000E+00 -0.00000000000E+00 -0.32149292215E+03  0.32149292215E+03  0.00000000000E+00 0. -1.
      99926    2    1    2    0    0 -0.71054273576E-14  0.14210854715E-13 -0.15978536922E+03  0.48320047508E+03  0.45601681427E+03 0.  0.
      99925    2    3    3    0    0 -0.40390383887E+02  0.81087842685E+02 -0.17401462655E+03  0.32809856920E+03  0.26298471346E+03 0.  0.
         25    1    4    4    0    0 -0.43392479726E+02  0.40826738401E+02 -0.49752877705E+02  0.14721612278E+03  0.12509000000E+03 0.  0.
         25    1    4    4    0    0  0.30020958396E+01  0.40261104284E+02 -0.12426174885E+03  0.18088244642E+03  0.12509000000E+03 0.  0.
         25    1    3    3    0    0  0.40390383887E+02 -0.81087842685E+02  0.14229257334E+02  0.15510190588E+03  0.12509000000E+03 0.  0.
<mgrwt>
<rscale>  2 0.45601681E+03</rscale>
<asrwt>0</asrwt>
<pdfrwt beam="1">  1       21 0.23780523E-01 0.45601681E+03</pdfrwt>
<pdfrwt beam="2">  1       21 0.47278370E-01 0.45601681E+03</pdfrwt>
<totfact> 0.65934065E+04</totfact>
</mgrwt>
</event>
<event>
 7    0  0.4712189E-002  0.4550232E+03  0.7546771E-02  0.1026235E+00
         21   -1    0    0  502  501  0.00000000000E+00  0.00000000000E+00  0.38843223385E+03  0.38843223385E+03  0.00000000000E+00 0.  1.
         21   -1    0    0  501  502 -0.00000000000E+00 -0.00000000000E+00 -0.13325752179E+03  0.13325752179E+03  0.00000000000E+00 0.  1.
      99926    2    1    2    0    0 -0.71054273576E-14  0.71054273576E-14  0.25517471205E+03  0.52168975564E+03  0.45502315048E+03 0.  0.
      99925    2    3    3    0    0  0.63078004982E+02 -0.61340402219E+02  0.24220066726E+03  0.36820583598E+03  0.26300740440E+03 0.  0.
         25    1    4    4    0    0  0.34032500622E+02 -0.71955156438E+02  0.12240684006E+03  0.19226725730E+03  0.12509000000E+03 0.  0.
         25    1    3    3    0    0 -0.63078004982E+02  0.61340402219E+02  0.12974044790E+02  0.15348391966E+03  0.12509000000E+03 0.  0.
         25    1    4    4    0    0  0.29045504360E+02  0.10614754219E+02  0.11979382720E+03  0.17593857868E+03  0.12509000000E+03 0.  0.
<mgrwt>
<rscale>  2 0.45502315E+03</rscale>
<asrwt>0</asrwt>
<pdfrwt beam="1">  1       21 0.57122387E-01 0.45502315E+03</pdfrwt>
<pdfrwt beam="2">  1       21 0.19596694E-01 0.45502315E+03</pdfrwt>
<totfact> 0.63760559E+04</totfact>
</mgrwt>
</event>
<event>
 7    0  0.4712189E-002  0.4394543E+03  0.7546771E-02  0.1030914E+00
         21   -1    0    0  502  501  0.00000000000E+00  0.00000000000E+00  0.50365162088E+02  0.50365162088E+02  0.00000000000E+00 0.  1.
         21   -1    0    0  501  502 -0.00000000000E+00 -0.00000000000E+00 -0.95859971297E+03  0.95859971297E+03  0.00000000000E+00 0.  1.
      99926    2    1    2    0    0  0.00000000000E+00 -0.26645352591E-14 -0.90823455088E+03  0.10089648751E+04  0.43945434312E+03 0.  0.
      99925    2    3    3    0    0  0.46111603970E+02 -0.15747194916E+01 -0.38167337140E+03  0.46578631915E+03  0.26297066929E+03 0.  0.
         25    1    4    4    0    0  0.36340498445E+02  0.36952037174E+02 -0.20542754224E+03  0.24603672102E+03  0.12509000000E+03 0.  0.
         25    1    3    3    0    0 -0.46111603970E+02  0.15747194916E+01 -0.52656117948E+03  0.54317855591E+03  0.12509000000E+03 0.  0.
         25    1    4    4    0    0  0.97711055252E+01 -0.38526756666E+02 -0.17624582916E+03  0.21974959813E+03  0.12509000000E+03 0.  0.
<mgrwt>
<rscale>  2 0.43945434E+03</rscale>
<asrwt>0</asrwt>
<pdfrwt beam="1">  1       21 0.74066409E-02 0.43945434E+03</pdfrwt>
<pdfrwt beam="2">  1       21 0.14097056E+00 0.43945434E+03</pdfrwt>
<totfact> 0.43913326E+04</totfact>
</mgrwt>
</event>
<event>
 7    0  0.4712189E-002  0.4566378E+03  0.7546771E-02  0.1025761E+00
         21   -1    0    0  502  501  0.00000000000E+00  0.00000000000E+00  0.50739279810E+03  0.50739279810E+03  0.00000000000E+00 0. -1.
         21   -1    0    0  501  502 -0.00000000000E+00 -0.00000000000E+00 -0.10273995511E+03  0.10273995511E+03  0.00000000000E+00 0. -1.
      99926    2    1    2    0    0  0.00000000000E+00  0.00000000000E+00  0.40465284299E+03  0.61013275321E+03  0.45663777024E+03 0.  0.
      99925    2    3    3    0    0 -0.10792442494E+03 -0.28013032256E+02  0.21920671339E+03  0.36019238721E+03  0.26316261348E+03 0.  0.
         25    1    4    4    0    0 -0.22596281498E+02  0.10476302030E+01  0.13109737759E+03  0.18260810490E+03  0.12509000000E+03 0.  0.
         25    1    4    4    0    0 -0.85328143446E+02 -0.29060662459E+02  0.88109335805E+02  0.17758428231E+03  0.12509000000E+03 0.  0.
         25    1    3    3    0    0  0.10792442494E+03  0.28013032256E+02  0.18544612960E+03  0.24994036600E+03  0.12509000000E+03 0.  0.
<mgrwt>
<rscale>  2 0.45663777E+03</rscale>
<asrwt>0</asrwt>
<pdfrwt beam="1">  1       21 0.74616587E-01 0.45663777E+03</pdfrwt>
<pdfrwt beam="2">  1       21 0.15108817E-01 0.45663777E+03</pdfrwt>
<totfact> 0.57313810E+04</totfact>
</mgrwt>
</event>
<event>
 7    0  0.4712189E-002  0.4259612E+03  0.7546771E-02  0.1035143E+00
         21   -1    0    0  502  501  0.00000000000E+00  0.00000000000E+00  0.18332876611E+03  0.18332876611E+03  0.00000000000E+00 0.  1.
         21   -1    0    0  501  502 -0.00000000000E+00 -0.00000000000E+00 -0.24742837180E+03  0.24742837180E+03  0.00000000000E+00 0.  1.
      99926    2    1    2    0    0  0.71054273576E-14  0.71054273576E-14 -0.64099605691E+02  0.43075713791E+03  0.42596120998E+03 0.  0.
      99925    2    3    3    0    0  0.51747952560E+02  0.38506169458E+02  0.10874317600E+02  0.27129186597E+03  0.26328777047E+03 0.  0.
         25    1    3    3    0    0 -0.51747952560E+02 -0.38506169458E+02 -0.74973923291E+02  0.15946527194E+03  0.12509000000E+03 0.  0.
         25    1    4    4    0    0  0.32644203452E+02 -0.17324050476E+02 -0.12457053458E+02  0.13102844357E+03  0.12509000000E+03 0.  0.
         25    1    4    4    0    0  0.19103749108E+02  0.55830219934E+02  0.23331371058E+02  0.14026342240E+03  0.12509000000E+03 0.  0.
<mgrwt>
<rscale>  2 0.42596121E+03</rscale>
<asrwt>0</asrwt>
<pdfrwt beam="1">  1       21 0.26960113E-01 0.42596121E+03</pdfrwt>
<pdfrwt beam="2">  1       21 0.36386525E-01 0.42596121E+03</pdfrwt>
<totfact> 0.89327154E+04</totfact>
</mgrwt>
</event>
<event>
 7    0  0.4712189E-002  0.4578552E+03  0.7546771E-02  0.1025405E+00
         21   -1    0    0  502  501  0.00000000000E+00  0.00000000000E+00  0.52299868240E+03  0.52299868240E+03  0.00000000000E+00 0. -1.
         21   -1    0    0  501  502 -0.00000000000E+00 -0.00000000000E+00 -0.10020645661E+03  0.10020645661E+03  0.00000000000E+00 0. -1.
      99926    2    1    2    0    0  0.00000000000E+00 -0.35527136788E-14  0.42279222578E+03  0.62320513901E+03  0.45785519447E+03 0.  0.
      99925    2    3    3    0    0 -0.11217283714E+03 -0.23339934183E+02  0.24279418564E+03  0.37587074901E+03  0.26306331075E+03 0.  0.
         25    1    4    4    0    0 -0.82531845976E+02 -0.39898302854E+02  0.15539335014E+03  0.21954038703E+03  0.12509000000E+03 0.  0.
         25    1    4    4    0    0 -0.29640991163E+02  0.16558368671E+02  0.87400835498E+02  0.15633036198E+03  0.12509000000E+03 0.  0.
         25    1    3    3    0    0  0.11217283714E+03  0.23339934183E+02  0.17999804015E+03  0.24733439000E+03  0.12509000000E+03 0.  0.
<mgrwt>
<rscale>  2 0.45785519E+03</rscale>
<asrwt>0</asrwt>
<pdfrwt beam="1">  1       21 0.76911570E-01 0.45785519E+03</pdfrwt>
<pdfrwt beam="2">  1       21 0.14736244E-01 0.45785519E+03</pdfrwt>
<totfact> 0.55999014E+04</totfact>
</mgrwt>
</event>
<event>
 7    0  0.4712189E-002  0.4510988E+03  0.7546771E-02  0.1027395E+00
         21   -1    0    0  502  501  0.00000000000E+00  0.00000000000E+00  0.88322805415E+02  0.88322805415E+02  0.00000000000E+00 0.  1.
         21   -1    0    0  501  502 -0.00000000000E+00 -0.00000000000E+00 -0.57598409945E+03  0.57598409945E+03  0.00000000000E+00 0.  1.
      99926    2    1    2    0    0  0.35527136788E-14  0.00000000000E+00 -0.48766129404E+03  0.66430690486E+03  0.45109879866E+03 0.  0.
      99925    2    3    3    0    0 -0.64385606522E+01  0.10428692494E+03 -0.35686632670E+03  0.45532831898E+03  0.26277953717E+03 0.  0.
         25    1    4    4    0    0 -0.35823800555E+02  0.36460149667E+02 -0.14272640992E+03  0.19654776363E+03  0.12509000000E+03 0.  0.
         25    1    3    3    0    0  0.64385606522E+01 -0.10428692494E+03 -0.13079496733E+03  0.20897858588E+03  0.12509000000E+03 0.  0.
         25    1    4    4    0    0  0.29385239902E+02  0.67826775276E+02 -0.21413991678E+03  0.25878055535E+03  0.12509000000E+03 0.  0.
<mgrwt>
<rscale>  2 0.45109880E+03</rscale>
<asrwt>0</asrwt>
<pdfrwt beam="1">  1       21 0.12988648E-01 0.45109880E+03</pdfrwt>
<pdfrwt beam="2">  1       21 0.84703546E-01 0.45109880E+03</pdfrwt>
<totfact> 0.56604871E+04</totfact>
</mgrwt>
</event>
<event>
 7    0  0.4712189E-002  0.4450785E+03  0.7546771E-02  0.1029200E+00
         21   -1    0    0  502  501  0.00000000000E+00  0.00000000000E+00  0.20725157982E+04  0.20725157982E+04  0.00000000000E+00 0.  1.
         21   -1    0    0  501  502 -0.00000000000E+00 -0.00000000000E+00 -0.23895456333E+02  0.23895456333E+02  0.00000000000E+00 0.  1.
      99926    2    1    2    0    0  0.00000000000E+00  0.00000000000E+00  0.20486203419E+04  0.20964112546E+04  0.44507846839E+03 0.  0.
      99925    2    3    3    0    0  0.46259806666E+02 -0.15828193799E+02  0.87098390645E+03  0.91114099693E+03  0.26301036018E+03 0.  0.
         25    1    3    3    0    0 -0.46259806666E+02  0.15828193799E+02  0.11776364354E+04  0.11852702576E+04  0.12509000000E+03 0.  0.
         25    1    4    4    0    0  0.60487201599E+02 -0.78288434832E+01  0.51472789265E+03  0.53320943720E+03  0.12509000000E+03 0.  0.
         25    1    4    4    0    0 -0.14227394933E+02 -0.79993503160E+01  0.35625601380E+03  0.37793155973E+03  0.12509000000E+03 0.  0.
<mgrwt>
<rscale>  2 0.44507847E+03</rscale>
<asrwt>0</asrwt>
<pdfrwt beam="1">  1       21 0.30478161E+00 0.44507847E+03</pdfrwt>
<pdfrwt beam="2">  1       21 0.35140391E-02 0.44507847E+03</pdfrwt>
<totfact> 0.13185727E+04</totfact>
</mgrwt>
</event>
<event>
 7    0  0.4712189E-002  0.4546862E+03  0.7546771E-02  0.1026334E+00
         21   -1    0    0  502  501  0.00000000000E+00  0.00000000000E+00  0.13322645787E+03  0.13322645787E+03  0.00000000000E+00 0.  1.
         21   -1    0    0  501  502 -0.00000000000E+00 -0.00000000000E+00 -0.38794761122E+03  0.38794761122E+03  0.00000000000E+00 0.  1.
      99926    2    1    2    0    0  0.00000000000E+00  0.71054273576E-14 -0.25472115335E+03  0.52117406909E+03  0.45468620424E+03 0.  0.
      99925    2    3    3    0    0 -0.82728151074E+02  0.62951186988E+02 -0.11005303627E+03  0.30349731075E+03  0.26304400376E+03 0.  0.
         25    1    3    3    0    0  0.82728151074E+02 -0.62951186988E+02 -0.14466811708E+03  0.21767675834E+03  0.12509000000E+03 0.  0.
         25    1    4    4    0    0 -0.79417147455E+02  0.42529886318E+02 -0.42846984042E+02  0.15999764586E+03  0.12509000000E+03 0.  0.
         25    1    4    4    0    0 -0.33110036192E+01  0.20421300670E+02 -0.67206052230E+02  0.14349966489E+03  0.12509000000E+03 0.  0.
<mgrwt>
<rscale>  2 0.45468620E+03</rscale>
<asrwt>0</asrwt>
<pdfrwt beam="1">  1       21 0.19592127E-01 0.45468620E+03</pdfrwt>
<pdfrwt beam="2">  1       21 0.57051118E-01 0.45468620E+03</pdfrwt>
<totfact> 0.63966428E+04</totfact>
</mgrwt>
</event>
<event>
 7    0  0.4712189E-002  0.4553597E+03  0.7546771E-02  0.1026136E+00
         21   -1    0    0  502  501  0.00000000000E+00  0.00000000000E+00  0.24420764792E+03  0.24420764792E+03  0.00000000000E+00 0. -1.
         21   -1    0    0  501  502 -0.00000000000E+00 -0.00000000000E+00 -0.21227066816E+03  0.21227066816E+03  0.00000000000E+00 0. -1.
      99926    2    1    2    0    0  0.00000000000E+00  0.00000000000E+00  0.31936979756E+02  0.45647831608E+03  0.45535972854E+03 0.  0.
      99925    2    3    3    0    0 -0.99174884075E+02  0.22417545677E+02 -0.28649156826E+02  0.28426800271E+03  0.26391157457E+03 0.  0.
         25    1    4    4    0    0 -0.37204773200E+02  0.40185802947E+01  0.26175178104E+02  0.13316528146E+03  0.12509000000E+03 0.  0.
         25    1    4    4    0    0 -0.61970110875E+02  0.18398965383E+02 -0.54824334930E+02  0.15110272125E+03  0.12509000000E+03 0.  0.
         25    1    3    3    0    0  0.99174884075E+02 -0.22417545677E+02  0.60586136583E+02  0.17221031337E+03  0.12509000000E+03 0.  0.
<mgrwt>
<rscale>  2 0.45535973E+03</rscale>
<asrwt>0</asrwt>
<pdfrwt beam="1">  1       21 0.35912889E-01 0.45535973E+03</pdfrwt>
<pdfrwt beam="2">  1       21 0.31216275E-01 0.45535973E+03</pdfrwt>
<totfact> 0.68241588E+04</totfact>
</mgrwt>
</event>
<event>
 7    0  0.4712189E-002  0.4536901E+03  0.7546771E-02  0.1026627E+00
         21   -1    0    0  502  501  0.00000000000E+00  0.00000000000E+00  0.11989240016E+03  0.11989240016E+03  0.00000000000E+00 0. -1.
         21   -1    0    0  501  502 -0.00000000000E+00 -0.00000000000E+00 -0.42920711627E+03  0.42920711627E+03  0.00000000000E+00 0. -1.
      99926    2    1    2    0    0  0.00000000000E+00  0.00000000000E+00 -0.30931471611E+03  0.54909951643E+03  0.45369007631E+03 0.  0.
      99925    2    3    3    0    0 -0.62480120695E+02  0.19969295955E+02 -0.85085930933E+02  0.28409273451E+03  0.26299530014E+03 0.  0.
         25    1    4    4    0    0 -0.52073046428E+02 -0.18073184169E+02 -0.21658590641E+02  0.13840102889E+03  0.12509000000E+03 0.  0.
         25    1    3    3    0    0  0.62480120695E+02 -0.19969295955E+02 -0.22422878518E+03  0.26500678192E+03  0.12509000000E+03 0.  0.
         25    1    4    4    0    0 -0.10407074267E+02  0.38042480124E+02 -0.63427340293E+02  0.14569170562E+03  0.12509000000E+03 0.  0.
<mgrwt>
<rscale>  2 0.45369008E+03</rscale>
<asrwt>0</asrwt>
<pdfrwt beam="1">  1       21 0.17631235E-01 0.45369008E+03</pdfrwt>
<pdfrwt beam="2">  1       21 0.63118694E-01 0.45369008E+03</pdfrwt>
<totfact> 0.62572047E+04</totfact>
</mgrwt>
</event>
<event>
 7    0  0.4712189E-002  0.4530586E+03  0.7546771E-02  0.1026814E+00
         21   -1    0    0  502  501  0.00000000000E+00  0.00000000000E+00  0.13510074278E+03  0.13510074278E+03  0.00000000000E+00 0. -1.
         21   -1    0    0  501  502 -0.00000000000E+00 -0.00000000000E+00 -0.37983149457E+03  0.37983149457E+03  0.00000000000E+00 0. -1.
      99926    2    1    2    0    0  0.00000000000E+00  0.00000000000E+00 -0.24473075179E+03  0.51493223735E+03  0.45305857038E+03 0.  0.
      99925    2    3    3    0    0 -0.28880322930E+02 -0.30778365710E+02 -0.27164231286E+03  0.38019871863E+03  0.26264070260E+03 0.  0.
         25    1    4    4    0    0 -0.13051381065E+02  0.21336318893E+01 -0.82197103728E+02  0.15026231362E+03  0.12509000000E+03 0.  0.
         25    1    3    3    0    0  0.28880322930E+02  0.30778365710E+02  0.26911561073E+02  0.13473351872E+03  0.12509000000E+03 0.  0.
         25    1    4    4    0    0 -0.15828941865E+02 -0.32911997599E+02 -0.18944520913E+03  0.22993640501E+03  0.12509000000E+03 0.  0.
<mgrwt>
<rscale>  2 0.45305857E+03</rscale>
<asrwt>0</asrwt>
<pdfrwt beam="1">  1       21 0.19867756E-01 0.45305857E+03</pdfrwt>
<pdfrwt beam="2">  1       21 0.55857572E-01 0.45305857E+03</pdfrwt>
<totfact> 0.65232984E+04</totfact>
</mgrwt>
</event>
<event>
 7    0  0.4712189E-002  0.4498828E+03  0.7546771E-02  0.1027757E+00
         21   -1    0    0  502  501  0.00000000000E+00  0.00000000000E+00  0.13518961925E+03  0.13518961925E+03  0.00000000000E+00 0.  1.
         21   -1    0    0  501  502 -0.00000000000E+00 -0.00000000000E+00 -0.37427898209E+03  0.37427898209E+03  0.00000000000E+00 0.  1.
      99926    2    1    2    0    0 -0.35527136788E-14  0.00000000000E+00 -0.23908936284E+03  0.50946860133E+03  0.44988279843E+03 0.  0.
      99925    2    3    3    0    0 -0.20981769213E+02  0.67544464553E+02 -0.24398322198E+03  0.36568422357E+03  0.26304875866E+03 0.  0.
         25    1    4    4    0    0 -0.41820804631E+02  0.86448583931E+01 -0.12832533385E+03  0.18422435421E+03  0.12509000000E+03 0.  0.
         25    1    3    3    0    0  0.20981769213E+02 -0.67544464553E+02  0.48938591368E+01  0.14378437776E+03  0.12509000000E+03 0.  0.
         25    1    4    4    0    0  0.20839035418E+02  0.58899606160E+02 -0.11565788813E+03  0.18145986936E+03  0.12509000000E+03 0.  0.
<mgrwt>
<rscale>  2 0.44988280E+03</rscale>
<asrwt>0</asrwt>
<pdfrwt beam="1">  1       21 0.19880827E-01 0.44988280E+03</pdfrwt>
<pdfrwt beam="2">  1       21 0.55041026E-01 0.44988280E+03</pdfrwt>
<totfact> 0.67302262E+04</totfact>
</mgrwt>
</event>
<event>
 7    0  0.4712189E-002  0.4574041E+03  0.7546771E-02  0.1025537E+00
         21   -1    0    0  502  501  0.00000000000E+00  0.00000000000E+00  0.28037681785E+03  0.28037681785E+03  0.00000000000E+00 0.  1.
         21   -1    0    0  501  502 -0.00000000000E+00 -0.00000000000E+00 -0.18655118655E+03  0.18655118655E+03  0.00000000000E+00 0.  1.
      99926    2    1    2    0    0  0.14210854715E-13  0.00000000000E+00  0.93825631304E+02  0.46692800440E+03  0.45740410165E+03 0.  0.
      99925    2    3    3    0    0  0.10923060428E+03  0.11576263864E+02  0.95086707366E+02  0.30045147990E+03  0.26299101707E+03 0.  0.
         25    1    3    3    0    0 -0.10923060428E+03 -0.11576263864E+02 -0.12610760618E+01  0.16647652450E+03  0.12509000000E+03 0.  0.
         25    1    4    4    0    0  0.16176540873E+02  0.24264889693E+02  0.47606170727E+02  0.13698292207E+03  0.12509000000E+03 0.  0.
         25    1    4    4    0    0  0.93054063405E+02 -0.12688625829E+02  0.47480536639E+02  0.16346855784E+03  0.12509000000E+03 0.  0.
<mgrwt>
<rscale>  2 0.45740410E+03</rscale>
<asrwt>0</asrwt>
<pdfrwt beam="1">  1       21 0.41231885E-01 0.45740410E+03</pdfrwt>
<pdfrwt beam="2">  1       21 0.27433998E-01 0.45740410E+03</pdfrwt>
<totfact> 0.66389550E+04</totfact>
</mgrwt>
</event>
<event>
 7    0  0.4712189E-002  0.4505029E+03  0.7546771E-02  0.1027572E+00
         21   -1    0    0  502  501  0.00000000000E+00  0.00000000000E+00  0.28000715704E+03  0.28000715704E+03  0.00000000000E+00 0. -1.
         21   -1    0    0  501  502 -0.00000000000E+00 -0.00000000000E+00 -0.18120331460E+03  0.18120331460E+03  0.00000000000E+00 0. -1.
      99926    2    1    2    0    0  0.53290705182E-14  0.00000000000E+00  0.98803842440E+02  0.46121047163E+03  0.45050294102E+03 0.  0.
      99925    2    3    3    0    0 -0.87048303137E+01  0.10430046655E+03  0.31911273963E+02  0.28492523342E+03  0.26307736095E+03 0.  0.
         25    1    3    3    0    0  0.87048303137E+01 -0.10430046655E+03  0.66892568477E+02  0.17628523821E+03  0.12509000000E+03 0.  0.
         25    1    4    4    0    0  0.32183168605E+02  0.69118131431E+02  0.24227050170E+02  0.14848410856E+03  0.12509000000E+03 0.  0.
         25    1    4    4    0    0 -0.40887998919E+02  0.35182335119E+02  0.76842237932E+01  0.13644112487E+03  0.12509000000E+03 0.  0.
<mgrwt>
<rscale>  2 0.45050294E+03</rscale>
<asrwt>0</asrwt>
<pdfrwt beam="1">  1       21 0.41177523E-01 0.45050294E+03</pdfrwt>
<pdfrwt beam="2">  1       21 0.26647546E-01 0.45050294E+03</pdfrwt>
<totfact> 0.70579764E+04</totfact>
</mgrwt>
</event>
<event>
 7    0  0.4712189E-002  0.5100852E+03  0.7546771E-02  0.1011180E+00
         21   -1    0    0  502  501  0.00000000000E+00  0.00000000000E+00  0.92876171869E+03  0.92876171869E+03  0.00000000000E+00 0. -1.
         21   -1    0    0  501  502 -0.00000000000E+00 -0.00000000000E+00 -0.70035975481E+02  0.70035975481E+02  0.00000000000E+00 0. -1.
      99926    2    1    2    0    0  0.00000000000E+00  0.00000000000E+00  0.85872574321E+03  0.99879769417E+03  0.51008522016E+03 0.  0.
      99925    2    3    3    0    0  0.48686951266E+02  0.48527094063E+02  0.23588938306E+03  0.35981574004E+03  0.26286549347E+03 0.  0.
         25    1    4    4    0    0  0.81280227463E+01  0.57426275346E+02  0.98665161674E+02  0.16954693770E+03  0.12509000000E+03 0.  0.
         25    1    3    3    0    0 -0.48686951266E+02 -0.48527094063E+02  0.62283636015E+03  0.63898195413E+03  0.12509000000E+03 0.  0.
         25    1    4    4    0    0  0.40558928520E+02 -0.88991812839E+01  0.13722422139E+03  0.19026880234E+03  0.12509000000E+03 0.  0.
<mgrwt>
<rscale>  2 0.51008522E+03</rscale>
<asrwt>0</asrwt>
<pdfrwt beam="1">  1       21 0.13658260E+00 0.51008522E+03</pdfrwt>
<pdfrwt beam="2">  1       21 0.10299409E-01 0.51008522E+03</pdfrwt>
<totfact> 0.26057601E+04</totfact>
</mgrwt>
</event>
<event>
 7    0  0.4712189E-002  0.4344925E+03  0.7546771E-02  0.1032450E+00
         21   -1    0    0  502  501  0.00000000000E+00  0.00000000000E+00  0.65625175083E+02  0.65625175083E+02  0.00000000000E+00 0.  1.
         21   -1    0    0  501  502 -0.00000000000E+00 -0.00000000000E+00 -0.71917404405E+03  0.71917404405E+03  0.00000000000E+00 0.  1.
      99926    2    1    2    0    0  0.00000000000E+00  0.71054273576E-14 -0.65354886896E+03  0.78479921913E+03  0.43449245128E+03 0.  0.
      99925    2    3    3    0    0 -0.47533223204E+02 -0.61647275798E+02 -0.33183469304E+03  0.43095276513E+03  0.26371618900E+03 0.  0.
         25    1    4    4    0    0 -0.11896275913E+02 -0.33098621810E+01 -0.20324254574E+03  0.23897179136E+03  0.12509000000E+03 0.  0.
         25    1    3    3    0    0  0.47533223204E+02  0.61647275798E+02 -0.32171417592E+03  0.35384645400E+03  0.12509000000E+03 0.  0.
         25    1    4    4    0    0 -0.35636947291E+02 -0.58337413617E+02 -0.12859214731E+03  0.19198097377E+03  0.12509000000E+03 0.  0.
<mgrwt>
<rscale>  2 0.43449245E+03</rscale>
<asrwt>0</asrwt>
<pdfrwt beam="1">  1       21 0.96507614E-02 0.43449245E+03</pdfrwt>
<pdfrwt beam="2">  1       21 0.10576089E+00 0.43449245E+03</pdfrwt>
<totfact> 0.57170789E+04</totfact>
</mgrwt>
</event>
<event>
 7    0  0.4712189E-002  0.4584625E+03  0.7546771E-02  0.1025228E+00
         21   -1    0    0  502  501  0.00000000000E+00  0.00000000000E+00  0.34331950795E+03  0.34331950795E+03  0.00000000000E+00 0. -1.
         21   -1    0    0  501  502 -0.00000000000E+00 -0.00000000000E+00 -0.15305557223E+03  0.15305557223E+03  0.00000000000E+00 0. -1.
      99926    2    1    2    0    0 -0.17763568394E-14  0.00000000000E+00  0.19026393572E+03  0.49637508017E+03  0.45846249026E+03 0.  0.
      99925    2    3    3    0    0 -0.10787246594E+02 -0.10193083370E+03  0.59375454421E+02  0.28832325445E+03  0.26286611597E+03 0.  0.
         25    1    3    3    0    0  0.10787246594E+02  0.10193083370E+03  0.13088848130E+03  0.20805182572E+03  0.12509000000E+03 0.  0.
         25    1    4    4    0    0 -0.42590733300E+02 -0.50236355379E+02  0.13958253146E+02  0.14205633705E+03  0.12509000000E+03 0.  0.
         25    1    4    4    0    0  0.31803486707E+02 -0.51694478320E+02  0.45417201275E+02  0.14626691740E+03  0.12509000000E+03 0.  0.
<mgrwt>
<rscale>  2 0.45846249E+03</rscale>
<asrwt>0</asrwt>
<pdfrwt beam="1">  1       21 0.50488163E-01 0.45846249E+03</pdfrwt>
<pdfrwt beam="2">  1       21 0.22508172E-01 0.45846249E+03</pdfrwt>
<totfact> 0.63755512E+04</totfact>
</mgrwt>
</event>
<event>
 7    0  0.4712189E-002  0.4595148E+03  0.7546771E-02  0.1024922E+00
         21   -1    0    0  502  501  0.00000000000E+00  0.00000000000E+00  0.93737688256E+02  0.93737688256E+02  0.00000000000E+00 0. -1.
         21   -1    0    0  501  502 -0.00000000000E+00 -0.00000000000E+00 -0.56315094797E+03  0.56315094797E+03  0.00000000000E+00 0. -1.
      99926    2    1    2    0    0 -0.35527136788E-14  0.00000000000E+00 -0.46941325971E+03  0.65688863622E+03  0.45951482240E+03 0.  0.
      99925    2    3    3    0    0 -0.22133101410E+02 -0.11401787663E+03 -0.31779533588E+03  0.42857864236E+03  0.26305099660E+03 0.  0.
         25    1    4    4    0    0  0.20788116924E+02 -0.45906117030E+02 -0.11603837683E+03  0.17790989400E+03  0.12509000000E+03 0.  0.
         25    1    4    4    0    0 -0.42921218334E+02 -0.68111759605E+02 -0.20175695905E+03  0.25066874836E+03  0.12509000000E+03 0.  0.
         25    1    3    3    0    0  0.22133101410E+02  0.11401787663E+03 -0.15161792383E+03  0.22830999386E+03  0.12509000000E+03 0.  0.
<mgrwt>
<rscale>  2 0.45951482E+03</rscale>
<asrwt>0</asrwt>
<pdfrwt beam="1">  1       21 0.13784955E-01 0.45951482E+03</pdfrwt>
<pdfrwt beam="2">  1       21 0.82816311E-01 0.45951482E+03</pdfrwt>
<totfact> 0.53379941E+04</totfact>
</mgrwt>
</event>
<event>
 7    0  0.4712189E-002  0.4756292E+03  0.7546771E-02  0.1020343E+00
         21   -1    0    0  502  501  0.00000000000E+00  0.00000000000E+00  0.88532696173E+03  0.88532696173E+03  0.00000000000E+00 0.  1.
         21   -1    0    0  501  502 -0.00000000000E+00 -0.00000000000E+00 -0.63881226535E+02  0.63881226535E+02  0.00000000000E+00 0.  1.
      99926    2    1    2    0    0  0.00000000000E+00  0.00000000000E+00  0.82144573519E+03  0.94920818826E+03  0.47562915049E+03 0.  0.
      99925    2    3    3    0    0  0.11164178561E+03  0.70842645985E+01  0.36965513172E+03  0.46725763833E+03  0.26300324916E+03 0.  0.
         25    1    4    4    0    0  0.76956331815E+02 -0.10846341539E+02  0.24811715047E+03  0.28852997867E+03  0.12509000000E+03 0.  0.
         25    1    3    3    0    0 -0.11164178561E+03 -0.70842645985E+01  0.45179060347E+03  0.48195054994E+03  0.12509000000E+03 0.  0.
         25    1    4    4    0    0  0.34685453795E+02  0.17930606137E+02  0.12153798125E+03  0.17872765966E+03  0.12509000000E+03 0.  0.
<mgrwt>
<rscale>  2 0.47562915E+03</rscale>
<asrwt>0</asrwt>
<pdfrwt beam="1">  1       21 0.13019513E+00 0.47562915E+03</pdfrwt>
<pdfrwt beam="2">  1       21 0.93942985E-02 0.47562915E+03</pdfrwt>
<totfact> 0.35148078E+04</totfact>
</mgrwt>
</event>
<event>
 7    0  0.4712189E-002  0.4586051E+03  0.7546771E-02  0.1025187E+00
         21   -1    0    0  502  501  0.00000000000E+00  0.00000000000E+00  0.70695247026E+02  0.70695247026E+02  0.00000000000E+00 0.  1.
         21   -1    0    0  501  502 -0.00000000000E+00 -0.00000000000E+00 -0.74375106657E+03  0.74375106657E+03  0.00000000000E+00 0.  1.
      99926    2    1    2    0    0  0.00000000000E+00  0.00000000000E+00 -0.67305581954E+03  0.81444631360E+03  0.45860512591E+03 0.  0.
      99925    2    3    3    0    0 -0.58788748866E+02  0.60990537330E+02 -0.56420922890E+03  0.62824467281E+03  0.26302728432E+03 0.  0.
         25    1    4    4    0    0 -0.11348720216E+02  0.66642620918E+02 -0.30365273351E+03  0.33529468090E+03  0.12509000000E+03 0.  0.
         25    1    3    3    0    0  0.58788748866E+02 -0.60990537330E+02 -0.10884659064E+03  0.18620164078E+03  0.12509000000E+03 0.  0.
         25    1    4    4    0    0 -0.47440028651E+02 -0.56520835878E+01 -0.26055649539E+03  0.29294999191E+03  0.12509000000E+03 0.  0.
<mgrwt>
<rscale>  2 0.45860513E+03</rscale>
<asrwt>0</asrwt>
<pdfrwt beam="1">  1       21 0.10396360E-01 0.45860513E+03</pdfrwt>
<pdfrwt beam="2">  1       21 0.10937516E+00 0.45860513E+03</pdfrwt>
<totfact> 0.45765510E+04</totfact>
</mgrwt>
</event>
<event>
 7    0  0.4712189E-002  0.4436514E+03  0.7546771E-02  0.1029632E+00
         21   -1    0    0  502  501  0.00000000000E+00  0.00000000000E+00  0.49293833146E+02  0.49293833146E+02  0.00000000000E+00 0. -1.
         21   -1    0    0  501  502 -0.00000000000E+00 -0.00000000000E+00 -0.99823110413E+03  0.99823110413E+03  0.00000000000E+00 0. -1.
      99926    2    1    2    0    0  0.00000000000E+00 -0.35527136788E-14 -0.94893727098E+03  0.10475249373E+04  0.44365138335E+03 0.  0.
      99925    2    3    3    0    0 -0.11624821455E+02  0.19847091515E+02 -0.83846263674E+03  0.87905774039E+03  0.26304728513E+03 0.  0.
         25    1    4    4    0    0 -0.12548288866E+02  0.48779065195E+02 -0.39514121027E+03  0.41751759353E+03  0.12509000000E+03 0.  0.
         25    1    3    3    0    0  0.11624821455E+02 -0.19847091515E+02 -0.11047463424E+03  0.16846719688E+03  0.12509000000E+03 0.  0.
         25    1    4    4    0    0  0.92346741139E+00 -0.28931973680E+02 -0.44332142647E+03  0.46154014686E+03  0.12509000000E+03 0.  0.
<mgrwt>
<rscale>  2 0.44365138E+03</rscale>
<asrwt>0</asrwt>
<pdfrwt beam="1">  1       21 0.72490939E-02 0.44365138E+03</pdfrwt>
<pdfrwt beam="2">  1       21 0.14679868E+00 0.44365138E+03</pdfrwt>
<totfact> 0.40870393E+04</totfact>
</mgrwt>
</event>
<event>
 7    0  0.4712189E-002  0.4503541E+03  0.7546771E-02  0.1027617E+00
         21   -1    0    0  502  501  0.00000000000E+00  0.00000000000E+00  0.83385371592E+03  0.83385371592E+03  0.00000000000E+00 0. -1.
         21   -1    0    0  501  502 -0.00000000000E+00 -0.00000000000E+00 -0.60807665505E+02  0.60807665505E+02  0.00000000000E+00 0. -1.
      99926    2    1    2    0    0  0.00000000000E+00  0.00000000000E+00  0.77304605041E+03  0.89466138142E+03  0.45035407332E+03 0.  0.
      99925    2    3    3    0    0 -0.78996327966E+02  0.71948755427E+02  0.52907511752E+03  0.60040576561E+03  0.26296303954E+03 0.  0.
         25    1    4    4    0    0 -0.27656089937E+02  0.69861721546E+02  0.23320795527E+03  0.27509812422E+03  0.12509000000E+03 0.  0.
         25    1    3    3    0    0  0.78996327966E+02 -0.71948755427E+02  0.24397093290E+03  0.29425561582E+03  0.12509000000E+03 0.  0.
         25    1    4    4    0    0 -0.51340238028E+02  0.20870338808E+01  0.29586716225E+03  0.32530764139E+03  0.12509000000E+03 0.  0.
<mgrwt>
<rscale>  2 0.45035407E+03</rscale>
<asrwt>0</asrwt>
<pdfrwt beam="1">  1       21 0.12262554E+00 0.45035407E+03</pdfrwt>
<pdfrwt beam="2">  1       21 0.89423042E-02 0.45035407E+03</pdfrwt>
<totfact> 0.45083098E+04</totfact>
</mgrwt>
</event>
<event>
 7    0  0.4712189E-002  0.4508473E+03  0.7546771E-02  0.1027470E+00
         21   -1    0    0  502  501  0.00000000000E+00  0.00000000000E+00  0.89422187025E+03  0.89422187025E+03  0.00000000000E+00 0.  1.
         21   -1    0    0  501  502 -0.00000000000E+00 -0.00000000000E+00 -0.56826865558E+02  0.56826865558E+02  0.00000000000E+00 0.  1.
      99926    2    1    2    0    0  0.00000000000E+00  0.00000000000E+00  0.83739500469E+03  0.95104873581E+03  0.45084731783E+03 0.  0.
      99925    2    3    3    0    0 -0.10681951738E+03  0.22616671641E+02  0.53069942212E+03  0.60229149703E+03  0.26304229247E+03 0.  0.
         25    1    3    3    0    0  0.10681951738E+03 -0.22616671641E+02  0.30669558257E+03  0.34875723878E+03  0.12509000000E+03 0.  0.
         25    1    4    4    0    0 -0.33887092684E+02  0.42606508738E+02  0.29375009427E+03  0.32388312031E+03  0.12509000000E+03 0.  0.
         25    1    4    4    0    0 -0.72932424700E+02 -0.19989837098E+02  0.23694932785E+03  0.27840837672E+03  0.12509000000E+03 0.  0.
<mgrwt>
<rscale>  2 0.45084732E+03</rscale>
<asrwt>0</asrwt>
<pdfrwt beam="1">  1       21 0.13150321E+00 0.45084732E+03</pdfrwt>
<pdfrwt beam="2">  1       21 0.83568925E-02 0.45084732E+03</pdfrwt>
<totfact> 0.42460493E+04</totfact>
</mgrwt>
</event>
<event>
 7    0  0.4712189E-002  0.4439777E+03  0.7546771E-02  0.1029533E+00
         21   -1    0    0  502  501  0.00000000000E+00  0.00000000000E+00  0.98184986810E+02  0.98184986810E+02  0.00000000000E+00 0.  1.
         21   -1    0    0  501  502 -0.00000000000E+00 -0.00000000000E+00 -0.50190005867E+03  0.50190005867E+03  0.00000000000E+00 0.  1.
      99926    2    1    2    0    0  0.00000000000E+00 -0.14210854715E-13 -0.40371507187E+03  0.60008504548E+03  0.44397770503E+03 0.  0.
      99925    2    3    3    0    0 -0.32029504417E+02  0.84431878681E+02 -0.32210611786E+03  0.42555092056E+03  0.26303346466E+03 0.  0.
         25    1    4    4    0    0 -0.33325647726E+02  0.55306819973E+01 -0.16475786133E+03  0.20960402718E+03  0.12509000000E+03 0.  0.
         25    1    4    4    0    0  0.12961433087E+01  0.78901196684E+02 -0.15734825653E+03  0.21594689338E+03  0.12509000000E+03 0.  0.
         25    1    3    3    0    0  0.32029504417E+02 -0.84431878681E+02 -0.81608954003E+02  0.17453412493E+03  0.12509000000E+03 0.  0.
<mgrwt>
<rscale>  2 0.44397771E+03</rscale>
<asrwt>0</asrwt>
<pdfrwt beam="1">  1       21 0.14438969E-01 0.44397771E+03</pdfrwt>
<pdfrwt beam="2">  1       21 0.73808830E-01 0.44397771E+03</pdfrwt>
<totfact> 0.64073196E+04</totfact>
</mgrwt>
</event>
<event>
 6    0  0.4712189E-002  0.4447953E+03  0.7546771E-02  0.1029286E+00
         21   -1    0    0  502  501  0.00000000000E+00  0.00000000000E+00  0.26070688143E+04  0.26070688143E+04  0.00000000000E+00 0.  1.
         21   -1    0    0  501  502 -0.00000000000E+00 -0.00000000000E+00 -0.18971774734E+02  0.18971774734E+02  0.00000000000E+00 0.  1.
      99926    2    1    2    0    0  0.00000000000E+00  0.35527136788E-14  0.25880970396E+04  0.26260405891E+04  0.44479533388E+03 0.  0.
         25    1    3    3    0    0 -0.24169118184E+02 -0.23508858028E+02  0.36133644688E+03  0.38385980335E+03  0.12509000000E+03 0.  0.
         25    1    3    3    0    0  0.25820943690E+02  0.40050283413E+02  0.12987184513E+04  0.13055986636E+04  0.12509000000E+03 0.  0.
         25    1    3    3    0    0 -0.16518255059E+01 -0.16541425384E+02  0.92804214139E+03  0.93658212217E+03  0.12509000000E+03 0.  0.
<mgrwt>
<rscale>  2 0.44479533E+03</rscale>
<asrwt>0</asrwt>
<pdfrwt beam="1">  1       21 0.38339223E+00 0.44479533E+03</pdfrwt>
<pdfrwt beam="2">  1       21 0.27899687E-02 0.44479533E+03</pdfrwt>
<totfact> 0.64207934E+03</totfact>
</mgrwt>
</event>
<event>
 7    0  0.4712189E-002  0.4727561E+03  0.7546771E-02  0.1021145E+00
         21   -1    0    0  502  501  0.00000000000E+00  0.00000000000E+00  0.17262768219E+03  0.17262768219E+03  0.00000000000E+00 0.  1.
         21   -1    0    0  501  502 -0.00000000000E+00 -0.00000000000E+00 -0.32367098093E+03  0.32367098093E+03  0.00000000000E+00 0.  1.
      99926    2    1    2    0    0  0.00000000000E+00  0.00000000000E+00 -0.15104329874E+03  0.49629866312E+03  0.47275605223E+03 0.  0.
      99925    2    3    3    0    0  0.89149270402E+02  0.92970783704E+02 -0.10268876668E+03  0.31035020815E+03  0.26302302154E+03 0.  0.
         25    1    4    4    0    0  0.81315991316E+02  0.29060969850E+02 -0.58748932938E+02  0.16295942941E+03  0.12509000000E+03 0.  0.
         25    1    4    4    0    0  0.78332790859E+01  0.63909813854E+02 -0.43939833737E+02  0.14739077874E+03  0.12509000000E+03 0.  0.
         25    1    3    3    0    0 -0.89149270402E+02 -0.92970783704E+02 -0.48354532063E+02  0.18594845497E+03  0.12509000000E+03 0.  0.
<mgrwt>
<rscale>  2 0.47275605E+03</rscale>
<asrwt>0</asrwt>
<pdfrwt beam="1">  1       21 0.25386424E-01 0.47275605E+03</pdfrwt>
<pdfrwt beam="2">  1       21 0.47598673E-01 0.47275605E+03</pdfrwt>
<totfact> 0.57055296E+04</totfact>
</mgrwt>
</event>
<event>
 7    0  0.4712189E-002  0.4543763E+03  0.7546771E-02  0.1026425E+00
         21   -1    0    0  502  501  0.00000000000E+00  0.00000000000E+00  0.13413207785E+03  0.13413207785E+03  0.00000000000E+00 0. -1.
         21   -1    0    0  501  502 -0.00000000000E+00 -0.00000000000E+00 -0.38480321590E+03  0.38480321590E+03  0.00000000000E+00 0. -1.
      99926    2    1    2    0    0  0.14210854715E-13 -0.71054273576E-14 -0.25067113805E+03  0.51893529376E+03  0.45437629742E+03 0.  0.
      99925    2    3    3    0    0  0.87031248952E+02 -0.52219876657E+02 -0.21352785626E+03  0.35362199939E+03  0.26296961658E+03 0.  0.
         25    1    3    3    0    0 -0.87031248952E+02  0.52219876657E+02 -0.37143281791E+02  0.16531329437E+03  0.12509000000E+03 0.  0.
         25    1    4    4    0    0  0.37808605806E+02 -0.66470827585E+02 -0.11540954994E+03  0.18658706791E+03  0.12509000000E+03 0.  0.
         25    1    4    4    0    0  0.49222643146E+02  0.14250950928E+02 -0.98118306314E+02  0.16703493148E+03  0.12509000000E+03 0.  0.
<mgrwt>
<rscale>  2 0.45437630E+03</rscale>
<asrwt>0</asrwt>
<pdfrwt beam="1">  1       21 0.19725306E-01 0.45437630E+03</pdfrwt>
<pdfrwt beam="2">  1       21 0.56588707E-01 0.45437630E+03</pdfrwt>
<totfact> 0.64277352E+04</totfact>
</mgrwt>
</event>
<event>
 7    0  0.4712189E-002  0.4329688E+03  0.7546771E-02  0.1032926E+00
         21   -1    0    0  502  501  0.00000000000E+00  0.00000000000E+00  0.43666036573E+03  0.43666036573E+03  0.00000000000E+00 0.  1.
         21   -1    0    0  501  502 -0.00000000000E+00 -0.00000000000E+00 -0.10732710998E+03  0.10732710998E+03  0.00000000000E+00 0.  1.
      99926    2    1    2    0    0  0.00000000000E+00  0.88817841970E-15  0.32933325576E+03  0.54398747571E+03  0.43296879840E+03 0.  0.
      99925    2    3    3    0    0  0.27870578848E+02  0.78079147444E+01  0.32003024880E+03  0.41525602371E+03  0.26302180970E+03 0.  0.
         25    1    4    4    0    0  0.10569466302E+02  0.10635507279E+01  0.22281240479E+03  0.25574542144E+03  0.12509000000E+03 0.  0.
         25    1    4    4    0    0  0.17301112546E+02  0.67443640165E+01  0.97217844013E+02  0.15951060227E+03  0.12509000000E+03 0.  0.
         25    1    3    3    0    0 -0.27870578848E+02 -0.78079147444E+01  0.93030069521E+01  0.12873145201E+03  0.12509000000E+03 0.  0.
<mgrwt>
<rscale>  2 0.43296880E+03</rscale>
<asrwt>0</asrwt>
<pdfrwt beam="1">  1       21 0.64214759E-01 0.43296880E+03</pdfrwt>
<pdfrwt beam="2">  1       21 0.15783399E-01 0.43296880E+03</pdfrwt>
<totfact> 0.74414463E+04</totfact>
</mgrwt>
</event>
<event>
 7    0  0.4712189E-002  0.4520646E+03  0.7546771E-02  0.1027108E+00
         21   -1    0    0  502  501  0.00000000000E+00  0.00000000000E+00  0.15486301944E+03  0.15486301944E+03  0.00000000000E+00 0. -1.
         21   -1    0    0  501  502 -0.00000000000E+00 -0.00000000000E+00 -0.32990827106E+03  0.32990827106E+03  0.00000000000E+00 0. -1.
      99926    2    1    2    0    0  0.35527136788E-14  0.00000000000E+00 -0.17504525162E+03  0.48477129049E+03  0.45206455730E+03 0.  0.
      99925    2    3    3    0    0  0.22898792698E+02 -0.76241701138E+02 -0.28459297121E+02  0.27627164576E+03  0.26301889468E+03 0.  0.
         25    1    3    3    0    0 -0.22898792698E+02  0.76241701138E+02 -0.14658595450E+03  0.20849964474E+03  0.12509000000E+03 0.  0.
         25    1    4    4    0    0  0.41811656874E+02 -0.46368374649E+02  0.11498306980E+02  0.14027815219E+03  0.12509000000E+03 0.  0.
         25    1    4    4    0    0 -0.18912864177E+02 -0.29873326489E+02 -0.39957604101E+02  0.13599349357E+03  0.12509000000E+03 0.  0.
<mgrwt>
<rscale>  2 0.45206456E+03</rscale>
<asrwt>0</asrwt>
<pdfrwt beam="1">  1       21 0.22773974E-01 0.45206456E+03</pdfrwt>
<pdfrwt beam="2">  1       21 0.48515922E-01 0.45206456E+03</pdfrwt>
<totfact> 0.67923472E+04</totfact>
</mgrwt>
</event>
<event>
 7    0  0.4712189E-002  0.4504053E+03  0.7546771E-02  0.1027601E+00
         21   -1    0    0  502  501  0.00000000000E+00  0.00000000000E+00  0.29469326676E+03  0.29469326676E+03  0.00000000000E+00 0. -1.
         21   -1    0    0  501  502 -0.00000000000E+00 -0.00000000000E+00 -0.17209835502E+03  0.17209835502E+03  0.00000000000E+00 0. -1.
      99926    2    1    2    0    0  0.00000000000E+00  0.00000000000E+00  0.12259491174E+03  0.46679162178E+03  0.45040526837E+03 0.  0.
      99925    2    3    3    0    0 -0.80743415258E+01  0.24388264628E+02 -0.32196229342E+02  0.26612326877E+03  0.26291636418E+03 0.  0.
         25    1    4    4    0    0 -0.29740471727E+02  0.48932344832E+01  0.14440828518E+02  0.12947773952E+03  0.12509000000E+03 0.  0.
         25    1    4    4    0    0  0.21666130201E+02  0.19495030145E+02 -0.46637057860E+02  0.13664552925E+03  0.12509000000E+03 0.  0.
         25    1    3    3    0    0  0.80743415258E+01 -0.24388264628E+02  0.15479114108E+03  0.20066835301E+03  0.12509000000E+03 0.  0.
<mgrwt>
<rscale>  2 0.45040527E+03</rscale>
<asrwt>0</asrwt>
<pdfrwt beam="1">  1       21 0.43337245E-01 0.45040527E+03</pdfrwt>
<pdfrwt beam="2">  1       21 0.25308581E-01 0.45040527E+03</pdfrwt>
<totfact> 0.70199189E+04</totfact>
</mgrwt>
</event>
<event>
 7    0  0.4712189E-002  0.4553247E+03  0.7546771E-02  0.1026146E+00
         21   -1    0    0  502  501  0.00000000000E+00  0.00000000000E+00  0.29215227171E+03  0.29215227171E+03  0.00000000000E+00 0.  1.
         21   -1    0    0  501  502 -0.00000000000E+00 -0.00000000000E+00 -0.17740798133E+03  0.17740798133E+03  0.00000000000E+00 0.  1.
      99926    2    1    2    0    0  0.00000000000E+00  0.35527136788E-14  0.11474429038E+03  0.46956025304E+03  0.45532469630E+03 0.  0.
      99925    2    3    3    0    0  0.29535270077E+02  0.25277140604E+02  0.18199286784E+03  0.32231506539E+03  0.26316217703E+03 0.  0.
         25    1    4    4    0    0 -0.10188656933E+02  0.29047954496E+02  0.12390781587E+03  0.17874072654E+03  0.12509000000E+03 0.  0.
         25    1    3    3    0    0 -0.29535270077E+02 -0.25277140604E+02 -0.67248577455E+02  0.14724518765E+03  0.12509000000E+03 0.  0.
         25    1    4    4    0    0  0.39723927010E+02 -0.37708138928E+01  0.58085051964E+02  0.14357433885E+03  0.12509000000E+03 0.  0.
<mgrwt>
<rscale>  2 0.45532470E+03</rscale>
<asrwt>0</asrwt>
<pdfrwt beam="1">  1       21 0.42963569E-01 0.45532470E+03</pdfrwt>
<pdfrwt beam="2">  1       21 0.26089409E-01 0.45532470E+03</pdfrwt>
<totfact> 0.67294956E+04</totfact>
</mgrwt>
</event>
<event>
 7    0  0.4712189E-002  0.4171282E+03  0.7546771E-02  0.1038005E+00
         21   -1    0    0  502  501  0.00000000000E+00  0.00000000000E+00  0.51199820407E+02  0.51199820407E+02  0.00000000000E+00 0. -1.
         21   -1    0    0  501  502 -0.00000000000E+00 -0.00000000000E+00 -0.84959232681E+03  0.84959232681E+03  0.00000000000E+00 0. -1.
      99926    2    1    2    0    0 -0.35527136788E-14 -0.35527136788E-14 -0.79839250641E+03  0.90079214722E+03  0.41712815562E+03 0.  0.
      99925    2    3    3    0    0 -0.19498181195E+02 -0.19048291140E+02 -0.37702638326E+03  0.46040602766E+03  0.26283416857E+03 0.  0.
         25    1    4    4    0    0  0.17050845110E+02 -0.75088716365E+00 -0.13445525775E+03  0.18443703420E+03  0.12509000000E+03 0.  0.
         25    1    4    4    0    0 -0.36549026305E+02 -0.18297403976E+02 -0.24257112551E+03  0.27596899345E+03  0.12509000000E+03 0.  0.
         25    1    3    3    0    0  0.19498181195E+02  0.19048291140E+02 -0.42136612315E+03  0.44038611956E+03  0.12509000000E+03 0.  0.
<mgrwt>
<rscale>  2 0.41712816E+03</rscale>
<asrwt>0</asrwt>
<pdfrwt beam="1">  1       21 0.75293853E-02 0.41712816E+03</pdfrwt>
<pdfrwt beam="2">  1       21 0.12494005E+00 0.41712816E+03</pdfrwt>
<totfact> 0.58778622E+04</totfact>
</mgrwt>
</event>
<event>
 7    0  0.4712189E-002  0.4581962E+03  0.7546771E-02  0.1025306E+00
         21   -1    0    0  502  501  0.00000000000E+00  0.00000000000E+00  0.80524558329E+03  0.80524558329E+03  0.00000000000E+00 0.  1.
         21   -1    0    0  501  502 -0.00000000000E+00 -0.00000000000E+00 -0.65180051566E+02  0.65180051566E+02  0.00000000000E+00 0.  1.
      99926    2    1    2    0    0  0.00000000000E+00 -0.35527136788E-14  0.74006553172E+03  0.87042563485E+03  0.45819624024E+03 0.  0.
      99925    2    3    3    0    0 -0.77932635136E+02 -0.18920628916E+02  0.62394449690E+03  0.68184385247E+03  0.26300725869E+03 0.  0.
         25    1    4    4    0    0 -0.73523051630E+02 -0.96404809014E+01  0.27619340688E+03  0.31213600256E+03  0.12509000000E+03 0.  0.
         25    1    4    4    0    0 -0.44095835057E+01 -0.92801480143E+01  0.34775109002E+03  0.36970784991E+03  0.12509000000E+03 0.  0.
         25    1    3    3    0    0  0.77932635136E+02  0.18920628916E+02  0.11612103482E+03  0.18858178238E+03  0.12509000000E+03 0.  0.
<mgrwt>
<rscale>  2 0.45819624E+03</rscale>
<asrwt>0</asrwt>
<pdfrwt beam="1">  1       21 0.11841846E+00 0.45819624E+03</pdfrwt>
<pdfrwt beam="2">  1       21 0.95853022E-02 0.45819624E+03</pdfrwt>
<totfact> 0.43439256E+04</totfact>
</mgrwt>
</event>
<event>
 7    0  0.4712189E-002  0.4555329E+03  0.7546771E-02  0.1026085E+00
         21   -1    0    0  502  501  0.00000000000E+00  0.00000000000E+00  0.19970764725E+03  0.19970764725E+03  0.00000000000E+00 0. -1.
         21   -1    0    0  501  502 -0.00000000000E+00 -0.00000000000E+00 -0.25976752222E+03  0.25976752222E+03  0.00000000000E+00 0. -1.
      99926    2    1    2    0    0  0.00000000000E+00  0.14210854715E-13 -0.60059874979E+02  0.45947516947E+03  0.45553292173E+03 0.  0.
      99925    2    3    3    0    0 -0.55396744021E+02  0.81726528556E+02  0.19148852441E+02  0.28151574905E+03  0.26293804155E+03 0.  0.
         25    1    4    4    0    0 -0.55078183602E+02  0.64900098542E+02 -0.11143219781E+02  0.15171456274E+03  0.12509000000E+03 0.  0.
         25    1    4    4    0    0 -0.31856041900E+00  0.16826430015E+02  0.30292072223E+02  0.12980118631E+03  0.12509000000E+03 0.  0.
         25    1    3    3    0    0  0.55396744021E+02 -0.81726528556E+02 -0.79208727420E+02  0.17795942042E+03  0.12509000000E+03 0.  0.
<mgrwt>
<rscale>  2 0.45553292E+03</rscale>
<asrwt>0</asrwt>
<pdfrwt beam="1">  1       21 0.29368772E-01 0.45553292E+03</pdfrwt>
<pdfrwt beam="2">  1       21 0.38201106E-01 0.45553292E+03</pdfrwt>
<totfact> 0.67929667E+04</totfact>
</mgrwt>
</event>
<event>
 7    0  0.4712189E-002  0.4526353E+03  0.7546771E-02  0.1026939E+00
         21   -1    0    0  502  501  0.00000000000E+00  0.00000000000E+00  0.65624157341E+03  0.65624157341E+03  0.00000000000E+00 0.  1.
         21   -1    0    0  501  502 -0.00000000000E+00 -0.00000000000E+00 -0.78050038654E+02  0.78050038654E+02  0.00000000000E+00 0.  1.
      99926    2    1    2    0    0  0.00000000000E+00  0.00000000000E+00  0.57819153476E+03  0.73429161207E+03  0.45263530649E+03 0.  0.
      99925    2    3    3    0    0  0.82043540418E+02  0.16447607441E+02  0.24653792805E+03  0.37008934785E+03  0.26302758242E+03 0.  0.
         25    1    4    4    0    0  0.80466803046E+02  0.19770150718E+02  0.12008923333E+03  0.19218401940E+03  0.12509000000E+03 0.  0.
         25    1    3    3    0    0 -0.82043540418E+02 -0.16447607441E+02  0.33165360671E+03  0.36420226422E+03  0.12509000000E+03 0.  0.
         25    1    4    4    0    0  0.15767373727E+01 -0.33225432774E+01  0.12644869471E+03  0.17790532845E+03  0.12509000000E+03 0.  0.
<mgrwt>
<rscale>  2 0.45263531E+03</rscale>
<asrwt>0</asrwt>
<pdfrwt beam="1">  1       21 0.96506111E-01 0.45263531E+03</pdfrwt>
<pdfrwt beam="2">  1       21 0.11477947E-01 0.45263531E+03</pdfrwt>
<totfact> 0.52041257E+04</totfact>
</mgrwt>
</event>
<event>
 7    0  0.4712189E-002  0.4819528E+03  0.7546771E-02  0.1018600E+00
         21   -1    0    0  502  501  0.00000000000E+00  0.00000000000E+00  0.40025915033E+03  0.40025915033E+03  0.00000000000E+00 0. -1.
         21   -1    0    0  501  502 -0.00000000000E+00 -0.00000000000E+00 -0.14508009750E+03  0.14508009750E+03  0.00000000000E+00 0. -1.
      99926    2    1    2    0    0  0.00000000000E+00  0.71054273576E-14  0.25517905283E+03  0.54533924782E+03  0.48195284646E+03 0.  0.
      99925    2    3    3    0    0 -0.12562593998E+03  0.51572398286E+02  0.17673859715E+03  0.34473515453E+03  0.26299088574E+03 0.  0.
         25    1    3    3    0    0  0.12562593998E+03 -0.51572398286E+02  0.78440455679E+02  0.20060409330E+03  0.12509000000E+03 0.  0.
         25    1    4    4    0    0 -0.39899785762E+02  0.47169644839E+02  0.11554222308E+03  0.18114767929E+03  0.12509000000E+03 0.  0.
         25    1    4    4    0    0 -0.85726154216E+02  0.44027534479E+01  0.61196374076E+02  0.16358747524E+03  0.12509000000E+03 0.  0.
<mgrwt>
<rscale>  2 0.48195285E+03</rscale>
<asrwt>0</asrwt>
<pdfrwt beam="1">  1       21 0.58861640E-01 0.48195285E+03</pdfrwt>
<pdfrwt beam="2">  1       21 0.21335308E-01 0.48195285E+03</pdfrwt>
<totfact> 0.50498277E+04</totfact>
</mgrwt>
</event>
<event>
 7    0  0.4712189E-002  0.4598422E+03  0.7546771E-02  0.1024827E+00
         21   -1    0    0  502  501  0.00000000000E+00  0.00000000000E+00  0.34044361547E+03  0.34044361547E+03  0.00000000000E+00 0.  1.
         21   -1    0    0  501  502 -0.00000000000E+00 -0.00000000000E+00 -0.15527892676E+03  0.15527892676E+03  0.00000000000E+00 0.  1.
      99926    2    1    2    0    0  0.71054273576E-14  0.00000000000E+00  0.18516468871E+03  0.49572254223E+03  0.45984223048E+03 0.  0.
      99925    2    3    3    0    0 -0.36421303582E+02 -0.10698003685E+03  0.15191608017E+03  0.32389641585E+03  0.26279108270E+03 0.  0.
         25    1    3    3    0    0  0.36421303582E+02  0.10698003685E+03  0.33248608539E+02  0.17182612639E+03  0.12509000000E+03 0.  0.
         25    1    4    4    0    0  0.11691157551E+02 -0.36231039855E+02  0.96589728774E+02  0.16256215801E+03  0.12509000000E+03 0.  0.
         25    1    4    4    0    0 -0.48112461133E+02 -0.70748996995E+02  0.55326351393E+02  0.16133425783E+03  0.12509000000E+03 0.  0.
<mgrwt>
<rscale>  2 0.45984223E+03</rscale>
<asrwt>0</asrwt>
<pdfrwt beam="1">  1       21 0.50065237E-01 0.45984223E+03</pdfrwt>
<pdfrwt beam="2">  1       21 0.22835136E-01 0.45984223E+03</pdfrwt>
<totfact> 0.63111075E+04</totfact>
</mgrwt>
</event>
<event>
 7    0  0.4712189E-002  0.4400858E+03  0.7546771E-02  0.1030720E+00
         21   -1    0    0  502  501  0.00000000000E+00  0.00000000000E+00  0.30528172529E+02  0.30528172529E+02  0.00000000000E+00 0. -1.
         21   -1    0    0  501  502 -0.00000000000E+00 -0.00000000000E+00 -0.15860390706E+04  0.15860390706E+04  0.00000000000E+00 0. -1.
      99926    2    1    2    0    0 -0.14210854715E-13  0.00000000000E+00 -0.15555108981E+04  0.16165672432E+04  0.44008578430E+03 0.  0.
      99925    2    3    3    0    0 -0.80193054431E+02  0.12005359540E+02 -0.78725333537E+03  0.83398034995E+03  0.26302158734E+03 0.  0.
         25    1    4    4    0    0 -0.68698141681E+00  0.14768311492E+02 -0.32591784971E+03  0.34941168816E+03  0.12509000000E+03 0.  0.
         25    1    3    3    0    0  0.80193054431E+02 -0.12005359540E+02 -0.76825756272E+03  0.78258689320E+03  0.12509000000E+03 0.  0.
         25    1    4    4    0    0 -0.79506073014E+02 -0.27629519521E+01 -0.46133548567E+03  0.48456866179E+03  0.12509000000E+03 0.  0.
<mgrwt>
<rscale>  2 0.44008578E+03</rscale>
<asrwt>0</asrwt>
<pdfrwt beam="1">  1       21 0.44894362E-02 0.44008578E+03</pdfrwt>
<pdfrwt beam="2">  1       21 0.23324109E+00 0.44008578E+03</pdfrwt>
<totfact> 0.23684376E+04</totfact>
</mgrwt>
</event>
<event>
 7    0  0.4712189E-002  0.4430331E+03  0.7546771E-02  0.1029820E+00
         21   -1    0    0  502  501  0.00000000000E+00  0.00000000000E+00  0.15150325671E+03  0.15150325671E+03  0.00000000000E+00 0.  1.
         21   -1    0    0  501  502 -0.00000000000E+00 -0.00000000000E+00 -0.32388460947E+03  0.32388460947E+03  0.00000000000E+00 0.  1.
      99926    2    1    2    0    0  0.00000000000E+00  0.00000000000E+00 -0.17238135276E+03  0.47538786618E+03  0.44303306031E+03 0.  0.
      99925    2    3    3    0    0  0.39729877542E+02  0.83168144320E+02 -0.15896824496E+03  0.31943010600E+03  0.26128391897E+03 0.  0.
         25    1    3    3    0    0 -0.39729877542E+02 -0.83168144320E+02 -0.13413107794E+02  0.15595776018E+03  0.12509000000E+03 0.  0.
         25    1    4    4    0    0  0.23981792909E+02  0.70216196338E+02 -0.54969064521E+02  0.15548166057E+03  0.12509000000E+03 0.  0.
         25    1    4    4    0    0  0.15748084633E+02  0.12951947982E+02 -0.10399918044E+03  0.16394844543E+03  0.12509000000E+03 0.  0.
<mgrwt>
<rscale>  2 0.44303306E+03</rscale>
<asrwt>0</asrwt>
<pdfrwt beam="1">  1       21 0.22279891E-01 0.44303306E+03</pdfrwt>
<pdfrwt beam="2">  1       21 0.47630090E-01 0.44303306E+03</pdfrwt>
<totfact> 0.73802796E+04</totfact>
</mgrwt>
</event>
<event>
 7    0  0.4712189E-002  0.4563653E+03  0.7546771E-02  0.1025841E+00
         21   -1    0    0  502  501  0.00000000000E+00  0.00000000000E+00  0.19463145381E+04  0.19463145381E+04  0.00000000000E+00 0.  1.
         21   -1    0    0  501  502 -0.00000000000E+00 -0.00000000000E+00 -0.26751752072E+02  0.26751752072E+02  0.00000000000E+00 0.  1.
      99926    2    1    2    0    0  0.00000000000E+00  0.00000000000E+00  0.19195627861E+04  0.19730662902E+04  0.45636530972E+03 0.  0.
      99925    2    3    3    0    0  0.10539779718E+03  0.40546692842E+02  0.12876889913E+04  0.13191054882E+04  0.26295174602E+03 0.  0.
         25    1    3    3    0    0 -0.10539779718E+03 -0.40546692842E+02  0.63187379482E+03  0.65396080207E+03  0.12509000000E+03 0.  0.
         25    1    4    4    0    0  0.73032027941E+02 -0.14095389277E+02  0.68842168489E+03  0.70363646965E+03  0.12509000000E+03 0.  0.
         25    1    4    4    0    0  0.32365769243E+02  0.54642082119E+02  0.59926730636E+03  0.61546901850E+03  0.12509000000E+03 0.  0.
<mgrwt>
<rscale>  2 0.45636531E+03</rscale>
<asrwt>0</asrwt>
<pdfrwt beam="1">  1       21 0.28622263E+00 0.45636531E+03</pdfrwt>
<pdfrwt beam="2">  1       21 0.39340825E-02 0.45636531E+03</pdfrwt>
<totfact> 0.14005592E+04</totfact>
</mgrwt>
</event>
<event>
 7    0  0.4712189E-002  0.4520003E+03  0.7546771E-02  0.1027127E+00
         21   -1    0    0  502  501  0.00000000000E+00  0.00000000000E+00  0.27624453847E+02  0.27624453847E+02  0.00000000000E+00 0.  1.
         21   -1    0    0  501  502 -0.00000000000E+00 -0.00000000000E+00 -0.18489437294E+04  0.18489437294E+04  0.00000000000E+00 0.  1.
      99926    2    1    2    0    0  0.00000000000E+00  0.17763568394E-14 -0.18213192756E+04  0.18765681833E+04  0.45200026867E+03 0.  0.
      99925    2    3    3    0    0 -0.49083046662E+02 -0.53928590888E+01 -0.15589362238E+04  0.15817282227E+04  0.26295207198E+03 0.  0.
         25    1    4    4    0    0  0.12203036440E+02 -0.20804410753E+02 -0.73631291549E+03  0.74725227013E+03  0.12509000000E+03 0.  0.
         25    1    3    3    0    0  0.49083046662E+02  0.53928590888E+01 -0.26238305177E+03  0.29483996058E+03  0.12509000000E+03 0.  0.
         25    1    4    4    0    0 -0.61286083102E+02  0.15411551664E+02 -0.82262330831E+03  0.83447595255E+03  0.12509000000E+03 0.  0.
<mgrwt>
<rscale>  2 0.45200027E+03</rscale>
<asrwt>0</asrwt>
<pdfrwt beam="1">  1       21 0.40624211E-02 0.45200027E+03</pdfrwt>
<pdfrwt beam="2">  1       21 0.27190340E+00 0.45200027E+03</pdfrwt>
<totfact> 0.16205516E+04</totfact>
</mgrwt>
</event>
<event>
 7    0  0.4712189E-002  0.4508399E+03  0.7546771E-02  0.1027472E+00
         21   -1    0    0  502  501  0.00000000000E+00  0.00000000000E+00  0.68528171837E+02  0.68528171837E+02  0.00000000000E+00 0. -1.
         21   -1    0    0  501  502 -0.00000000000E+00 -0.00000000000E+00 -0.74150736508E+03  0.74150736508E+03  0.00000000000E+00 0. -1.
      99926    2    1    2    0    0  0.14210854715E-13  0.00000000000E+00 -0.67297919324E+03  0.81003553692E+03  0.45083985686E+03 0.  0.
      99925    2    3    3    0    0  0.91220091115E+02 -0.39790027872E+02 -0.50600915786E+03  0.57888439122E+03  0.26297817251E+03 0.  0.
         25    1    4    4    0    0  0.32750549227E+02 -0.50727069614E+02 -0.30056265599E+03  0.33110610436E+03  0.12509000000E+03 0.  0.
         25    1    4    4    0    0  0.58469541888E+02  0.10937041742E+02 -0.20544650187E+03  0.24777828687E+03  0.12509000000E+03 0.  0.
         25    1    3    3    0    0 -0.91220091115E+02  0.39790027872E+02 -0.16697003538E+03  0.23115114570E+03  0.12509000000E+03 0.  0.
<mgrwt>
<rscale>  2 0.45083986E+03</rscale>
<asrwt>0</asrwt>
<pdfrwt beam="1">  1       21 0.10077672E-01 0.45083986E+03</pdfrwt>
<pdfrwt beam="2">  1       21 0.10904520E+00 0.45083986E+03</pdfrwt>
<totfact> 0.48858836E+04</totfact>
</mgrwt>
</event>
<event>
 7    0  0.4712189E-002  0.4680663E+03  0.7546771E-02  0.1022467E+00
         21   -1    0    0  502  501  0.00000000000E+00  0.00000000000E+00  0.18654671441E+03  0.18654671441E+03  0.00000000000E+00 0.  1.
         21   -1    0    0  501  502 -0.00000000000E+00 -0.00000000000E+00 -0.29360752992E+03  0.29360752992E+03  0.00000000000E+00 0.  1.
      99926    2    1    2    0    0  0.14210854715E-13 -0.14210854715E-13 -0.10706081551E+03  0.48015424433E+03  0.46806632022E+03 0.  0.
      99925    2    3    3    0    0  0.10223847730E+03 -0.62453606497E+02 -0.10281269760E+03  0.30689514987E+03  0.26317489056E+03 0.  0.
         25    1    4    4    0    0  0.72052857428E+02 -0.50843889527E+02 -0.22316981981E+02  0.15466826161E+03  0.12509000000E+03 0.  0.
         25    1    4    4    0    0  0.30185619876E+02 -0.11609716970E+02 -0.80495715617E+02  0.15222688826E+03  0.12509000000E+03 0.  0.
         25    1    3    3    0    0 -0.10223847730E+03  0.62453606497E+02 -0.42481179090E+01  0.17325909446E+03  0.12509000000E+03 0.  0.
<mgrwt>
<rscale>  2 0.46806632E+03</rscale>
<asrwt>0</asrwt>
<pdfrwt beam="1">  1       21 0.27433340E-01 0.46806632E+03</pdfrwt>
<pdfrwt beam="2">  1       21 0.43177578E-01 0.46806632E+03</pdfrwt>
<totfact> 0.60200351E+04</totfact>
</mgrwt>
</event>
<event>
 7    0  0.4712189E-002  0.4530578E+03  0.7546771E-02  0.1026814E+00
         21   -1    0    0  502  501  0.00000000000E+00  0.00000000000E+00  0.73348075526E+02  0.73348075526E+02  0.00000000000E+00 0. -1.
         21   -1    0    0  501  502 -0.00000000000E+00 -0.00000000000E+00 -0.69961394098E+03  0.69961394098E+03  0.00000000000E+00 0. -1.
      99926    2    1    2    0    0  0.14210854715E-13  0.27755575616E-16 -0.62626586545E+03  0.77296201650E+03  0.45305777195E+03 0.  0.
      99925    2    3    3    0    0 -0.71631634523E+02 -0.14344083767E+00 -0.54018198129E+03  0.60506605213E+03  0.26301567043E+03 0.  0.
         25    1    4    4    0    0 -0.68444428714E+02 -0.19354104188E+02 -0.24969187201E+03  0.28818875796E+03  0.12509000000E+03 0.  0.
         25    1    4    4    0    0 -0.31872058087E+01  0.19210663350E+02 -0.29049010928E+03  0.31687729417E+03  0.12509000000E+03 0.  0.
         25    1    3    3    0    0  0.71631634523E+02  0.14344083767E+00 -0.86083884160E+02  0.16789596437E+03  0.12509000000E+03 0.  0.
<mgrwt>
<rscale>  2 0.45305777E+03</rscale>
<asrwt>0</asrwt>
<pdfrwt beam="1">  1       21 0.10786481E-01 0.45305777E+03</pdfrwt>
<pdfrwt beam="2">  1       21 0.10288441E+00 0.45305777E+03</pdfrwt>
<totfact> 0.49856186E+04</totfact>
</mgrwt>
</event>
<event>
 7    0  0.4712189E-002  0.4595488E+03  0.7546771E-02  0.1024912E+00
         21   -1    0    0  502  501  0.00000000000E+00  0.00000000000E+00  0.19137456285E+03  0.19137456285E+03  0.00000000000E+00 0. -1.
         21   -1    0    0  501  502 -0.00000000000E+00 -0.00000000000E+00 -0.27587923012E+03  0.27587923012E+03  0.00000000000E+00 0. -1.
      99926    2    1    2    0    0  0.00000000000E+00  0.00000000000E+00 -0.84504667278E+02  0.46725379297E+03  0.45954876591E+03 0.  0.
      99925    2    3    3    0    0  0.14538631614E+02  0.85023224686E+02  0.28082031778E+02  0.27814114546E+03  0.26293264488E+03 0.  0.
         25    1    3    3    0    0 -0.14538631614E+02 -0.85023224686E+02 -0.11258669906E+03  0.18911264751E+03  0.12509000000E+03 0.  0.
         25    1    4    4    0    0 -0.22220698783E+02  0.20877808493E+02 -0.60040018376E+01  0.12889219713E+03  0.12509000000E+03 0.  0.
         25    1    4    4    0    0  0.36759330397E+02  0.64145416193E+02  0.34086033616E+02  0.14924894833E+03  0.12509000000E+03 0.  0.
<mgrwt>
<rscale>  2 0.45954877E+03</rscale>
<asrwt>0</asrwt>
<pdfrwt beam="1">  1       21 0.28143318E-01 0.45954877E+03</pdfrwt>
<pdfrwt beam="2">  1       21 0.40570474E-01 0.45954877E+03</pdfrwt>
<totfact> 0.65251598E+04</totfact>
</mgrwt>
</event>
<event>
 7    0  0.4712189E-002  0.4391026E+03  0.7546771E-02  0.1031022E+00
         21   -1    0    0  502  501  0.00000000000E+00  0.00000000000E+00  0.13975154780E+03  0.13975154780E+03  0.00000000000E+00 0. -1.
         21   -1    0    0  501  502 -0.00000000000E+00 -0.00000000000E+00 -0.34491770796E+03  0.34491770796E+03  0.00000000000E+00 0. -1.
      99926    2    1    2    0    0  0.00000000000E+00  0.00000000000E+00 -0.20516616015E+03  0.48466925576E+03  0.43910264655E+03 0.  0.
      99925    2    3    3    0    0  0.68726098579E+02 -0.68788249777E+02 -0.13792024643E+03  0.31255121212E+03  0.26308015108E+03 0.  0.
         25    1    3    3    0    0 -0.68726098579E+02  0.68788249777E+02 -0.67245913726E+02  0.17211804364E+03  0.12509000000E+03 0.  0.
         25    1    4    4    0    0  0.59788144671E+02 -0.30368336085E+02 -0.35946019285E+02  0.14641202984E+03  0.12509000000E+03 0.  0.
         25    1    4    4    0    0  0.89379539077E+01 -0.38419913691E+02 -0.10197422714E+03  0.16613918228E+03  0.12509000000E+03 0.  0.
<mgrwt>
<rscale>  2 0.43910265E+03</rscale>
<asrwt>0</asrwt>
<pdfrwt beam="1">  1       21 0.20551699E-01 0.43910265E+03</pdfrwt>
<pdfrwt beam="2">  1       21 0.50723191E-01 0.43910265E+03</pdfrwt>
<totfact> 0.75442523E+04</totfact>
</mgrwt>
</event>
<event>
 7    0  0.4712189E-002  0.4651547E+03  0.7546771E-02  0.1023297E+00
         21   -1    0    0  502  501  0.00000000000E+00  0.00000000000E+00  0.30635227675E+03  0.30635227675E+03  0.00000000000E+00 0.  1.
         21   -1    0    0  501  502 -0.00000000000E+00 -0.00000000000E+00 -0.17656873735E+03  0.17656873735E+03  0.00000000000E+00 0.  1.
      99926    2    1    2    0    0  0.00000000000E+00  0.00000000000E+00  0.12978353940E+03  0.48292101410E+03  0.46515474711E+03 0.  0.
      99925    2    3    3    0    0 -0.92001902362E+02  0.43834744500E+02  0.93105863144E+01  0.28155797035E+03  0.26230205639E+03 0.  0.
         25    1    3    3    0    0  0.92001902362E+02 -0.43834744500E+02  0.12047295308E+03  0.20136304375E+03  0.12509000000E+03 0.  0.
         25    1    4    4    0    0 -0.83623821165E+02  0.33018459766E+02 -0.94211819400E+01  0.15433544285E+03  0.12509000000E+03 0.  0.
         25    1    4    4    0    0 -0.83780811971E+01  0.10816284733E+02  0.18731768254E+02  0.12722252749E+03  0.12509000000E+03 0.  0.
<mgrwt>
<rscale>  2 0.46515475E+03</rscale>
<asrwt>0</asrwt>
<pdfrwt beam="1">  1       21 0.45051806E-01 0.46515475E+03</pdfrwt>
<pdfrwt beam="2">  1       21 0.25965991E-01 0.46515475E+03</pdfrwt>
<totfact> 0.61389341E+04</totfact>
</mgrwt>
</event>
<event>
 7    0  0.4712189E-002  0.4529054E+03  0.7546771E-02  0.1026859E+00
         21   -1    0    0  502  501  0.00000000000E+00  0.00000000000E+00  0.47018008126E+02  0.47018008126E+02  0.00000000000E+00 0. -1.
         21   -1    0    0  501  502 -0.00000000000E+00 -0.00000000000E+00 -0.10906632992E+04  0.10906632992E+04  0.00000000000E+00 0. -1.
      99926    2    1    2    0    0  0.00000000000E+00  0.00000000000E+00 -0.10436452910E+04  0.11376813073E+04  0.45290535816E+03 0.  0.
      99925    2    3    3    0    0  0.10078675648E+03 -0.48755802145E+02 -0.66965203512E+03  0.72773794279E+03  0.26198008839E+03 0.  0.
         25    1    4    4    0    0  0.24029089538E+02 -0.44345038098E+02 -0.37524460023E+03  0.39874791241E+03  0.12509000000E+03 0.  0.
         25    1    3    3    0    0 -0.10078675648E+03  0.48755802145E+02 -0.37399325591E+03  0.40994336449E+03  0.12509000000E+03 0.  0.
         25    1    4    4    0    0  0.76757666940E+02 -0.44107640472E+01 -0.29440743490E+03  0.32899003039E+03  0.12509000000E+03 0.  0.
<mgrwt>
<rscale>  2 0.45290536E+03</rscale>
<asrwt>0</asrwt>
<pdfrwt beam="1">  1       21 0.69144130E-02 0.45290536E+03</pdfrwt>
<pdfrwt beam="2">  1       21 0.16039166E+00 0.45290536E+03</pdfrwt>
<totfact> 0.34760411E+04</totfact>
</mgrwt>
</event>
<event>
 7    0  0.4712189E-002  0.4372457E+03  0.7546771E-02  0.1031595E+00
         21   -1    0    0  502  501  0.00000000000E+00  0.00000000000E+00  0.97112727894E+03  0.97112727894E+03  0.00000000000E+00 0.  1.
         21   -1    0    0  501  502 -0.00000000000E+00 -0.00000000000E+00 -0.49216989682E+02  0.49216989682E+02  0.00000000000E+00 0.  1.
      99926    2    1    2    0    0  0.00000000000E+00  0.00000000000E+00  0.92191028926E+03  0.10203442686E+04  0.43724574906E+03 0.  0.
      99925    2    3    3    0    0  0.93110825377E+02  0.21214306087E+02  0.59109839207E+03  0.65400604784E+03  0.26307209833E+03 0.  0.
         25    1    4    4    0    0  0.50801501046E+02  0.12437271661E+02  0.39332310682E+03  0.41603611946E+03  0.12509000000E+03 0.  0.
         25    1    3    3    0    0 -0.93110825377E+02 -0.21214306087E+02  0.33081189719E+03  0.36633822079E+03  0.12509000000E+03 0.  0.
         25    1    4    4    0    0  0.42309324330E+02  0.87770344260E+01  0.19777528525E+03  0.23796992838E+03  0.12509000000E+03 0.  0.
<mgrwt>
<rscale>  2 0.43724575E+03</rscale>
<asrwt>0</asrwt>
<pdfrwt beam="1">  1       21 0.14281282E+00 0.43724575E+03</pdfrwt>
<pdfrwt beam="2">  1       21 0.72377932E-02 0.43724575E+03</pdfrwt>
<totfact> 0.44201308E+04</totfact>
</mgrwt>
</event>
<event>
 7    0  0.4712189E-002  0.4679190E+03  0.7546771E-02  0.1022509E+00
         21   -1    0    0  502  501  0.00000000000E+00  0.00000000000E+00  0.25657941089E+03  0.25657941089E+03  0.00000000000E+00 0. -1.
         21   -1    0    0  501  502 -0.00000000000E+00 -0.00000000000E+00 -0.21333371849E+03  0.21333371849E+03  0.00000000000E+00 0. -1.
      99926    2    1    2    0    0  0.00000000000E+00 -0.17763568394E-14  0.43245692393E+02  0.46991312938E+03  0.46791896655E+03 0.  0.
      99925    2    3    3    0    0 -0.12229261011E+03 -0.14357301369E+02  0.59871131717E+01  0.29047700031E+03  0.26301982358E+03 0.  0.
         25    1    4    4    0    0 -0.61467330426E+02  0.28468599872E+02 -0.16516330186E+02  0.14320960565E+03  0.12509000000E+03 0.  0.
         25    1    3    3    0    0  0.12229261011E+03  0.14357301369E+02  0.37258579222E+02  0.17943612907E+03  0.12509000000E+03 0.  0.
         25    1    4    4    0    0 -0.60825279686E+02 -0.42825901241E+02  0.22503443358E+02  0.14726739466E+03  0.12509000000E+03 0.  0.
<mgrwt>
<rscale>  2 0.46791897E+03</rscale>
<asrwt>0</asrwt>
<pdfrwt beam="1">  1       21 0.37732266E-01 0.46791897E+03</pdfrwt>
<pdfrwt beam="2">  1       21 0.31372606E-01 0.46791897E+03</pdfrwt>
<totfact> 0.60939040E+04</totfact>
</mgrwt>
</event>
<event>
 7    0  0.4712189E-002  0.4451252E+03  0.7546771E-02  0.1029186E+00
         21   -1    0    0  502  501  0.00000000000E+00  0.00000000000E+00  0.80889813180E+03  0.80889813180E+03  0.00000000000E+00 0. -1.
         21   -1    0    0  501  502 -0.00000000000E+00 -0.00000000000E+00 -0.61236535067E+02  0.61236535067E+02  0.00000000000E+00 0. -1.
      99926    2    1    2    0    0  0.00000000000E+00  0.00000000000E+00  0.74766159673E+03  0.87013466687E+03  0.44512523547E+03 0.  0.
      99925    2    3    3    0    0  0.48615428408E+02  0.34992259857E+02  0.64006449561E+03  0.69459959231E+03  0.26305534963E+03 0.  0.
         25    1    3    3    0    0 -0.48615428408E+02 -0.34992259857E+02  0.10759710112E+03  0.17553507455E+03  0.12509000000E+03 0.  0.
         25    1    4    4    0    0  0.16287840379E+02  0.23728359964E+02  0.21718306638E+03  0.25227826151E+03  0.12509000000E+03 0.  0.
         25    1    4    4    0    0  0.32327588030E+02  0.11263899893E+02  0.42288142924E+03  0.44232133080E+03  0.12509000000E+03 0.  0.
<mgrwt>
<rscale>  2 0.44512524E+03</rscale>
<asrwt>0</asrwt>
<pdfrwt beam="1">  1       21 0.11895560E+00 0.44512524E+03</pdfrwt>
<pdfrwt beam="2">  1       21 0.90053733E-02 0.44512524E+03</pdfrwt>
<totfact> 0.48169428E+04</totfact>
</mgrwt>
</event>
<event>
 7    0  0.4712189E-002  0.4570141E+03  0.7546771E-02  0.1025651E+00
         21   -1    0    0  502  501  0.00000000000E+00  0.00000000000E+00  0.17523811135E+02  0.17523811135E+02  0.00000000000E+00 0. -1.
         21   -1    0    0  501  502 -0.00000000000E+00 -0.00000000000E+00 -0.29796867887E+04  0.29796867887E+04  0.00000000000E+00 0. -1.
      99926    2    1    2    0    0  0.35527136788E-14  0.00000000000E+00 -0.29621629776E+04  0.29972105999E+04  0.45701408525E+03 0.  0.
      99925    2    3    3    0    0 -0.29051466243E+02 -0.11016045537E+03 -0.17560532074E+04  0.17792912267E+04  0.26301157513E+03 0.  0.
         25    1    4    4    0    0  0.23177655048E+02 -0.61227976578E+02 -0.78373612240E+03  0.79635160982E+03  0.12509000000E+03 0.  0.
         25    1    4    4    0    0 -0.52229121291E+02 -0.48932478796E+02 -0.97231708495E+03  0.98293961686E+03  0.12509000000E+03 0.  0.
         25    1    3    3    0    0  0.29051466243E+02  0.11016045537E+03 -0.12061097703E+04  0.12179193732E+04  0.12509000000E+03 0.  0.
<mgrwt>
<rscale>  2 0.45701409E+03</rscale>
<asrwt>0</asrwt>
<pdfrwt beam="1">  1       21 0.25770337E-02 0.45701409E+03</pdfrwt>
<pdfrwt beam="2">  1       21 0.43818878E+00 0.45701409E+03</pdfrwt>
<totfact> 0.32122900E+03</totfact>
</mgrwt>
</event>
<event>
 7    0  0.4712189E-002  0.4566786E+03  0.7546771E-02  0.1025749E+00
         21   -1    0    0  502  501  0.00000000000E+00  0.00000000000E+00  0.38578011398E+03  0.38578011398E+03  0.00000000000E+00 0. -1.
         21   -1    0    0  501  502 -0.00000000000E+00 -0.00000000000E+00 -0.13515171245E+03  0.13515171245E+03  0.00000000000E+00 0. -1.
      99926    2    1    2    0    0  0.00000000000E+00  0.14210854715E-13  0.25062840153E+03  0.52093182643E+03  0.45667863114E+03 0.  0.
      99925    2    3    3    0    0 -0.37771160616E+01  0.11165419452E+03  0.18724596480E+03  0.34163941961E+03  0.26301238742E+03 0.  0.
         25    1    4    4    0    0 -0.22585362191E+02  0.91610548954E+02  0.88778941186E+02  0.18008831101E+03  0.12509000000E+03 0.  0.
         25    1    4    4    0    0  0.18808246130E+02  0.20043645564E+02  0.98467023618E+02  0.16155110860E+03  0.12509000000E+03 0.  0.
         25    1    3    3    0    0  0.37771160616E+01 -0.11165419452E+03  0.63382436722E+02  0.17929240682E+03  0.12509000000E+03 0.  0.
<mgrwt>
<rscale>  2 0.45667863E+03</rscale>
<asrwt>0</asrwt>
<pdfrwt beam="1">  1       21 0.56732370E-01 0.45667863E+03</pdfrwt>
<pdfrwt beam="2">  1       21 0.19875252E-01 0.45667863E+03</pdfrwt>
<totfact> 0.62980858E+04</totfact>
</mgrwt>
</event>
<event>
 7    0  0.4712189E-002  0.4568528E+03  0.7546771E-02  0.1025698E+00
         21   -1    0    0  502  501  0.00000000000E+00  0.00000000000E+00  0.14675896804E+03  0.14675896804E+03  0.00000000000E+00 0. -1.
         21   -1    0    0  501  502 -0.00000000000E+00 -0.00000000000E+00 -0.35553955428E+03  0.35553955428E+03  0.00000000000E+00 0. -1.
      99926    2    1    2    0    0  0.00000000000E+00  0.00000000000E+00 -0.20878058625E+03  0.50229852232E+03  0.45685279066E+03 0.  0.
      99925    2    3    3    0    0 -0.88980160421E+02 -0.43254099160E+02 -0.66639128177E+02  0.28866311270E+03  0.26286352578E+03 0.  0.
         25    1    4    4    0    0 -0.32115217152E+02  0.16968729939E+02 -0.40247980941E+02  0.13633316925E+03  0.12509000000E+03 0.  0.
         25    1    4    4    0    0 -0.56864943269E+02 -0.60222829099E+02 -0.26391147235E+02  0.15232994345E+03  0.12509000000E+03 0.  0.
         25    1    3    3    0    0  0.88980160421E+02  0.43254099160E+02 -0.14214145807E+03  0.21363540962E+03  0.12509000000E+03 0.  0.
<mgrwt>
<rscale>  2 0.45685279E+03</rscale>
<asrwt>0</asrwt>
<pdfrwt beam="1">  1       21 0.21582202E-01 0.45685279E+03</pdfrwt>
<pdfrwt beam="2">  1       21 0.52285228E-01 0.45685279E+03</pdfrwt>
<totfact> 0.64160653E+04</totfact>
</mgrwt>
</event>
<event>
 7    0  0.4712189E-002  0.4440402E+03  0.7546771E-02  0.1029514E+00
         21   -1    0    0  502  501  0.00000000000E+00  0.00000000000E+00  0.60082084972E+03  0.60082084972E+03  0.00000000000E+00 0.  1.
         21   -1    0    0  501  502 -0.00000000000E+00 -0.00000000000E+00 -0.82042630172E+02  0.82042630172E+02  0.00000000000E+00 0.  1.
      99926    2    1    2    0    0  0.00000000000E+00  0.00000000000E+00  0.51877821954E+03  0.68286347989E+03  0.44404019085E+03 0.  0.
      99925    2    3    3    0    0  0.19053954395E+02 -0.26597493404E+02  0.18108551001E+03  0.32126376473E+03  0.26334001738E+03 0.  0.
         25    1    4    4    0    0 -0.86736921956E+00 -0.15390207315E+02  0.42094424726E+02  0.13287986869E+03  0.12509000000E+03 0.  0.
         25    1    3    3    0    0 -0.19053954395E+02  0.26597493404E+02  0.33769270953E+03  0.36159971516E+03  0.12509000000E+03 0.  0.
         25    1    4    4    0    0  0.19921323615E+02 -0.11207286090E+02  0.13899108529E+03  0.18838389603E+03  0.12509000000E+03 0.  0.
<mgrwt>
<rscale>  2 0.44404019E+03</rscale>
<asrwt>0</asrwt>
<pdfrwt beam="1">  1       21 0.88356005E-01 0.44404019E+03</pdfrwt>
<pdfrwt beam="2">  1       21 0.12065093E-01 0.44404019E+03</pdfrwt>
<totfact> 0.58751461E+04</totfact>
</mgrwt>
</event>
<event>
 7    0  0.4712189E-002  0.4530628E+03  0.7546771E-02  0.1026813E+00
         21   -1    0    0  502  501  0.00000000000E+00  0.00000000000E+00  0.35240396520E+03  0.35240396520E+03  0.00000000000E+00 0. -1.
         21   -1    0    0  501  502 -0.00000000000E+00 -0.00000000000E+00 -0.14561833827E+03  0.14561833827E+03  0.00000000000E+00 0. -1.
      99926    2    1    2    0    0  0.00000000000E+00  0.00000000000E+00  0.20678562693E+03  0.49802230348E+03  0.45306282043E+03 0.  0.
      99925    2    3    3    0    0  0.92887803470E+02  0.44065175590E+02  0.83227777798E+02  0.29434625207E+03  0.26295050747E+03 0.  0.
         25    1    4    4    0    0  0.73552408707E+02  0.48131796468E+02  0.24829077721E+02  0.15488905016E+03  0.12509000000E+03 0.  0.
         25    1    4    4    0    0  0.19335394763E+02 -0.40666208780E+01  0.58398700077E+02  0.13945720192E+03  0.12509000000E+03 0.  0.
         25    1    3    3    0    0 -0.92887803470E+02 -0.44065175590E+02  0.12355784913E+03  0.20367605140E+03  0.12509000000E+03 0.  0.
<mgrwt>
<rscale>  2 0.45306282E+03</rscale>
<asrwt>0</asrwt>
<pdfrwt beam="1">  1       21 0.51824112E-01 0.45306282E+03</pdfrwt>
<pdfrwt beam="2">  1       21 0.21414462E-01 0.45306282E+03</pdfrwt>
<totfact> 0.66425427E+04</totfact>
</mgrwt>
</event>
<event>
 7    0  0.4712189E-002  0.4523778E+03  0.7546771E-02  0.1027015E+00
         21   -1    0    0  502  501  0.00000000000E+00  0.00000000000E+00  0.34901316286E+02  0.34901316286E+02  0.00000000000E+00 0.  1.
         21   -1    0    0  501  502 -0.00000000000E+00 -0.00000000000E+00 -0.14658877383E+04  0.14658877383E+04  0.00000000000E+00 0.  1.
      99926    2    1    2    0    0 -0.71054273576E-14  0.00000000000E+00 -0.14309864220E+04  0.15007890546E+04  0.45237776954E+03 0.  0.
      99925    2    3    3    0    0 -0.41952461043E+02 -0.93070302757E+02 -0.10445194006E+04  0.10819497573E+04  0.26300648046E+03 0.  0.
         25    1    4    4    0    0  0.30741711321E+00 -0.54319777957E+02 -0.64909972927E+03  0.66327121106E+03  0.12509000000E+03 0.  0.
         25    1    3    3    0    0  0.41952461043E+02  0.93070302757E+02 -0.38646702139E+03  0.41883929730E+03  0.12509000000E+03 0.  0.
         25    1    4    4    0    0 -0.42259878157E+02 -0.38750524800E+02 -0.39541967134E+03  0.41867854621E+03  0.12509000000E+03 0.  0.
<mgrwt>
<rscale>  2 0.45237777E+03</rscale>
<asrwt>0</asrwt>
<pdfrwt beam="1">  1       21 0.51325464E-02 0.45237777E+03</pdfrwt>
<pdfrwt beam="2">  1       21 0.21557173E+00 0.45237777E+03</pdfrwt>
<totfact> 0.24249956E+04</totfact>
</mgrwt>
</event>
<event>
 7    0  0.4712189E-002  0.4338188E+03  0.7546771E-02  0.1032660E+00
         21   -1    0    0  502  501  0.00000000000E+00  0.00000000000E+00  0.79554890699E+03  0.79554890699E+03  0.00000000000E+00 0. -1.
         21   -1    0    0  501  502 -0.00000000000E+00 -0.00000000000E+00 -0.59141152155E+02  0.59141152155E+02  0.00000000000E+00 0. -1.
      99926    2    1    2    0    0 -0.14210854715E-13 -0.17763568394E-14  0.73640775484E+03  0.85469005914E+03  0.43381875918E+03 0.  0.
      99925    2    3    3    0    0 -0.74087347918E+02 -0.81835167625E+00  0.58014434115E+03  0.64125302539E+03  0.26296079781E+03 0.  0.
         25    1    3    3    0    0  0.74087347918E+02  0.81835167625E+00  0.15626341368E+03  0.21343703375E+03  0.12509000000E+03 0.  0.
         25    1    4    4    0    0 -0.53138039601E+02 -0.34310854694E+02  0.33675595557E+03  0.36476426321E+03  0.12509000000E+03 0.  0.
         25    1    4    4    0    0 -0.20949308318E+02  0.33492503017E+02  0.24338838558E+03  0.27648876218E+03  0.12509000000E+03 0.  0.
<mgrwt>
<rscale>  2 0.43381876E+03</rscale>
<asrwt>0</asrwt>
<pdfrwt beam="1">  1       21 0.11699248E+00 0.43381876E+03</pdfrwt>
<pdfrwt beam="2">  1       21 0.86972287E-02 0.43381876E+03</pdfrwt>
<totfact> 0.53593603E+04</totfact>
</mgrwt>
</event>
<event>
 7    0  0.4712189E-002  0.4580279E+03  0.7546771E-02  0.1025355E+00
         21   -1    0    0  502  501  0.00000000000E+00  0.00000000000E+00  0.72108218815E+02  0.72108218815E+02  0.00000000000E+00 0. -1.
         21   -1    0    0  501  502 -0.00000000000E+00 -0.00000000000E+00 -0.72734275701E+03  0.72734275701E+03  0.00000000000E+00 0. -1.
      99926    2    1    2    0    0  0.00000000000E+00  0.00000000000E+00 -0.65523453820E+03  0.79945097583E+03  0.45802790603E+03 0.  0.
      99925    2    3    3    0    0 -0.91044484552E+02 -0.70043416971E+02 -0.38413899298E+03  0.47955180239E+03  0.26308171130E+03 0.  0.
         25    1    4    4    0    0 -0.64512083058E+02 -0.37269605187E+02 -0.26185414803E+03  0.29960963815E+03  0.12509000000E+03 0.  0.
         25    1    4    4    0    0 -0.26532401494E+02 -0.32773811784E+02 -0.12228484495E+03  0.17994216424E+03  0.12509000000E+03 0.  0.
         25    1    3    3    0    0  0.91044484552E+02  0.70043416971E+02 -0.27109554522E+03  0.31989917344E+03  0.12509000000E+03 0.  0.
<mgrwt>
<rscale>  2 0.45802791E+03</rscale>
<asrwt>0</asrwt>
<pdfrwt beam="1">  1       21 0.10604150E-01 0.45802791E+03</pdfrwt>
<pdfrwt beam="2">  1       21 0.10696217E+00 0.45802791E+03</pdfrwt>
<totfact> 0.46672402E+04</totfact>
</mgrwt>
</event>
<event>
 7    0  0.4712189E-002  0.4607804E+03  0.7546771E-02  0.1024555E+00
         21   -1    0    0  502  501  0.00000000000E+00  0.00000000000E+00  0.40455324284E+03  0.40455324284E+03  0.00000000000E+00 0.  1.
         21   -1    0    0  501  502 -0.00000000000E+00 -0.00000000000E+00 -0.13120556805E+03  0.13120556805E+03  0.00000000000E+00 0.  1.
      99926    2    1    2    0    0  0.00000000000E+00  0.00000000000E+00  0.27334767479E+03  0.53575881090E+03  0.46078037300E+03 0.  0.
      99925    2    3    3    0    0  0.11386437761E+03 -0.29235301034E+02  0.15351540429E+03  0.32640962779E+03  0.26297617086E+03 0.  0.
         25    1    3    3    0    0 -0.11386437761E+03  0.29235301034E+02  0.11983227050E+03  0.20934918311E+03  0.12509000000E+03 0.  0.
         25    1    4    4    0    0  0.69907876027E+02 -0.53589052048E+02  0.88491362686E+02  0.17674028120E+03  0.12509000000E+03 0.  0.
         25    1    4    4    0    0  0.43956501585E+02  0.24353751014E+02  0.65024041603E+02  0.14966934658E+03  0.12509000000E+03 0.  0.
<mgrwt>
<rscale>  2 0.46078037E+03</rscale>
<asrwt>0</asrwt>
<pdfrwt beam="1">  1       21 0.59493124E-01 0.46078037E+03</pdfrwt>
<pdfrwt beam="2">  1       21 0.19294937E-01 0.46078037E+03</pdfrwt>
<totfact> 0.60021137E+04</totfact>
</mgrwt>
</event>
<event>
 7    0  0.4712189E-002  0.4573771E+03  0.7546771E-02  0.1025545E+00
         21   -1    0    0  502  501  0.00000000000E+00  0.00000000000E+00  0.26913505064E+03  0.26913505064E+03  0.00000000000E+00 0. -1.
         21   -1    0    0  501  502 -0.00000000000E+00 -0.00000000000E+00 -0.19432044747E+03  0.19432044747E+03  0.00000000000E+00 0. -1.
      99926    2    1    2    0    0 -0.35527136788E-14  0.00000000000E+00  0.74814603176E+02  0.46345549811E+03  0.45737705876E+03 0.  0.
      99925    2    3    3    0    0 -0.20552302463E+02  0.36971085814E+02 -0.61970980820E+02  0.27333169000E+03  0.26283179406E+03 0.  0.
         25    1    4    4    0    0 -0.37799570096E+02  0.33300478533E+02 -0.55198289627E+01  0.13496557332E+03  0.12509000000E+03 0.  0.
         25    1    3    3    0    0  0.20552302463E+02 -0.36971085814E+02  0.13678558400E+03  0.19012380811E+03  0.12509000000E+03 0.  0.
         25    1    4    4    0    0  0.17247267633E+02  0.36706072818E+01 -0.56451151857E+02  0.13836611668E+03  0.12509000000E+03 0.  0.
<mgrwt>
<rscale>  2 0.45737706E+03</rscale>
<asrwt>0</asrwt>
<pdfrwt beam="1">  1       21 0.39578684E-01 0.45737706E+03</pdfrwt>
<pdfrwt beam="2">  1       21 0.28576536E-01 0.45737706E+03</pdfrwt>
<totfact> 0.66656403E+04</totfact>
</mgrwt>
</event>
<event>
 7    0  0.4712189E-002  0.4512175E+03  0.7546771E-02  0.1027360E+00
         21   -1    0    0  502  501  0.00000000000E+00  0.00000000000E+00  0.77900157853E+03  0.77900157853E+03  0.00000000000E+00 0.  1.
         21   -1    0    0  501  502 -0.00000000000E+00 -0.00000000000E+00 -0.65339163453E+02  0.65339163453E+02  0.00000000000E+00 0.  1.
      99926    2    1    2    0    0  0.00000000000E+00  0.00000000000E+00  0.71366241507E+03  0.84434074198E+03  0.45121751504E+03 0.  0.
      99925    2    3    3    0    0  0.63896200587E+02  0.88438663956E+02  0.43408606733E+03  0.51920298033E+03  0.26312905427E+03 0.  0.
         25    1    4    4    0    0  0.29899065493E+02  0.30485478107E+02  0.13945870514E+03  0.19214462530E+03  0.12509000000E+03 0.  0.
         25    1    4    4    0    0  0.33997135094E+02  0.57953185848E+02  0.29462736219E+03  0.32705835503E+03  0.12509000000E+03 0.  0.
         25    1    3    3    0    0 -0.63896200587E+02 -0.88438663956E+02  0.27957634774E+03  0.32513776165E+03  0.12509000000E+03 0.  0.
<mgrwt>
<rscale>  2 0.45121752E+03</rscale>
<asrwt>0</asrwt>
<pdfrwt beam="1">  1       21 0.11455905E+00 0.45121752E+03</pdfrwt>
<pdfrwt beam="2">  1       21 0.96087010E-02 0.45121752E+03</pdfrwt>
<totfact> 0.47075018E+04</totfact>
</mgrwt>
</event>
<event>
 7    0  0.4712189E-002  0.4549004E+03  0.7546771E-02  0.1026271E+00
         21   -1    0    0  502  501  0.00000000000E+00  0.00000000000E+00  0.61304412681E+02  0.61304412681E+02  0.00000000000E+00 0. -1.
         21   -1    0    0  501  502 -0.00000000000E+00 -0.00000000000E+00 -0.84388050143E+03  0.84388050143E+03  0.00000000000E+00 0. -1.
      99926    2    1    2    0    0 -0.88817841970E-15  0.35527136788E-14 -0.78257608875E+03  0.90518491411E+03  0.45490042213E+03 0.  0.
      99925    2    3    3    0    0  0.63390746319E+01 -0.30348344279E+02 -0.70886842265E+03  0.75672099927E+03  0.26300384834E+03 0.  0.
         25    1    4    4    0    0  0.20287588519E+02  0.16772131029E+02 -0.39859216777E+03  0.41858824032E+03  0.12509000000E+03 0.  0.
         25    1    3    3    0    0 -0.63390746319E+01  0.30348344279E+02 -0.73707666097E+02  0.14846391484E+03  0.12509000000E+03 0.  0.
         25    1    4    4    0    0 -0.13948513887E+02 -0.47120475307E+02 -0.31027625488E+03  0.33813275895E+03  0.12509000000E+03 0.  0.
<mgrwt>
<rscale>  2 0.45490042E+03</rscale>
<asrwt>0</asrwt>
<pdfrwt beam="1">  1       21 0.90153556E-02 0.45490042E+03</pdfrwt>
<pdfrwt beam="2">  1       21 0.12410006E+00 0.45490042E+03</pdfrwt>
<totfact> 0.43043838E+04</totfact>
</mgrwt>
</event>
<event>
 7    0  0.4712189E-002  0.4517829E+03  0.7546771E-02  0.1027192E+00
         21   -1    0    0  502  501  0.00000000000E+00  0.00000000000E+00  0.32793716528E+03  0.32793716528E+03  0.00000000000E+00 0.  1.
         21   -1    0    0  501  502 -0.00000000000E+00 -0.00000000000E+00 -0.15559978149E+03  0.15559978149E+03  0.00000000000E+00 0.  1.
      99926    2    1    2    0    0 -0.44408920985E-15 -0.14210854715E-13  0.17233738379E+03  0.48353694677E+03  0.45178291805E+03 0.  0.
      99925    2    3    3    0    0  0.30263286414E+01 -0.10934716450E+03  0.97073953282E+02  0.30111421485E+03  0.26321181001E+03 0.  0.
         25    1    4    4    0    0 -0.14331005166E+02 -0.89843329827E+02  0.73178960679E+02  0.17111361725E+03  0.12509000000E+03 0.  0.
         25    1    4    4    0    0  0.17357333807E+02 -0.19503834673E+02  0.23894992603E+02  0.13000059760E+03  0.12509000000E+03 0.  0.
         25    1    3    3    0    0 -0.30263286414E+01  0.10934716450E+03  0.75263430508E+02  0.18242273192E+03  0.12509000000E+03 0.  0.
<mgrwt>
<rscale>  2 0.45178292E+03</rscale>
<asrwt>0</asrwt>
<pdfrwt beam="1">  1       21 0.48226054E-01 0.45178292E+03</pdfrwt>
<pdfrwt beam="2">  1       21 0.22882321E-01 0.45178292E+03</pdfrwt>
<totfact> 0.68167868E+04</totfact>
</mgrwt>
</event>
<event>
 7    0  0.4712189E-002  0.4481179E+03  0.7546771E-02  0.1028285E+00
         21   -1    0    0  502  501  0.00000000000E+00  0.00000000000E+00  0.11921298177E+04  0.11921298177E+04  0.00000000000E+00 0.  1.
         21   -1    0    0  501  502 -0.00000000000E+00 -0.00000000000E+00 -0.42111533951E+02  0.42111533951E+02  0.00000000000E+00 0.  1.
      99926    2    1    2    0    0 -0.71054273576E-14  0.00000000000E+00  0.11500182838E+04  0.12342413517E+04  0.44811790990E+03 0.  0.
      99925    2    3    3    0    0  0.54487069012E+02 -0.83246326928E+02  0.83316360822E+03  0.87935660256E+03  0.26307345887E+03 0.  0.
         25    1    4    4    0    0  0.18794188965E+02 -0.26974423917E+02  0.51604365513E+03  0.53200507816E+03  0.12509000000E+03 0.  0.
         25    1    3    3    0    0 -0.54487069012E+02  0.83246326928E+02  0.31685467553E+03  0.35488474910E+03  0.12509000000E+03 0.  0.
         25    1    4    4    0    0  0.35692880047E+02 -0.56271903011E+02  0.31711995309E+03  0.34735152440E+03  0.12509000000E+03 0.  0.
<mgrwt>
<rscale>  2 0.44811791E+03</rscale>
<asrwt>0</asrwt>
<pdfrwt beam="1">  1       21 0.17531319E+00 0.44811791E+03</pdfrwt>
<pdfrwt beam="2">  1       21 0.61928734E-02 0.44811791E+03</pdfrwt>
<totfact> 0.32808840E+04</totfact>
</mgrwt>
</event>
<event>
 7    0  0.4712189E-002  0.4502912E+03  0.7546771E-02  0.1027635E+00
         21   -1    0    0  502  501  0.00000000000E+00  0.00000000000E+00  0.54792808481E+03  0.54792808481E+03  0.00000000000E+00 0.  1.
         21   -1    0    0  501  502 -0.00000000000E+00 -0.00000000000E+00 -0.92513127077E+02  0.92513127077E+02  0.00000000000E+00 0.  1.
      99926    2    1    2    0    0 -0.26645352591E-14  0.00000000000E+00  0.45541495773E+03  0.64044121189E+03  0.45029119707E+03 0.  0.
      99925    2    3    3    0    0 -0.37950033291E+01  0.80195829291E+02  0.39176611400E+03  0.47874873682E+03  0.26319933860E+03 0.  0.
         25    1    4    4    0    0  0.27244668402E+02  0.64706004326E+02  0.17736152383E+03  0.22810909054E+03  0.12509000000E+03 0.  0.
         25    1    3    3    0    0  0.37950033291E+01 -0.80195829291E+02  0.63648843731E+02  0.16169247507E+03  0.12509000000E+03 0.  0.
         25    1    4    4    0    0 -0.31039671731E+02  0.15489824964E+02  0.21440459017E+03  0.25063964628E+03  0.12509000000E+03 0.  0.
<mgrwt>
<rscale>  2 0.45029120E+03</rscale>
<asrwt>0</asrwt>
<pdfrwt beam="1">  1       21 0.80577658E-01 0.45029120E+03</pdfrwt>
<pdfrwt beam="2">  1       21 0.13604872E-01 0.45029120E+03</pdfrwt>
<totfact> 0.58395334E+04</totfact>
</mgrwt>
</event>
<event>
 7    0  0.4712189E-002  0.4717406E+03  0.7546771E-02  0.1021430E+00
         21   -1    0    0  502  501  0.00000000000E+00  0.00000000000E+00  0.49170571877E+03  0.49170571877E+03  0.00000000000E+00 0. -1.
         21   -1    0    0  501  502 -0.00000000000E+00 -0.00000000000E+00 -0.11314651687E+03  0.11314651687E+03  0.00000000000E+00 0. -1.
      99926    2    1    2    0    0  0.00000000000E+00  0.14210854715E-13  0.37855920190E+03  0.60485223564E+03  0.47174056177E+03 0.  0.
      99925    2    3    3    0    0 -0.86160071331E+02 -0.92651229570E+02  0.25346890695E+03  0.38735994101E+03  0.26418445995E+03 0.  0.
         25    1    3    3    0    0  0.86160071331E+02  0.92651229570E+02  0.12509029495E+03  0.21749229463E+03  0.12509000000E+03 0.  0.
         25    1    4    4    0    0 -0.19404645279E+02 -0.14776443762E+02  0.81570312826E+02  0.15131459805E+03  0.12509000000E+03 0.  0.
         25    1    4    4    0    0 -0.66755426051E+02 -0.77874785808E+02  0.17189859412E+03  0.23604534296E+03  0.12509000000E+03 0.  0.
<mgrwt>
<rscale>  2 0.47174056E+03</rscale>
<asrwt>0</asrwt>
<pdfrwt beam="1">  1       21 0.72309664E-01 0.47174056E+03</pdfrwt>
<pdfrwt beam="2">  1       21 0.16639194E-01 0.47174056E+03</pdfrwt>
<totfact> 0.51257144E+04</totfact>
</mgrwt>
</event>
<event>
 7    0  0.4712189E-002  0.4502842E+03  0.7546771E-02  0.1027637E+00
         21   -1    0    0  502  501  0.00000000000E+00  0.00000000000E+00  0.85219656315E+03  0.85219656315E+03  0.00000000000E+00 0. -1.
         21   -1    0    0  501  502 -0.00000000000E+00 -0.00000000000E+00 -0.59480376547E+02  0.59480376547E+02  0.00000000000E+00 0. -1.
      99926    2    1    2    0    0  0.00000000000E+00  0.00000000000E+00  0.79271618660E+03  0.91167693969E+03  0.45028423231E+03 0.  0.
      99925    2    3    3    0    0  0.53694355137E+02  0.22949232934E+02  0.31512719550E+03  0.41453661385E+03  0.26291767496E+03 0.  0.
         25    1    3    3    0    0 -0.53694355137E+02 -0.22949232934E+02  0.47758899109E+03  0.49714032584E+03  0.12509000000E+03 0.  0.
         25    1    4    4    0    0  0.25438378265E+02  0.45089847187E+02  0.12587395115E+03  0.18485660683E+03  0.12509000000E+03 0.  0.
         25    1    4    4    0    0  0.28255976873E+02 -0.22140614253E+02  0.18925324435E+03  0.22968000702E+03  0.12509000000E+03 0.  0.
<mgrwt>
<rscale>  2 0.45028423E+03</rscale>
<asrwt>0</asrwt>
<pdfrwt beam="1">  1       21 0.12532302E+00 0.45028423E+03</pdfrwt>
<pdfrwt beam="2">  1       21 0.87471147E-02 0.45028423E+03</pdfrwt>
<totfact> 0.44346514E+04</totfact>
</mgrwt>
</event>
<event>
 7    0  0.4712189E-002  0.4609970E+03  0.7546771E-02  0.1024492E+00
         21   -1    0    0  502  501  0.00000000000E+00  0.00000000000E+00  0.10124025993E+04  0.10124025993E+04  0.00000000000E+00 0.  1.
         21   -1    0    0  501  502 -0.00000000000E+00 -0.00000000000E+00 -0.52478691193E+02  0.52478691193E+02  0.00000000000E+00 0.  1.
      99926    2    1    2    0    0 -0.71054273576E-14 -0.35527136788E-14  0.95992390814E+03  0.10648812905E+04  0.46099702113E+03 0.  0.
      99925    2    3    3    0    0  0.63231045900E+02 -0.30556795560E+02  0.38003961234E+03  0.46751608603E+03  0.26307660640E+03 0.  0.
         25    1    3    3    0    0 -0.63231045900E+02  0.30556795560E+02  0.57988429580E+03  0.59736520449E+03  0.12509000000E+03 0.  0.
         25    1    4    4    0    0 -0.57268931930E+01 -0.32145150890E+02  0.18857997956E+03  0.22863950844E+03  0.12509000000E+03 0.  0.
         25    1    4    4    0    0  0.68957939093E+02  0.15883553301E+01  0.19145963278E+03  0.23887657759E+03  0.12509000000E+03 0.  0.
<mgrwt>
<rscale>  2 0.46099702E+03</rscale>
<asrwt>0</asrwt>
<pdfrwt beam="1">  1       21 0.14888272E+00 0.46099702E+03</pdfrwt>
<pdfrwt beam="2">  1       21 0.77174552E-02 0.46099702E+03</pdfrwt>
<totfact> 0.35065947E+04</totfact>
</mgrwt>
</event>
<event>
 7    0  0.4712189E-002  0.4522643E+03  0.7546771E-02  0.1027049E+00
         21   -1    0    0  502  501  0.00000000000E+00  0.00000000000E+00  0.46520003874E+02  0.46520003874E+02  0.00000000000E+00 0.  1.
         21   -1    0    0  501  502 -0.00000000000E+00 -0.00000000000E+00 -0.10992207682E+04  0.10992207682E+04  0.00000000000E+00 0.  1.
      99926    2    1    2    0    0  0.00000000000E+00  0.00000000000E+00 -0.10527007643E+04  0.11457407720E+04  0.45226432268E+03 0.  0.
      99925    2    3    3    0    0  0.83742576824E+02 -0.30504842638E+02 -0.83010444958E+03  0.87529670754E+03  0.26292121334E+03 0.  0.
         25    1    4    4    0    0  0.32227977597E+02  0.15166668798E+02 -0.31565874965E+03  0.34140390261E+03  0.12509000000E+03 0.  0.
         25    1    3    3    0    0 -0.83742576824E+02  0.30504842638E+02 -0.22259631470E+03  0.27044406449E+03  0.12509000000E+03 0.  0.
         25    1    4    4    0    0  0.51514599227E+02 -0.45671511437E+02 -0.51444569992E+03  0.53389280494E+03  0.12509000000E+03 0.  0.
<mgrwt>
<rscale>  2 0.45226432E+03</rscale>
<asrwt>0</asrwt>
<pdfrwt beam="1">  1       21 0.68411763E-02 0.45226432E+03</pdfrwt>
<pdfrwt beam="2">  1       21 0.16165013E+00 0.45226432E+03</pdfrwt>
<totfact> 0.34657984E+04</totfact>
</mgrwt>
</event>
<event>
 7    0  0.4712189E-002  0.4685317E+03  0.7546771E-02  0.1022335E+00
         21   -1    0    0  502  501  0.00000000000E+00  0.00000000000E+00  0.23855630266E+02  0.23855630266E+02  0.00000000000E+00 0.  1.
         21   -1    0    0  501  502 -0.00000000000E+00 -0.00000000000E+00 -0.23005253847E+04  0.23005253847E+04  0.00000000000E+00 0.  1.
      99926    2    1    2    0    0  0.00000000000E+00 -0.44408920985E-14 -0.22766697544E+04  0.23243810149E+04  0.46853167660E+03 0.  0.
      99925    2    3    3    0    0  0.16570676765E+02 -0.51096724259E+01 -0.79938570167E+03  0.84170897546E+03  0.26297490994E+03 0.  0.
         25    1    3    3    0    0 -0.16570676765E+02  0.51096724259E+01 -0.14772840527E+04  0.14826720395E+04  0.12509000000E+03 0.  0.
         25    1    4    4    0    0  0.33961205767E+01 -0.38804141758E+02 -0.34523572432E+03  0.36925940543E+03  0.12509000000E+03 0.  0.
         25    1    4    4    0    0  0.13174556188E+02  0.33694469333E+02 -0.45414997735E+03  0.47244957003E+03  0.12509000000E+03 0.  0.
<mgrwt>
<rscale>  2 0.46853168E+03</rscale>
<asrwt>0</asrwt>
<pdfrwt beam="1">  1       21 0.35081809E-02 0.46853168E+03</pdfrwt>
<pdfrwt beam="2">  1       21 0.33831256E+00 0.46853168E+03</pdfrwt>
<totfact> 0.82030576E+03</totfact>
</mgrwt>
</event>
<event>
 7    0  0.4712189E-002  0.4510161E+03  0.7546771E-02  0.1027419E+00
         21   -1    0    0  502  501  0.00000000000E+00  0.00000000000E+00  0.28728830034E+03  0.28728830034E+03  0.00000000000E+00 0.  1.
         21   -1    0    0  501  502 -0.00000000000E+00 -0.00000000000E+00 -0.17701337355E+03  0.17701337355E+03  0.00000000000E+00 0.  1.
      99926    2    1    2    0    0  0.00000000000E+00  0.00000000000E+00  0.11027492679E+03  0.46430167388E+03  0.45101605835E+03 0.  0.
      99925    2    3    3    0    0  0.29340182244E+02  0.78444796654E+02 -0.27596142254E+01  0.27604985323E+03  0.26302371296E+03 0.  0.
         25    1    4    4    0    0  0.41259029810E+02  0.57566524644E+02 -0.27326724431E+02  0.14632317065E+03  0.12509000000E+03 0.  0.
         25    1    4    4    0    0 -0.11918847566E+02  0.20878272011E+02  0.24567110206E+02  0.12972668258E+03  0.12509000000E+03 0.  0.
         25    1    3    3    0    0 -0.29340182244E+02 -0.78444796654E+02  0.11303454102E+03  0.18825182065E+03  0.12509000000E+03 0.  0.
<mgrwt>
<rscale>  2 0.45101606E+03</rscale>
<asrwt>0</asrwt>
<pdfrwt beam="1">  1       21 0.42248279E-01 0.45101606E+03</pdfrwt>
<pdfrwt beam="2">  1       21 0.26031378E-01 0.45101606E+03</pdfrwt>
<totfact> 0.70049683E+04</totfact>
</mgrwt>
</event>
<event>
 7    0  0.4712189E-002  0.4230441E+03  0.7546771E-02  0.1036080E+00
         21   -1    0    0  502  501  0.00000000000E+00  0.00000000000E+00  0.88106841699E+02  0.88106841699E+02  0.00000000000E+00 0.  1.
         21   -1    0    0  501  502 -0.00000000000E+00 -0.00000000000E+00 -0.50781051004E+03  0.50781051004E+03  0.00000000000E+00 0.  1.
      99926    2    1    2    0    0  0.00000000000E+00  0.00000000000E+00 -0.41970366834E+03  0.59591735174E+03  0.42304411222E+03 0.  0.
      99925    2    3    3    0    0  0.12445744067E+02 -0.33578794431E+02 -0.17257527911E+03  0.31662828850E+03  0.26303766677E+03 0.  0.
         25    1    4    4    0    0  0.13685426778E+02 -0.45700047140E+02 -0.55704497876E+02  0.14500442889E+03  0.12509000000E+03 0.  0.
         25    1    4    4    0    0 -0.12396827104E+01  0.12121252708E+02 -0.11687078123E+03  0.17162385961E+03  0.12509000000E+03 0.  0.
         25    1    3    3    0    0 -0.12445744067E+02  0.33578794431E+02 -0.24712838923E+03  0.27928906324E+03  0.12509000000E+03 0.  0.
<mgrwt>
<rscale>  2 0.42304411E+03</rscale>
<asrwt>0</asrwt>
<pdfrwt beam="1">  1       21 0.12956888E-01 0.42304411E+03</pdfrwt>
<pdfrwt beam="2">  1       21 0.74678018E-01 0.42304411E+03</pdfrwt>
<totfact> 0.76489396E+04</totfact>
</mgrwt>
</event>
<event>
 7    0  0.4712189E-002  0.4490256E+03  0.7546771E-02  0.1028013E+00
         21   -1    0    0  502  501  0.00000000000E+00  0.00000000000E+00  0.11567326407E+03  0.11567326407E+03  0.00000000000E+00 0.  1.
         21   -1    0    0  501  502 -0.00000000000E+00 -0.00000000000E+00 -0.43576191372E+03  0.43576191372E+03  0.00000000000E+00 0.  1.
      99926    2    1    2    0    0  0.00000000000E+00  0.00000000000E+00 -0.32008864964E+03  0.55143517779E+03  0.44902562474E+03 0.  0.
      99925    2    3    3    0    0  0.78293661493E+02 -0.72350835548E+02 -0.21939103175E+03  0.35868648342E+03  0.26298104064E+03 0.  0.
         25    1    3    3    0    0 -0.78293661493E+02  0.72350835548E+02 -0.10069761789E+03  0.19274869437E+03  0.12509000000E+03 0.  0.
         25    1    4    4    0    0  0.80146027672E+02 -0.49281843995E+02 -0.11841359457E+03  0.19626862556E+03  0.12509000000E+03 0.  0.
         25    1    4    4    0    0 -0.18523661793E+01 -0.23068991553E+02 -0.10097743718E+03  0.16241785786E+03  0.12509000000E+03 0.  0.
<mgrwt>
<rscale>  2 0.44902562E+03</rscale>
<asrwt>0</asrwt>
<pdfrwt beam="1">  1       21 0.17010775E-01 0.44902562E+03</pdfrwt>
<pdfrwt beam="2">  1       21 0.64082633E-01 0.44902562E+03</pdfrwt>
<totfact> 0.64779818E+04</totfact>
</mgrwt>
</event>
<event>
 7    0  0.4712189E-002  0.4350962E+03  0.7546771E-02  0.1032262E+00
         21   -1    0    0  502  501  0.00000000000E+00  0.00000000000E+00  0.31369402646E+03  0.31369402646E+03  0.00000000000E+00 0.  1.
         21   -1    0    0  501  502 -0.00000000000E+00 -0.00000000000E+00 -0.15087052850E+03  0.15087052850E+03  0.00000000000E+00 0.  1.
      99926    2    1    2    0    0  0.00000000000E+00  0.14210854715E-13  0.16282349796E+03  0.46456455497E+03  0.43509623561E+03 0.  0.
      99925    2    3    3    0    0  0.16798383774E+02  0.90656646260E+02  0.11855602740E+03  0.30298506908E+03  0.26314180064E+03 0.  0.
         25    1    3    3    0    0 -0.16798383774E+02 -0.90656646260E+02  0.44267470567E+02  0.16157948589E+03  0.12509000000E+03 0.  0.
         25    1    4    4    0    0  0.14351717221E+02  0.29255873399E+01  0.57052726947E+02  0.13826442999E+03  0.12509000000E+03 0.  0.
         25    1    4    4    0    0  0.24466665528E+01  0.87731058920E+02  0.61503300449E+02  0.16472063909E+03  0.12509000000E+03 0.  0.
<mgrwt>
<rscale>  2 0.43509624E+03</rscale>
<asrwt>0</asrwt>
<pdfrwt beam="1">  1       21 0.46131475E-01 0.43509624E+03</pdfrwt>
<pdfrwt beam="2">  1       21 0.22186842E-01 0.43509624E+03</pdfrwt>
<totfact> 0.79707688E+04</totfact>
</mgrwt>
</event>
<event>
 7    0  0.4712189E-002  0.4575652E+03  0.7546771E-02  0.1025490E+00
         21   -1    0    0  502  501  0.00000000000E+00  0.00000000000E+00  0.44802469615E+02  0.44802469615E+02  0.00000000000E+00 0. -1.
         21   -1    0    0  501  502 -0.00000000000E+00 -0.00000000000E+00 -0.11682721896E+04  0.11682721896E+04  0.00000000000E+00 0. -1.
      99926    2    1    2    0    0  0.00000000000E+00  0.00000000000E+00 -0.11234697199E+04  0.12130746592E+04  0.45756520530E+03 0.  0.
      99925    2    3    3    0    0  0.96851351711E+02 -0.33610972469E+02 -0.84689026881E+03  0.89267868122E+03  0.26294908006E+03 0.  0.
         25    1    3    3    0    0 -0.96851351711E+02  0.33610972469E+02 -0.27657945113E+03  0.32039597795E+03  0.12509000000E+03 0.  0.
         25    1    4    4    0    0  0.46655570480E+02 -0.52946634608E+01 -0.54026863482E+03  0.55654512988E+03  0.12509000000E+03 0.  0.
         25    1    4    4    0    0  0.50195781230E+02 -0.28316309008E+02 -0.30662163399E+03  0.33613355135E+03  0.12509000000E+03 0.  0.
<mgrwt>
<rscale>  2 0.45756521E+03</rscale>
<asrwt>0</asrwt>
<pdfrwt beam="1">  1       21 0.65885986E-02 0.45756521E+03</pdfrwt>
<pdfrwt beam="2">  1       21 0.17180473E+00 0.45756521E+03</pdfrwt>
<totfact> 0.31117872E+04</totfact>
</mgrwt>
</event>
<event>
 7    0  0.4712189E-002  0.4462506E+03  0.7546771E-02  0.1028846E+00
         21   -1    0    0  502  501  0.00000000000E+00  0.00000000000E+00  0.50854665579E+03  0.50854665579E+03  0.00000000000E+00 0. -1.
         21   -1    0    0  501  502 -0.00000000000E+00 -0.00000000000E+00 -0.97896404041E+02  0.97896404041E+02  0.00000000000E+00 0. -1.
      99926    2    1    2    0    0 -0.22204460493E-15  0.00000000000E+00  0.41065025175E+03  0.60644305983E+03  0.44625055244E+03 0.  0.
      99925    2    3    3    0    0  0.11790202165E+01 -0.10301929695E+03  0.23492992936E+03  0.36740434867E+03  0.26301999559E+03 0.  0.
         25    1    4    4    0    0  0.32414105741E+02 -0.53441419608E+02  0.85475607811E+02  0.16389096135E+03  0.12509000000E+03 0.  0.
         25    1    3    3    0    0 -0.11790202165E+01  0.10301929695E+03  0.17572032239E+03  0.23903871116E+03  0.12509000000E+03 0.  0.
         25    1    4    4    0    0 -0.31235085524E+02 -0.49577877345E+02  0.14945432155E+03  0.20351338733E+03  0.12509000000E+03 0.  0.
<mgrwt>
<rscale>  2 0.44625055E+03</rscale>
<asrwt>0</asrwt>
<pdfrwt beam="1">  1       21 0.74786271E-01 0.44625055E+03</pdfrwt>
<pdfrwt beam="2">  1       21 0.14396530E-01 0.44625055E+03</pdfrwt>
<totfact> 0.62491864E+04</totfact>
</mgrwt>
</event>
<event>
 7    0  0.4712189E-002  0.4344854E+03  0.7546771E-02  0.1032452E+00
         21   -1    0    0  502  501  0.00000000000E+00  0.00000000000E+00  0.64587643829E+03  0.64587643829E+03  0.00000000000E+00 0.  1.
         21   -1    0    0  501  502 -0.00000000000E+00 -0.00000000000E+00 -0.73070292026E+02  0.73070292026E+02  0.00000000000E+00 0.  1.
      99926    2    1    2    0    0  0.00000000000E+00  0.00000000000E+00  0.57280614627E+03  0.71894673032E+03  0.43448535054E+03 0.  0.
      99925    2    3    3    0    0 -0.32382257814E+02 -0.73267450084E+02  0.44439040626E+03  0.52259286546E+03  0.26306603732E+03 0.  0.
         25    1    4    4    0    0 -0.45034339095E+02 -0.65102355955E+02  0.26174454480E+03  0.30070604132E+03  0.12509000000E+03 0.  0.
         25    1    4    4    0    0  0.12652081280E+02 -0.81650941290E+01  0.18264586146E+03  0.22188682415E+03  0.12509000000E+03 0.  0.
         25    1    3    3    0    0  0.32382257814E+02  0.73267450084E+02  0.12841574000E+03  0.19635386486E+03  0.12509000000E+03 0.  0.
<mgrwt>
<rscale>  2 0.43448535E+03</rscale>
<asrwt>0</asrwt>
<pdfrwt beam="1">  1       21 0.94981826E-01 0.43448535E+03</pdfrwt>
<pdfrwt beam="2">  1       21 0.10745632E-01 0.43448535E+03</pdfrwt>
<totfact> 0.61176239E+04</totfact>
</mgrwt>
</event>
<event>
 7    0  0.4712189E-002  0.4517406E+03  0.7546771E-02  0.1027204E+00
         21   -1    0    0  502  501  0.00000000000E+00  0.00000000000E+00  0.36011459195E+03  0.36011459195E+03  0.00000000000E+00 0.  1.
         21   -1    0    0  501  502 -0.00000000000E+00 -0.00000000000E+00 -0.14166988147E+03  0.14166988147E+03  0.00000000000E+00 0.  1.
      99926    2    1    2    0    0  0.00000000000E+00  0.00000000000E+00  0.21844471048E+03  0.50178447342E+03  0.45174059617E+03 0.  0.
      99925    2    3    3    0    0  0.10493464598E+03  0.31317291759E+02  0.15244031425E+03  0.32290982146E+03  0.26275587662E+03 0.  0.
         25    1    3    3    0    0 -0.10493464598E+03 -0.31317291759E+02  0.66004396238E+02  0.17887465196E+03  0.12509000000E+03 0.  0.
         25    1    4    4    0    0  0.87107692203E+02  0.18282431112E+02  0.55980506960E+02  0.16341151302E+03  0.12509000000E+03 0.  0.
         25    1    4    4    0    0  0.17826953779E+02  0.13034860647E+02  0.96459807286E+02  0.15949830844E+03  0.12509000000E+03 0.  0.
<mgrwt>
<rscale>  2 0.45174060E+03</rscale>
<asrwt>0</asrwt>
<pdfrwt beam="1">  1       21 0.52958028E-01 0.45174060E+03</pdfrwt>
<pdfrwt beam="2">  1       21 0.20833806E-01 0.45174060E+03</pdfrwt>
<totfact> 0.66858543E+04</totfact>
</mgrwt>
</event>
<event>
 7    0  0.4712189E-002  0.4596240E+03  0.7546771E-02  0.1024890E+00
         21   -1    0    0  502  501  0.00000000000E+00  0.00000000000E+00  0.35205803423E+03  0.35205803423E+03  0.00000000000E+00 0.  1.
         21   -1    0    0  501  502 -0.00000000000E+00 -0.00000000000E+00 -0.15001378843E+03  0.15001378843E+03  0.00000000000E+00 0.  1.
      99926    2    1    2    0    0  0.00000000000E+00  0.35527136788E-14  0.20204424581E+03  0.50207182266E+03  0.45962401791E+03 0.  0.
      99925    2    3    3    0    0  0.31313619113E+02 -0.24962213510E+02  0.24719132813E+03  0.36318545908E+03  0.26305221942E+03 0.  0.
         25    1    3    3    0    0 -0.31313619113E+02  0.24962213510E+02 -0.45147082319E+02  0.13888636358E+03  0.12509000000E+03 0.  0.
         25    1    4    4    0    0  0.30209950705E+02 -0.42461434070E+02  0.95456932225E+02  0.16575629253E+03  0.12509000000E+03 0.  0.
         25    1    4    4    0    0  0.11036684084E+01  0.17499220560E+02  0.15173439590E+03  0.19742916655E+03  0.12509000000E+03 0.  0.
<mgrwt>
<rscale>  2 0.45962402E+03</rscale>
<asrwt>0</asrwt>
<pdfrwt beam="1">  1       21 0.51773240E-01 0.45962402E+03</pdfrwt>
<pdfrwt beam="2">  1       21 0.22060851E-01 0.45962402E+03</pdfrwt>
<totfact> 0.62788786E+04</totfact>
</mgrwt>
</event>
<event>
 7    0  0.4712189E-002  0.4586529E+03  0.7546771E-02  0.1025173E+00
         21   -1    0    0  502  501  0.00000000000E+00  0.00000000000E+00  0.13586635329E+03  0.13586635329E+03  0.00000000000E+00 0. -1.
         21   -1    0    0  501  502 -0.00000000000E+00 -0.00000000000E+00 -0.38707610305E+03  0.38707610305E+03  0.00000000000E+00 0. -1.
      99926    2    1    2    0    0  0.00000000000E+00 -0.17763568394E-14 -0.25120974976E+03  0.52294245634E+03  0.45865289083E+03 0.  0.
      99925    2    3    3    0    0  0.50559222310E+02  0.12943353292E+02 -0.38866579416E+02  0.27102799576E+03  0.26310035754E+03 0.  0.
         25    1    4    4    0    0 -0.83685949413E-01 -0.11830585053E+02 -0.45569885878E+02  0.13365662103E+03  0.12509000000E+03 0.  0.
         25    1    3    3    0    0 -0.50559222310E+02 -0.12943353292E+02 -0.21234317035E+03  0.25191446058E+03  0.12509000000E+03 0.  0.
         25    1    4    4    0    0  0.50642908259E+02  0.24773938345E+02  0.67033064619E+01  0.13737137473E+03  0.12509000000E+03 0.  0.
<mgrwt>
<rscale>  2 0.45865289E+03</rscale>
<asrwt>0</asrwt>
<pdfrwt beam="1">  1       21 0.19980346E-01 0.45865289E+03</pdfrwt>
<pdfrwt beam="2">  1       21 0.56922956E-01 0.45865289E+03</pdfrwt>
<totfact> 0.61874523E+04</totfact>
</mgrwt>
</event>
<event>
 7    0  0.4712189E-002  0.4098758E+03  0.7546771E-02  0.1040413E+00
         21   -1    0    0  502  501  0.00000000000E+00  0.00000000000E+00  0.90041690651E+02  0.90041690651E+02  0.00000000000E+00 0. -1.
         21   -1    0    0  501  502 -0.00000000000E+00 -0.00000000000E+00 -0.46644562396E+03  0.46644562396E+03  0.00000000000E+00 0. -1.
      99926    2    1    2    0    0  0.00000000000E+00  0.35527136788E-14 -0.37640393331E+03  0.55648731461E+03  0.40987584744E+03 0.  0.
      99925    2    3    3    0    0  0.24857095234E+02 -0.22192431968E+02 -0.31935647895E+03  0.41502248022E+03  0.26295383478E+03 0.  0.
         25    1    3    3    0    0 -0.24857095234E+02  0.22192431968E+02 -0.57047454361E+02  0.14146483439E+03  0.12509000000E+03 0.  0.
         25    1    4    4    0    0  0.11198884763E+02  0.24210508470E+02 -0.12466071182E+03  0.17860393308E+03  0.12509000000E+03 0.  0.
         25    1    4    4    0    0  0.13658210471E+02 -0.46402940439E+02 -0.19469576713E+03  0.23641854714E+03  0.12509000000E+03 0.  0.
<mgrwt>
<rscale>  2 0.40987585E+03</rscale>
<asrwt>0</asrwt>
<pdfrwt beam="1">  1       21 0.13241425E-01 0.40987585E+03</pdfrwt>
<pdfrwt beam="2">  1       21 0.68594944E-01 0.40987585E+03</pdfrwt>
<totfact> 0.89293663E+04</totfact>
</mgrwt>
</event>
<event>
 7    0  0.4712189E-002  0.4470561E+03  0.7546771E-02  0.1028604E+00
         21   -1    0    0  502  501  0.00000000000E+00  0.00000000000E+00  0.87405109751E+03  0.87405109751E+03  0.00000000000E+00 0.  1.
         21   -1    0    0  501  502 -0.00000000000E+00 -0.00000000000E+00 -0.57164602904E+02  0.57164602904E+02  0.00000000000E+00 0.  1.
      99926    2    1    2    0    0  0.00000000000E+00  0.00000000000E+00  0.81688649460E+03  0.93121570041E+03  0.44705607660E+03 0.  0.
      99925    2    3    3    0    0  0.24733729328E+02 -0.10156252301E+03  0.48845123040E+03  0.56454972938E+03  0.26306860133E+03 0.  0.
         25    1    3    3    0    0 -0.24733729328E+02  0.10156252301E+03  0.32843526420E+03  0.36666597104E+03  0.12509000000E+03 0.  0.
         25    1    4    4    0    0  0.10800959334E+02 -0.51578479203E+02  0.32551080730E+03  0.35267803165E+03  0.12509000000E+03 0.  0.
         25    1    4    4    0    0  0.13932769994E+02 -0.49984043811E+02  0.16294042311E+03  0.21187169773E+03  0.12509000000E+03 0.  0.
<mgrwt>
<rscale>  2 0.44705608E+03</rscale>
<asrwt>0</asrwt>
<pdfrwt beam="1">  1       21 0.12853692E+00 0.44705608E+03</pdfrwt>
<pdfrwt beam="2">  1       21 0.84065598E-02 0.44705608E+03</pdfrwt>
<totfact> 0.44619410E+04</totfact>
</mgrwt>
</event>
<event>
 7    0  0.4712189E-002  0.4521045E+03  0.7546771E-02  0.1027096E+00
         21   -1    0    0  502  501  0.00000000000E+00  0.00000000000E+00  0.40166427701E+03  0.40166427701E+03  0.00000000000E+00 0. -1.
         21   -1    0    0  501  502 -0.00000000000E+00 -0.00000000000E+00 -0.12721972753E+03  0.12721972753E+03  0.00000000000E+00 0. -1.
      99926    2    1    2    0    0  0.00000000000E+00 -0.17763568394E-14  0.27444454948E+03  0.52888400454E+03  0.45210450066E+03 0.  0.
      99925    2    3    3    0    0  0.85087610979E+02 -0.14501904676E+02  0.25354678705E+03  0.37547464578E+03  0.26314450330E+03 0.  0.
         25    1    4    4    0    0  0.88858838577E+01 -0.18355261572E+02  0.87435454501E+02  0.15397513229E+03  0.12509000000E+03 0.  0.
         25    1    4    4    0    0  0.76201727122E+02  0.38533568964E+01  0.16611133255E+03  0.22149951349E+03  0.12509000000E+03 0.  0.
         25    1    3    3    0    0 -0.85087610979E+02  0.14501904676E+02  0.20897762432E+02  0.15340935876E+03  0.12509000000E+03 0.  0.
<mgrwt>
<rscale>  2 0.45210450E+03</rscale>
<asrwt>0</asrwt>
<pdfrwt beam="1">  1       21 0.59068276E-01 0.45210450E+03</pdfrwt>
<pdfrwt beam="2">  1       21 0.18708784E-01 0.45210450E+03</pdfrwt>
<totfact> 0.64755357E+04</totfact>
</mgrwt>
</event>
<event>
 7    0  0.4712189E-002  0.4494531E+03  0.7546771E-02  0.1027885E+00
         21   -1    0    0  502  501  0.00000000000E+00  0.00000000000E+00  0.43134803474E+03  0.43134803474E+03  0.00000000000E+00 0. -1.
         21   -1    0    0  501  502 -0.00000000000E+00 -0.00000000000E+00 -0.11707950952E+03  0.11707950952E+03  0.00000000000E+00 0. -1.
      99926    2    1    2    0    0  0.00000000000E+00  0.00000000000E+00  0.31426852522E+03  0.54842754425E+03  0.44945307359E+03 0.  0.
      99925    2    3    3    0    0  0.68628450458E+02  0.31541853491E+01  0.30052425367E+03  0.40505311767E+03  0.26274205600E+03 0.  0.
         25    1    3    3    0    0 -0.68628450458E+02 -0.31541853491E+01  0.13744271544E+02  0.14337442658E+03  0.12509000000E+03 0.  0.
         25    1    4    4    0    0  0.56510663905E+02  0.15856681501E+02  0.11073986352E+03  0.17707544989E+03  0.12509000000E+03 0.  0.
         25    1    4    4    0    0  0.12117786554E+02 -0.12702496152E+02  0.18978439015E+03  0.22797766778E+03  0.12509000000E+03 0.  0.
<mgrwt>
<rscale>  2 0.44945307E+03</rscale>
<asrwt>0</asrwt>
<pdfrwt beam="1">  1       21 0.63433534E-01 0.44945307E+03</pdfrwt>
<pdfrwt beam="2">  1       21 0.17217575E-01 0.44945307E+03</pdfrwt>
<totfact> 0.64766560E+04</totfact>
</mgrwt>
</event>
<event>
 7    0  0.4712189E-002  0.4590672E+03  0.7546771E-02  0.1025052E+00
         21   -1    0    0  502  501  0.00000000000E+00  0.00000000000E+00  0.40754000206E+03  0.40754000206E+03  0.00000000000E+00 0.  1.
         21   -1    0    0  501  502 -0.00000000000E+00 -0.00000000000E+00 -0.12927733360E+03  0.12927733360E+03  0.00000000000E+00 0.  1.
      99926    2    1    2    0    0  0.00000000000E+00  0.00000000000E+00  0.27826266846E+03  0.53681733567E+03  0.45906724912E+03 0.  0.
      99925    2    3    3    0    0 -0.11294670468E+03  0.84359926579E+01  0.20831476433E+03  0.35414730128E+03  0.26305350387E+03 0.  0.
         25    1    4    4    0    0 -0.28022853773E+02 -0.16456007895E+02  0.12468087889E+03  0.17957981565E+03  0.12509000000E+03 0.  0.
         25    1    3    3    0    0  0.11294670468E+03 -0.84359926579E+01  0.69947904134E+02  0.18267003439E+03  0.12509000000E+03 0.  0.
         25    1    4    4    0    0 -0.84923850910E+02  0.24892000553E+02  0.83633885434E+02  0.17456748563E+03  0.12509000000E+03 0.  0.
<mgrwt>
<rscale>  2 0.45906725E+03</rscale>
<asrwt>0</asrwt>
<pdfrwt beam="1">  1       21 0.59932353E-01 0.45906725E+03</pdfrwt>
<pdfrwt beam="2">  1       21 0.19011373E-01 0.45906725E+03</pdfrwt>
<totfact> 0.60764918E+04</totfact>
</mgrwt>
</event>
<event>
 7    0  0.4712189E-002  0.4540522E+03  0.7546771E-02  0.1026520E+00
         21   -1    0    0  502  501  0.00000000000E+00  0.00000000000E+00  0.11049817399E+03  0.11049817399E+03  0.00000000000E+00 0.  1.
         21   -1    0    0  501  502 -0.00000000000E+00 -0.00000000000E+00 -0.46644077767E+03  0.46644077767E+03  0.00000000000E+00 0.  1.
      99926    2    1    2    0    0  0.00000000000E+00  0.00000000000E+00 -0.35594260368E+03  0.57693895166E+03  0.45405221818E+03 0.  0.
      99925    2    3    3    0    0 -0.17113139441E+02 -0.10933033213E+03 -0.20043268793E+03  0.34873548311E+03  0.26305359477E+03 0.  0.
         25    1    3    3    0    0  0.17113139441E+02  0.10933033213E+03 -0.15550991574E+03  0.22820346855E+03  0.12509000000E+03 0.  0.
         25    1    4    4    0    0 -0.10347021745E+02 -0.11921041225E+02 -0.77447334121E+02  0.14796881342E+03  0.12509000000E+03 0.  0.
         25    1    4    4    0    0 -0.67661176962E+01 -0.97409290908E+02 -0.12298535381E+03  0.20076666969E+03  0.12509000000E+03 0.  0.
<mgrwt>
<rscale>  2 0.45405222E+03</rscale>
<asrwt>0</asrwt>
<pdfrwt beam="1">  1       21 0.16249732E-01 0.45405222E+03</pdfrwt>
<pdfrwt beam="2">  1       21 0.68594230E-01 0.45405222E+03</pdfrwt>
<totfact> 0.60573304E+04</totfact>
</mgrwt>
</event>
<event>
 7    0  0.4712189E-002  0.4512240E+03  0.7546771E-02  0.1027358E+00
         21   -1    0    0  502  501  0.00000000000E+00  0.00000000000E+00  0.11932283972E+03  0.11932283972E+03  0.00000000000E+00 0. -1.
         21   -1    0    0  501  502 -0.00000000000E+00 -0.00000000000E+00 -0.42658032725E+03  0.42658032725E+03  0.00000000000E+00 0. -1.
      99926    2    1    2    0    0  0.00000000000E+00 -0.35527136788E-14 -0.30725748753E+03  0.54590316697E+03  0.45122400653E+03 0.  0.
      99925    2    3    3    0    0 -0.60353440553E+02 -0.24944502197E+02 -0.87458710971E+02  0.28470635181E+03  0.26295230491E+03 0.  0.
         25    1    3    3    0    0  0.60353440553E+02  0.24944502197E+02 -0.21979877656E+03  0.26119681517E+03  0.12509000000E+03 0.  0.
         25    1    4    4    0    0 -0.37495142813E+01 -0.41920938935E+02 -0.52273708841E+02  0.14195588299E+03  0.12509000000E+03 0.  0.
         25    1    4    4    0    0 -0.56603926272E+02  0.16976436738E+02 -0.35185002130E+02  0.14275046882E+03  0.12509000000E+03 0.  0.
<mgrwt>
<rscale>  2 0.45122401E+03</rscale>
<asrwt>0</asrwt>
<pdfrwt beam="1">  1       21 0.17547477E-01 0.45122401E+03</pdfrwt>
<pdfrwt beam="2">  1       21 0.62732400E-01 0.45122401E+03</pdfrwt>
<totfact> 0.64029806E+04</totfact>
</mgrwt>
</event>
<event>
 7    0  0.4712189E-002  0.4605216E+03  0.7546771E-02  0.1024630E+00
         21   -1    0    0  502  501  0.00000000000E+00  0.00000000000E+00  0.30067862419E+03  0.30067862419E+03  0.00000000000E+00 0.  1.
         21   -1    0    0  501  502 -0.00000000000E+00 -0.00000000000E+00 -0.17633455341E+03  0.17633455341E+03  0.00000000000E+00 0.  1.
      99926    2    1    2    0    0  0.88817841970E-15  0.14210854715E-13  0.12434407078E+03  0.47701317760E+03  0.46052157785E+03 0.  0.
      99925    2    3    3    0    0 -0.58598922486E+01 -0.73119443735E+02 -0.18019885615E+02  0.27379950786E+03  0.26317420625E+03 0.  0.
         25    1    3    3    0    0  0.58598922486E+01  0.73119443735E+02  0.14236395640E+03  0.20321366974E+03  0.12509000000E+03 0.  0.
         25    1    4    4    0    0  0.97298720828E+01 -0.73084980126E+02  0.66347482777E+01  0.14535340627E+03  0.12509000000E+03 0.  0.
         25    1    4    4    0    0 -0.15589764331E+02 -0.34463609198E-01 -0.24654633893E+02  0.12844610158E+03  0.12509000000E+03 0.  0.
<mgrwt>
<rscale>  2 0.46052158E+03</rscale>
<asrwt>0</asrwt>
<pdfrwt beam="1">  1       21 0.44217445E-01 0.46052158E+03</pdfrwt>
<pdfrwt beam="2">  1       21 0.25931552E-01 0.46052158E+03</pdfrwt>
<totfact> 0.64064834E+04</totfact>
</mgrwt>
</event>
<event>
 7    0  0.4712189E-002  0.4595626E+03  0.7546771E-02  0.1024908E+00
         21   -1    0    0  502  501  0.00000000000E+00  0.00000000000E+00  0.10729477265E+04  0.10729477265E+04  0.00000000000E+00 0.  1.
         21   -1    0    0  501  502 -0.00000000000E+00 -0.00000000000E+00 -0.49209717126E+02  0.49209717126E+02  0.00000000000E+00 0.  1.
      99926    2    1    2    0    0  0.00000000000E+00  0.00000000000E+00  0.10237380093E+04  0.11221574436E+04  0.45956263603E+03 0.  0.
      99925    2    3    3    0    0  0.27445644005E+02 -0.50098390030E+02  0.89194383435E+03  0.93168349597E+03  0.26307265343E+03 0.  0.
         25    1    4    4    0    0  0.32328433036E+02 -0.59230710975E+02  0.42342559665E+03  0.44664320067E+03  0.12509000000E+03 0.  0.
         25    1    4    4    0    0 -0.48827890316E+01  0.91323209452E+01  0.46851823770E+03  0.48504029531E+03  0.12509000000E+03 0.  0.
         25    1    3    3    0    0 -0.27445644005E+02  0.50098390030E+02  0.13179417499E+03  0.19047394761E+03  0.12509000000E+03 0.  0.
<mgrwt>
<rscale>  2 0.45956264E+03</rscale>
<asrwt>0</asrwt>
<pdfrwt beam="1">  1       21 0.15778642E+00 0.45956264E+03</pdfrwt>
<pdfrwt beam="2">  1       21 0.72367238E-02 0.45956264E+03</pdfrwt>
<totfact> 0.33517484E+04</totfact>
</mgrwt>
</event>
<event>
 7    0  0.4712189E-002  0.4704467E+03  0.7546771E-02  0.1021794E+00
         21   -1    0    0  502  501  0.00000000000E+00  0.00000000000E+00  0.50294658234E+03  0.50294658234E+03  0.00000000000E+00 0.  1.
         21   -1    0    0  501  502 -0.00000000000E+00 -0.00000000000E+00 -0.11001173876E+03  0.11001173876E+03  0.00000000000E+00 0.  1.
      99926    2    1    2    0    0  0.00000000000E+00  0.00000000000E+00  0.39293484358E+03  0.61295832110E+03  0.47044671548E+03 0.  0.
      99925    2    3    3    0    0  0.14481609799E+02 -0.81504944943E+02  0.36971415949E+03  0.46117070190E+03  0.26293931523E+03 0.  0.
         25    1    4    4    0    0  0.19489203801E+02 -0.91703180047E+01  0.21295840026E+03  0.24791674437E+03  0.12509000000E+03 0.  0.
         25    1    4    4    0    0 -0.50075940023E+01 -0.72334626939E+02  0.15675575923E+03  0.21325395753E+03  0.12509000000E+03 0.  0.
         25    1    3    3    0    0 -0.14481609799E+02  0.81504944943E+02  0.23220684093E+02  0.15178761920E+03  0.12509000000E+03 0.  0.
<mgrwt>
<rscale>  2 0.47044672E+03</rscale>
<asrwt>0</asrwt>
<pdfrwt beam="1">  1       21 0.73962732E-01 0.47044672E+03</pdfrwt>
<pdfrwt beam="2">  1       21 0.16178197E-01 0.47044672E+03</pdfrwt>
<totfact> 0.51331894E+04</totfact>
</mgrwt>
</event>
<event>
 6    0  0.4712189E-002  0.4751144E+03  0.7546771E-02  0.1020487E+00
         21   -1    0    0  502  501  0.00000000000E+00  0.00000000000E+00  0.74113477035E+02  0.74113477035E+02  0.00000000000E+00 0. -1.
         21   -1    0    0  501  502 -0.00000000000E+00 -0.00000000000E+00 -0.76144612819E+03  0.76144612819E+03  0.00000000000E+00 0. -1.
      99926    2    1    2    0    0  0.00000000000E+00  0.00000000000E+00 -0.68733265116E+03  0.83555960523E+03  0.47511438680E+03 0.  0.
         25    1    3    3    0    0 -0.78918231542E+02 -0.76376247818E+02 -0.19941131357E+03  0.25975719159E+03  0.12509000000E+03 0.  0.
         25    1    3    3    0    0  0.87945822750E+02  0.86715436816E+02 -0.32973682042E+03  0.37366818645E+03  0.12509000000E+03 0.  0.
         25    1    3    3    0    0 -0.90275912083E+01 -0.10339188997E+02 -0.15818451716E+03  0.20213422719E+03  0.12509000000E+03 0.  0.
<mgrwt>
<rscale>  2 0.47511439E+03</rscale>
<asrwt>0</asrwt>
<pdfrwt beam="1">  1       21 0.10899041E-01 0.47511439E+03</pdfrwt>
<pdfrwt beam="2">  1       21 0.11197737E+00 0.47511439E+03</pdfrwt>
<totfact> 0.39482709E+04</totfact>
</mgrwt>
</event>
<event>
 7    0  0.4712189E-002  0.4477045E+03  0.7546771E-02  0.1028409E+00
         21   -1    0    0  502  501  0.00000000000E+00  0.00000000000E+00  0.28219367949E+03  0.28219367949E+03  0.00000000000E+00 0.  1.
         21   -1    0    0  501  502 -0.00000000000E+00 -0.00000000000E+00 -0.17757245665E+03  0.17757245665E+03  0.00000000000E+00 0.  1.
      99926    2    1    2    0    0  0.00000000000E+00  0.00000000000E+00  0.10462122284E+03  0.45976613614E+03  0.44770447806E+03 0.  0.
      99925    2    3    3    0    0 -0.80426324479E+02 -0.21283118868E+02  0.13396820503E+03  0.30669713771E+03  0.26304807451E+03 0.  0.
         25    1    4    4    0    0 -0.27538423143E+02 -0.28168969118E+02  0.10417375054E+03  0.16748592171E+03  0.12509000000E+03 0.  0.
         25    1    4    4    0    0 -0.52887901336E+02  0.68858502500E+01  0.29794454487E+02  0.13921121600E+03  0.12509000000E+03 0.  0.
         25    1    3    3    0    0  0.80426324479E+02  0.21283118868E+02 -0.29346982191E+02  0.15306899843E+03  0.12509000000E+03 0.  0.
<mgrwt>
<rscale>  2 0.44770448E+03</rscale>
<asrwt>0</asrwt>
<pdfrwt beam="1">  1       21 0.41499071E-01 0.44770448E+03</pdfrwt>
<pdfrwt beam="2">  1       21 0.26113596E-01 0.44770448E+03</pdfrwt>
<totfact> 0.72298828E+04</totfact>
</mgrwt>
</event>
<event>
 7    0  0.4712189E-002  0.4492574E+03  0.7546771E-02  0.1027944E+00
         21   -1    0    0  502  501  0.00000000000E+00  0.00000000000E+00  0.98468748767E+02  0.98468748767E+02  0.00000000000E+00 0.  1.
         21   -1    0    0  501  502 -0.00000000000E+00 -0.00000000000E+00 -0.51242717705E+03  0.51242717705E+03  0.00000000000E+00 0.  1.
      99926    2    1    2    0    0  0.00000000000E+00  0.00000000000E+00 -0.41395842828E+03  0.61089592582E+03  0.44925744494E+03 0.  0.
      99925    2    3    3    0    0  0.74996345680E+02 -0.46885939076E+02 -0.34536286188E+03  0.44304002637E+03  0.26303272696E+03 0.  0.
         25    1    4    4    0    0  0.66054292302E+02 -0.26294515778E+02 -0.13518507152E+03  0.19742614506E+03  0.12509000000E+03 0.  0.
         25    1    3    3    0    0 -0.74996345680E+02  0.46885939076E+02 -0.68595566401E+02  0.16785589944E+03  0.12509000000E+03 0.  0.
         25    1    4    4    0    0  0.89420533788E+01 -0.20591423298E+02 -0.21017779036E+03  0.24561388131E+03  0.12509000000E+03 0.  0.
<mgrwt>
<rscale>  2 0.44925744E+03</rscale>
<asrwt>0</asrwt>
<pdfrwt beam="1">  1       21 0.14480698E-01 0.44925744E+03</pdfrwt>
<pdfrwt beam="2">  1       21 0.75356938E-01 0.44925744E+03</pdfrwt>
<totfact> 0.60720151E+04</totfact>
</mgrwt>
</event>
<event>
 7    0  0.4712189E-002  0.4553650E+03  0.7546771E-02  0.1026134E+00
         21   -1    0    0  502  501  0.00000000000E+00  0.00000000000E+00  0.13550365075E+03  0.13550365075E+03  0.00000000000E+00 0.  1.
         21   -1    0    0  501  502 -0.00000000000E+00 -0.00000000000E+00 -0.38256768799E+03  0.38256768799E+03  0.00000000000E+00 0.  1.
      99926    2    1    2    0    0  0.00000000000E+00  0.26645352591E-14 -0.24706403724E+03  0.51807133874E+03  0.45536498935E+03 0.  0.
      99925    2    3    3    0    0  0.68740854807E+02 -0.54034248588E+01 -0.25804192637E+03  0.37481449154E+03  0.26295582363E+03 0.  0.
         25    1    4    4    0    0  0.42458474276E+02  0.32266463576E+02 -0.15619145647E+03  0.20709207103E+03  0.12509000000E+03 0.  0.
         25    1    4    4    0    0  0.26282380531E+02 -0.37669888434E+02 -0.10185046991E+03  0.16772242051E+03  0.12509000000E+03 0.  0.
         25    1    3    3    0    0 -0.68740854807E+02  0.54034248588E+01  0.10977889136E+02  0.14325684720E+03  0.12509000000E+03 0.  0.
<mgrwt>
<rscale>  2 0.45536499E+03</rscale>
<asrwt>0</asrwt>
<pdfrwt beam="1">  1       21 0.19927007E-01 0.45536499E+03</pdfrwt>
<pdfrwt beam="2">  1       21 0.56259954E-01 0.45536499E+03</pdfrwt>
<totfact> 0.63833806E+04</totfact>
</mgrwt>
</event>
<event>
 7    0  0.4712189E-002  0.4634158E+03  0.7546771E-02  0.1023795E+00
         21   -1    0    0  502  501  0.00000000000E+00  0.00000000000E+00  0.56782551466E+02  0.56782551466E+02  0.00000000000E+00 0. -1.
         21   -1    0    0  501  502 -0.00000000000E+00 -0.00000000000E+00 -0.94551131168E+03  0.94551131168E+03  0.00000000000E+00 0. -1.
      99926    2    1    2    0    0  0.35527136788E-14  0.71054273576E-14 -0.88872876021E+03  0.10022938631E+04  0.46341577322E+03 0.  0.
      99925    2    3    3    0    0 -0.29624671406E+02  0.62397404518E+02 -0.76965212509E+03  0.81628899660E+03  0.26304424546E+03 0.  0.
         25    1    4    4    0    0 -0.13651548661E+02  0.72855995975E+02 -0.40646695181E+03  0.43169115343E+03  0.12509000000E+03 0.  0.
         25    1    4    4    0    0 -0.15973122745E+02 -0.10458591457E+02 -0.36318517327E+03  0.38459784317E+03  0.12509000000E+03 0.  0.
         25    1    3    3    0    0  0.29624671406E+02 -0.62397404518E+02 -0.11907663512E+03  0.18600486655E+03  0.12509000000E+03 0.  0.
<mgrwt>
<rscale>  2 0.46341577E+03</rscale>
<asrwt>0</asrwt>
<pdfrwt beam="1">  1       21 0.83503754E-02 0.46341577E+03</pdfrwt>
<pdfrwt beam="2">  1       21 0.13904578E+00 0.46341577E+03</pdfrwt>
<totfact> 0.36611577E+04</totfact>
</mgrwt>
</event>
<event>
 7    0  0.4712189E-002  0.4578508E+03  0.7546771E-02  0.1025406E+00
         21   -1    0    0  502  501  0.00000000000E+00  0.00000000000E+00  0.59787798673E+03  0.59787798673E+03  0.00000000000E+00 0.  1.
         21   -1    0    0  501  502 -0.00000000000E+00 -0.00000000000E+00 -0.87654753960E+02  0.87654753960E+02  0.00000000000E+00 0.  1.
      99926    2    1    2    0    0  0.00000000000E+00  0.00000000000E+00  0.51022323277E+03  0.68553274069E+03  0.45785083957E+03 0.  0.
      99925    2    3    3    0    0  0.50331339139E+02 -0.47455822856E+02  0.18122669074E+03  0.32682459806E+03  0.26303213803E+03 0.  0.
         25    1    4    4    0    0 -0.44213898659E+01  0.56038285650E+01  0.77493691305E+02  0.14732186489E+03  0.12509000000E+03 0.  0.
         25    1    4    4    0    0  0.54752729005E+02 -0.53059651421E+02  0.10373299943E+03  0.17950273317E+03  0.12509000000E+03 0.  0.
         25    1    3    3    0    0 -0.50331339139E+02  0.47455822856E+02  0.32899654203E+03  0.35870814263E+03  0.12509000000E+03 0.  0.
<mgrwt>
<rscale>  2 0.45785084E+03</rscale>
<asrwt>0</asrwt>
<pdfrwt beam="1">  1       21 0.87923231E-01 0.45785084E+03</pdfrwt>
<pdfrwt beam="2">  1       21 0.12890405E-01 0.45785084E+03</pdfrwt>
<totfact> 0.52507236E+04</totfact>
</mgrwt>
</event>
<event>
 7    0  0.4712189E-002  0.4516530E+03  0.7546771E-02  0.1027230E+00
         21   -1    0    0  502  501  0.00000000000E+00  0.00000000000E+00  0.71705395940E+03  0.71705395940E+03  0.00000000000E+00 0. -1.
         21   -1    0    0  501  502 -0.00000000000E+00 -0.00000000000E+00 -0.71121023698E+02  0.71121023698E+02  0.00000000000E+00 0. -1.
      99926    2    1    2    0    0 -0.17763568394E-14  0.14210854715E-13  0.64593293571E+03  0.78817498310E+03  0.45165301566E+03 0.  0.
      99925    2    3    3    0    0 -0.14565844607E+02  0.10885869027E+03  0.41688578999E+03  0.50502752799E+03  0.26305258762E+03 0.  0.
         25    1    4    4    0    0 -0.66901330917E+01  0.77152859409E+02  0.15946912194E+03  0.21696827083E+03  0.12509000000E+03 0.  0.
         25    1    4    4    0    0 -0.78757115149E+01  0.31705830865E+02  0.25741666805E+03  0.28805925716E+03  0.12509000000E+03 0.  0.
         25    1    3    3    0    0  0.14565844607E+02 -0.10885869027E+03  0.22904714572E+03  0.28314745511E+03  0.12509000000E+03 0.  0.
<mgrwt>
<rscale>  2 0.45165302E+03</rscale>
<asrwt>0</asrwt>
<pdfrwt beam="1">  1       21 0.10544911E+00 0.45165302E+03</pdfrwt>
<pdfrwt beam="2">  1       21 0.10458975E-01 0.45165302E+03</pdfrwt>
<totfact> 0.49633150E+04</totfact>
</mgrwt>
</event>
<event>
 7    0  0.4712189E-002  0.4597130E+03  0.7546771E-02  0.1024864E+00
         21   -1    0    0  502  501  0.00000000000E+00  0.00000000000E+00  0.71537206402E+03  0.71537206402E+03  0.00000000000E+00 0.  1.
         21   -1    0    0  501  502 -0.00000000000E+00 -0.00000000000E+00 -0.73855289239E+02  0.73855289239E+02  0.00000000000E+00 0.  1.
      99926    2    1    2    0    0  0.00000000000E+00  0.00000000000E+00  0.64151677478E+03  0.78922735326E+03  0.45971300047E+03 0.  0.
      99925    2    3    3    0    0  0.64622836135E+02 -0.19794706952E+02  0.56697862560E+03  0.62869266804E+03  0.26310029949E+03 0.  0.
         25    1    4    4    0    0  0.23490669392E+02 -0.41212069615E+02  0.22720228039E+03  0.26366385901E+03  0.12509000000E+03 0.  0.
         25    1    4    4    0    0  0.41132166743E+02  0.21417362663E+02  0.33977634521E+03  0.36502880904E+03  0.12509000000E+03 0.  0.
         25    1    3    3    0    0 -0.64622836135E+02  0.19794706952E+02  0.74538149178E+02  0.16053468521E+03  0.12509000000E+03 0.  0.
<mgrwt>
<rscale>  2 0.45971300E+03</rscale>
<asrwt>0</asrwt>
<pdfrwt beam="1">  1       21 0.10520177E+00 0.45971300E+03</pdfrwt>
<pdfrwt beam="2">  1       21 0.10861072E-01 0.45971300E+03</pdfrwt>
<totfact> 0.46544604E+04</totfact>
</mgrwt>
</event>
<event>
 7    0  0.4712189E-002  0.4415695E+03  0.7546771E-02  0.1030266E+00
         21   -1    0    0  502  501  0.00000000000E+00  0.00000000000E+00  0.16263111787E+03  0.16263111787E+03  0.00000000000E+00 0.  1.
         21   -1    0    0  501  502 -0.00000000000E+00 -0.00000000000E+00 -0.29973293212E+03  0.29973293212E+03  0.00000000000E+00 0.  1.
      99926    2    1    2    0    0  0.00000000000E+00  0.71054273576E-14 -0.13710181425E+03  0.46236404999E+03  0.44156948180E+03 0.  0.
      99925    2    3    3    0    0  0.57344913697E+02  0.57599520295E+02 -0.26425640596E+02  0.27661457521E+03  0.26308014915E+03 0.  0.
         25    1    4    4    0    0  0.68362005762E+02  0.33638588214E+02 -0.26103463274E+02  0.14877438403E+03  0.12509000000E+03 0.  0.
         25    1    4    4    0    0 -0.11017092065E+02  0.23960932081E+02 -0.32217732153E+00  0.12784019118E+03  0.12509000000E+03 0.  0.
         25    1    3    3    0    0 -0.57344913697E+02 -0.57599520295E+02 -0.11067617365E+03  0.18574947477E+03  0.12509000000E+03 0.  0.
<mgrwt>
<rscale>  2 0.44156948E+03</rscale>
<asrwt>0</asrwt>
<pdfrwt beam="1">  1       21 0.23916341E-01 0.44156948E+03</pdfrwt>
<pdfrwt beam="2">  1       21 0.44078372E-01 0.44156948E+03</pdfrwt>
<totfact> 0.75764903E+04</totfact>
</mgrwt>
</event>
<event>
 7    0  0.4712189E-002  0.4487779E+03  0.7546771E-02  0.1028087E+00
         21   -1    0    0  502  501  0.00000000000E+00  0.00000000000E+00  0.11684501244E+04  0.11684501244E+04  0.00000000000E+00 0.  1.
         21   -1    0    0  501  502 -0.00000000000E+00 -0.00000000000E+00 -0.43091605999E+02  0.43091605999E+02  0.00000000000E+00 0.  1.
      99926    2    1    2    0    0  0.00000000000E+00  0.00000000000E+00  0.11253585184E+04  0.12115417304E+04  0.44877786215E+03 0.  0.
      99925    2    3    3    0    0  0.12613329061E+02 -0.33071307018E+02  0.44068536540E+03  0.51463596779E+03  0.26342699301E+03 0.  0.
         25    1    4    4    0    0  0.21352422873E+02 -0.32318573233E+01  0.28855192773E+03  0.31523974045E+03  0.12509000000E+03 0.  0.
         25    1    4    4    0    0 -0.87390938113E+01 -0.29839449695E+02  0.15213343767E+03  0.19939622734E+03  0.12509000000E+03 0.  0.
         25    1    3    3    0    0 -0.12613329061E+02  0.33071307018E+02  0.68467315295E+03  0.69690576256E+03  0.12509000000E+03 0.  0.
<mgrwt>
<rscale>  2 0.44877786E+03</rscale>
<asrwt>0</asrwt>
<pdfrwt beam="1">  1       21 0.17183088E+00 0.44877786E+03</pdfrwt>
<pdfrwt beam="2">  1       21 0.63370017E-02 0.44877786E+03</pdfrwt>
<totfact> 0.33380952E+04</totfact>
</mgrwt>
</event>
<event>
 7    0  0.4712189E-002  0.4440466E+03  0.7546771E-02  0.1029512E+00
         21   -1    0    0  502  501  0.00000000000E+00  0.00000000000E+00  0.18239017345E+03  0.18239017345E+03  0.00000000000E+00 0. -1.
         21   -1    0    0  501  502 -0.00000000000E+00 -0.00000000000E+00 -0.27026864570E+03  0.27026864570E+03  0.00000000000E+00 0. -1.
      99926    2    1    2    0    0  0.71054273576E-14  0.00000000000E+00 -0.87878472251E+02  0.45265881915E+03  0.44404659741E+03 0.  0.
      99925    2    3    3    0    0  0.47124594811E+02 -0.26820231753E+02  0.32905708619E+02  0.27051497842E+03  0.26297436305E+03 0.  0.
         25    1    4    4    0    0  0.60121936393E+02  0.10042802594E+00  0.29326318093E+02  0.14185273474E+03  0.12509000000E+03 0.  0.
         25    1    4    4    0    0 -0.12997341582E+02 -0.26920659779E+02  0.35793905268E+01  0.12866224368E+03  0.12509000000E+03 0.  0.
         25    1    3    3    0    0 -0.47124594811E+02  0.26820231753E+02 -0.12078418087E+03  0.18214384073E+03  0.12509000000E+03 0.  0.
<mgrwt>
<rscale>  2 0.44404660E+03</rscale>
<asrwt>0</asrwt>
<pdfrwt beam="1">  1       21 0.26822085E-01 0.44404660E+03</pdfrwt>
<pdfrwt beam="2">  1       21 0.39745388E-01 0.44404660E+03</pdfrwt>
<totfact> 0.75060520E+04</totfact>
</mgrwt>
</event>
<event>
 7    0  0.4712189E-002  0.4521834E+03  0.7546771E-02  0.1027073E+00
         21   -1    0    0  502  501  0.00000000000E+00  0.00000000000E+00  0.18884803366E+03  0.18884803366E+03  0.00000000000E+00 0. -1.
         21   -1    0    0  501  502 -0.00000000000E+00 -0.00000000000E+00 -0.27068040192E+03  0.27068040192E+03  0.00000000000E+00 0. -1.
      99926    2    1    2    0    0  0.00000000000E+00  0.00000000000E+00 -0.81832368270E+02  0.45952843558E+03  0.45218342142E+03 0.  0.
      99925    2    3    3    0    0 -0.61052843147E+02  0.25724968679E+02 -0.14168293444E+03  0.30584427231E+03  0.26282587643E+03 0.  0.
         25    1    4    4    0    0  0.93036761926E+01  0.14404217392E+02 -0.54344068698E+02  0.13745845108E+03  0.12509000000E+03 0.  0.
         25    1    4    4    0    0 -0.70356519339E+02  0.11320751286E+02 -0.87338865741E+02  0.16838582123E+03  0.12509000000E+03 0.  0.
         25    1    3    3    0    0  0.61052843147E+02 -0.25724968679E+02  0.59850566170E+02  0.15368416327E+03  0.12509000000E+03 0.  0.
<mgrwt>
<rscale>  2 0.45218342E+03</rscale>
<asrwt>0</asrwt>
<pdfrwt beam="1">  1       21 0.27771770E-01 0.45218342E+03</pdfrwt>
<pdfrwt beam="2">  1       21 0.39805941E-01 0.45218342E+03</pdfrwt>
<totfact> 0.69767275E+04</totfact>
</mgrwt>
</event>
<event>
 7    0  0.4712189E-002  0.4558680E+03  0.7546771E-02  0.1025986E+00
         21   -1    0    0  502  501  0.00000000000E+00  0.00000000000E+00  0.15912291894E+04  0.15912291894E+04  0.00000000000E+00 0.  1.
         21   -1    0    0  501  502 -0.00000000000E+00 -0.00000000000E+00 -0.32650173707E+02  0.32650173707E+02  0.00000000000E+00 0.  1.
      99926    2    1    2    0    0  0.00000000000E+00  0.00000000000E+00  0.15585790157E+04  0.16238793632E+04  0.45586800477E+03 0.  0.
      99925    2    3    3    0    0  0.85200195735E+02 -0.33467884791E+02  0.73785345735E+03  0.78864459199E+03  0.26297033157E+03 0.  0.
         25    1    4    4    0    0  0.38605820756E+02  0.72276270942E+01  0.45059740202E+03  0.46928474810E+03  0.12509000000E+03 0.  0.
         25    1    4    4    0    0  0.46594374979E+02 -0.40695511886E+02  0.28725605533E+03  0.31935984389E+03  0.12509000000E+03 0.  0.
         25    1    3    3    0    0 -0.85200195735E+02  0.33467884791E+02  0.82072555839E+03  0.83523477117E+03  0.12509000000E+03 0.  0.
<mgrwt>
<rscale>  2 0.45586800E+03</rscale>
<asrwt>0</asrwt>
<pdfrwt beam="1">  1       21 0.23400424E+00 0.45586800E+03</pdfrwt>
<pdfrwt beam="2">  1       21 0.48014972E-02 0.45586800E+03</pdfrwt>
<totfact> 0.20755271E+04</totfact>
</mgrwt>
</event>
<event>
 7    0  0.4712189E-002  0.4615802E+03  0.7546771E-02  0.1024324E+00
         21   -1    0    0  502  501  0.00000000000E+00  0.00000000000E+00  0.22158940936E+03  0.22158940936E+03  0.00000000000E+00 0. -1.
         21   -1    0    0  501  502 -0.00000000000E+00 -0.00000000000E+00 -0.24037280314E+03  0.24037280314E+03  0.00000000000E+00 0. -1.
      99926    2    1    2    0    0  0.00000000000E+00 -0.14210854715E-13 -0.18783393783E+02  0.46196221250E+03  0.46158018794E+03 0.  0.
      99925    2    3    3    0    0 -0.13208790461E+02  0.10126158410E+03  0.49908477350E+02  0.28647870382E+03  0.26296541801E+03 0.  0.
         25    1    4    4    0    0  0.67779374493E+01  0.64834509970E+02  0.62069025700E+02  0.15410881276E+03  0.12509000000E+03 0.  0.
         25    1    3    3    0    0  0.13208790461E+02 -0.10126158410E+03 -0.68691871133E+02  0.17548350868E+03  0.12509000000E+03 0.  0.
         25    1    4    4    0    0 -0.19986727910E+02  0.36427074132E+02 -0.12160548350E+02  0.13236989106E+03  0.12509000000E+03 0.  0.
<mgrwt>
<rscale>  2 0.46158019E+03</rscale>
<asrwt>0</asrwt>
<pdfrwt beam="1">  1       21 0.32586678E-01 0.46158019E+03</pdfrwt>
<pdfrwt beam="2">  1       21 0.35348942E-01 0.46158019E+03</pdfrwt>
<totfact> 0.64580893E+04</totfact>
</mgrwt>
</event>
<event>
 7    0  0.4712189E-002  0.4677023E+03  0.7546771E-02  0.1022571E+00
         21   -1    0    0  502  501  0.00000000000E+00  0.00000000000E+00  0.20239936286E+03  0.20239936286E+03  0.00000000000E+00 0.  1.
         21   -1    0    0  501  502 -0.00000000000E+00 -0.00000000000E+00 -0.27019033154E+03  0.27019033154E+03  0.00000000000E+00 0.  1.
      99926    2    1    2    0    0 -0.35527136788E-14 -0.71054273576E-14 -0.67790968681E+02  0.47258969440E+03  0.46770225979E+03 0.  0.
      99925    2    3    3    0    0 -0.29999890484E+02 -0.39691421217E+02 -0.15781123730E+03  0.31064353294E+03  0.26290609653E+03 0.  0.
         25    1    4    4    0    0 -0.27405645032E+02 -0.47731727761E+02 -0.50767553764E+02  0.14578833914E+03  0.12509000000E+03 0.  0.
         25    1    3    3    0    0  0.29999890484E+02  0.39691421217E+02  0.90020268619E+02  0.16194616145E+03  0.12509000000E+03 0.  0.
         25    1    4    4    0    0 -0.25942454529E+01  0.80403065437E+01 -0.10704368354E+03  0.16485519380E+03  0.12509000000E+03 0.  0.
<mgrwt>
<rscale>  2 0.46770226E+03</rscale>
<asrwt>0</asrwt>
<pdfrwt beam="1">  1       21 0.29764612E-01 0.46770226E+03</pdfrwt>
<pdfrwt beam="2">  1       21 0.39733872E-01 0.46770226E+03</pdfrwt>
<totfact> 0.60868169E+04</totfact>
</mgrwt>
</event>
<event>
 7    0  0.4712189E-002  0.4390668E+03  0.7546771E-02  0.1031034E+00
         21   -1    0    0  502  501  0.00000000000E+00  0.00000000000E+00  0.23934991222E+03  0.23934991222E+03  0.00000000000E+00 0. -1.
         21   -1    0    0  501  502 -0.00000000000E+00 -0.00000000000E+00 -0.20135752839E+03  0.20135752839E+03  0.00000000000E+00 0. -1.
      99926    2    1    2    0    0  0.17763568394E-14  0.00000000000E+00  0.37992383828E+02  0.44070744060E+03  0.43906676824E+03 0.  0.
      99925    2    3    3    0    0  0.96636866544E+01 -0.16996604707E+02 -0.71606200383E+02  0.27325109055E+03  0.26297611896E+03 0.  0.
         25    1    3    3    0    0 -0.96636866544E+01  0.16996604707E+02  0.10959858421E+03  0.16745635005E+03  0.12509000000E+03 0.  0.
         25    1    4    4    0    0  0.36157540875E+02 -0.31947146558E+02 -0.25291703518E+02  0.13643740800E+03  0.12509000000E+03 0.  0.
         25    1    4    4    0    0 -0.26493854221E+02  0.14950541851E+02 -0.46314496865E+02  0.13681368255E+03  0.12509000000E+03 0.  0.
<mgrwt>
<rscale>  2 0.43906677E+03</rscale>
<asrwt>0</asrwt>
<pdfrwt beam="1">  1       21 0.35198517E-01 0.43906677E+03</pdfrwt>
<pdfrwt beam="2">  1       21 0.29611401E-01 0.43906677E+03</pdfrwt>
<totfact> 0.79206109E+04</totfact>
</mgrwt>
</event>
<event>
 7    0  0.4712189E-002  0.4529430E+03  0.7546771E-02  0.1026848E+00
         21   -1    0    0  502  501  0.00000000000E+00  0.00000000000E+00  0.83779596316E+02  0.83779596316E+02  0.00000000000E+00 0.  1.
         21   -1    0    0  501  502 -0.00000000000E+00 -0.00000000000E+00 -0.61219367450E+03  0.61219367450E+03  0.00000000000E+00 0.  1.
      99926    2    1    2    0    0  0.35527136788E-14  0.00000000000E+00 -0.52841407819E+03  0.69597327082E+03  0.45294299384E+03 0.  0.
      99925    2    3    3    0    0 -0.26156982431E+02 -0.26663591519E+02 -0.49413442598E+03  0.56100017165E+03  0.26297761656E+03 0.  0.
         25    1    3    3    0    0  0.26156982431E+02  0.26663591519E+02 -0.34279652204E+02  0.13497309916E+03  0.12509000000E+03 0.  0.
         25    1    4    4    0    0  0.86234010001E+00 -0.37763252937E+02 -0.31071482349E+03  0.33707271699E+03  0.12509000000E+03 0.  0.
         25    1    4    4    0    0 -0.27019322531E+02  0.11099661418E+02 -0.18341960249E+03  0.22392745466E+03  0.12509000000E+03 0.  0.
<mgrwt>
<rscale>  2 0.45294299E+03</rscale>
<asrwt>0</asrwt>
<pdfrwt beam="1">  1       21 0.12320530E-01 0.45294299E+03</pdfrwt>
<pdfrwt beam="2">  1       21 0.90028477E-01 0.45294299E+03</pdfrwt>
<totfact> 0.53990965E+04</totfact>
</mgrwt>
</event>
<event>
 7    0  0.4712189E-002  0.4516328E+03  0.7546771E-02  0.1027236E+00
         21   -1    0    0  502  501  0.00000000000E+00  0.00000000000E+00  0.69283237385E+02  0.69283237385E+02  0.00000000000E+00 0.  1.
         21   -1    0    0  501  502 -0.00000000000E+00 -0.00000000000E+00 -0.73600852760E+03  0.73600852760E+03  0.00000000000E+00 0.  1.
      99926    2    1    2    0    0  0.00000000000E+00  0.17763568394E-14 -0.66672529021E+03  0.80529176498E+03  0.45163283111E+03 0.  0.
      99925    2    3    3    0    0  0.10850887217E+03  0.14617181227E+02 -0.44307512385E+03  0.52662575999E+03  0.26273806039E+03 0.  0.
         25    1    3    3    0    0 -0.10850887217E+03 -0.14617181227E+02 -0.22365016636E+03  0.27866600500E+03  0.12509000000E+03 0.  0.
         25    1    4    4    0    0  0.21437717136E+02 -0.18226494142E+02 -0.21576221923E+03  0.25098331449E+03  0.12509000000E+03 0.  0.
         25    1    4    4    0    0  0.87071155039E+02  0.32843675370E+02 -0.22731290462E+03  0.27564244550E+03  0.12509000000E+03 0.  0.
<mgrwt>
<rscale>  2 0.45163283E+03</rscale>
<asrwt>0</asrwt>
<pdfrwt beam="1">  1       21 0.10188711E-01 0.45163283E+03</pdfrwt>
<pdfrwt beam="2">  1       21 0.10823655E+00 0.45163283E+03</pdfrwt>
<totfact> 0.48786321E+04</totfact>
</mgrwt>
</event>
<event>
 7    0  0.4712189E-002  0.4541366E+03  0.7546771E-02  0.1026496E+00
         21   -1    0    0  502  501  0.00000000000E+00  0.00000000000E+00  0.15180747134E+03  0.15180747134E+03  0.00000000000E+00 0. -1.
         21   -1    0    0  501  502 -0.00000000000E+00 -0.00000000000E+00 -0.33964086609E+03  0.33964086609E+03  0.00000000000E+00 0. -1.
      99926    2    1    2    0    0 -0.35527136788E-14  0.00000000000E+00 -0.18783339475E+03  0.49144833743E+03  0.45413663602E+03 0.  0.
      99925    2    3    3    0    0  0.94133081898E+01  0.79766531165E+02 -0.33332444011E+02  0.27704366923E+03  0.26304150427E+03 0.  0.
         25    1    3    3    0    0 -0.94133081898E+01 -0.79766531165E+02 -0.15450095074E+03  0.21440466820E+03  0.12509000000E+03 0.  0.
         25    1    4    4    0    0 -0.26479410859E+02  0.24028830533E+02  0.55865531654E+01  0.13022005058E+03  0.12509000000E+03 0.  0.
         25    1    4    4    0    0  0.35892719049E+02  0.55737700632E+02 -0.38918997177E+02  0.14682361865E+03  0.12509000000E+03 0.  0.
<mgrwt>
<rscale>  2 0.45413664E+03</rscale>
<asrwt>0</asrwt>
<pdfrwt beam="1">  1       21 0.22324628E-01 0.45413664E+03</pdfrwt>
<pdfrwt beam="2">  1       21 0.49947186E-01 0.45413664E+03</pdfrwt>
<totfact> 0.66329165E+04</totfact>
</mgrwt>
</event>
<event>
 7    0  0.4712189E-002  0.4536646E+03  0.7546771E-02  0.1026635E+00
         21   -1    0    0  502  501  0.00000000000E+00  0.00000000000E+00  0.39556579815E+03  0.39556579815E+03  0.00000000000E+00 0.  1.
         21   -1    0    0  501  502 -0.00000000000E+00 -0.00000000000E+00 -0.13007416837E+03  0.13007416837E+03  0.00000000000E+00 0.  1.
      99926    2    1    2    0    0  0.00000000000E+00  0.00000000000E+00  0.26549162977E+03  0.52563996652E+03  0.45366459959E+03 0.  0.
      99925    2    3    3    0    0  0.35399759022E+02  0.31046349011E+02  0.28482828867E+03  0.39059022308E+03  0.26309038298E+03 0.  0.
         25    1    3    3    0    0 -0.35399759022E+02 -0.31046349011E+02 -0.19336658894E+02  0.13504974344E+03  0.12509000000E+03 0.  0.
         25    1    4    4    0    0  0.42473865414E+01 -0.22376162946E+02  0.14869269761E+03  0.19564191622E+03  0.12509000000E+03 0.  0.
         25    1    4    4    0    0  0.31152372480E+02  0.53422511956E+02  0.13613559106E+03  0.19494830686E+03  0.12509000000E+03 0.  0.
<mgrwt>
<rscale>  2 0.45366460E+03</rscale>
<asrwt>0</asrwt>
<pdfrwt beam="1">  1       21 0.58171441E-01 0.45366460E+03</pdfrwt>
<pdfrwt beam="2">  1       21 0.19128554E-01 0.45366460E+03</pdfrwt>
<totfact> 0.64179334E+04</totfact>
</mgrwt>
</event>
<event>
 7    0  0.4712189E-002  0.4552798E+03  0.7546771E-02  0.1026159E+00
         21   -1    0    0  502  501  0.00000000000E+00  0.00000000000E+00  0.30606905113E+03  0.30606905113E+03  0.00000000000E+00 0.  1.
         21   -1    0    0  501  502 -0.00000000000E+00 -0.00000000000E+00 -0.16930793141E+03  0.16930793141E+03  0.00000000000E+00 0.  1.
      99926    2    1    2    0    0 -0.14210854715E-13  0.00000000000E+00  0.13676111972E+03  0.47537698254E+03  0.45527977295E+03 0.  0.
      99925    2    3    3    0    0  0.94244550993E+02  0.45257030320E+02  0.13219509177E+03  0.31228623817E+03  0.26290096630E+03 0.  0.
         25    1    4    4    0    0  0.10613761814E+02  0.96257573639E+01  0.39313939487E+02  0.13190299876E+03  0.12509000000E+03 0.  0.
         25    1    3    3    0    0 -0.94244550993E+02 -0.45257030320E+02  0.45660279519E+01  0.16309074436E+03  0.12509000000E+03 0.  0.
         25    1    4    4    0    0  0.83630789179E+02  0.35631272956E+02  0.92881152284E+02  0.18038323941E+03  0.12509000000E+03 0.  0.
<mgrwt>
<rscale>  2 0.45527977E+03</rscale>
<asrwt>0</asrwt>
<pdfrwt beam="1">  1       21 0.45010155E-01 0.45527977E+03</pdfrwt>
<pdfrwt beam="2">  1       21 0.24898225E-01 0.45527977E+03</pdfrwt>
<totfact> 0.66889561E+04</totfact>
</mgrwt>
</event>
<event>
 7    0  0.4712189E-002  0.4620049E+03  0.7546771E-02  0.1024201E+00
         21   -1    0    0  502  501  0.00000000000E+00  0.00000000000E+00  0.16386268338E+04  0.16386268338E+04  0.00000000000E+00 0.  1.
         21   -1    0    0  501  502 -0.00000000000E+00 -0.00000000000E+00 -0.32565149140E+02  0.32565149140E+02  0.00000000000E+00 0.  1.
      99926    2    1    2    0    0  0.00000000000E+00  0.14210854715E-13  0.16060616846E+04  0.16711919829E+04  0.46200487974E+03 0.  0.
      99925    2    3    3    0    0 -0.61463484498E+01 -0.11929545103E+03  0.10250736191E+04  0.10650040396E+04  0.26303706495E+03 0.  0.
         25    1    4    4    0    0  0.20491582362E+01 -0.96153225873E+02  0.64927624092E+03  0.66817421906E+03  0.12509000000E+03 0.  0.
         25    1    4    4    0    0 -0.81955066860E+01 -0.23142225159E+02  0.37579737817E+03  0.39682982052E+03  0.12509000000E+03 0.  0.
         25    1    3    3    0    0  0.61463484498E+01  0.11929545103E+03  0.58098806554E+03  0.60618794333E+03  0.12509000000E+03 0.  0.
<mgrwt>
<rscale>  2 0.46200488E+03</rscale>
<asrwt>0</asrwt>
<pdfrwt beam="1">  1       21 0.24097448E+00 0.46200488E+03</pdfrwt>
<pdfrwt beam="2">  1       21 0.47889936E-02 0.46200488E+03</pdfrwt>
<totfact> 0.18823111E+04</totfact>
</mgrwt>
</event>
<event>
 7    0  0.4712189E-002  0.4514091E+03  0.7546771E-02  0.1027303E+00
         21   -1    0    0  502  501  0.00000000000E+00  0.00000000000E+00  0.24555714795E+03  0.24555714795E+03  0.00000000000E+00 0. -1.
         21   -1    0    0  501  502 -0.00000000000E+00 -0.00000000000E+00 -0.20745696686E+03  0.20745696686E+03  0.00000000000E+00 0. -1.
      99926    2    1    2    0    0  0.00000000000E+00 -0.71054273576E-14  0.38100181084E+02  0.45301411481E+03  0.45140908766E+03 0.  0.
      99925    2    3    3    0    0  0.40650365750E+01 -0.61434406107E+02  0.11520845342E+03  0.29369084427E+03  0.26304108708E+03 0.  0.
         25    1    4    4    0    0 -0.28950702764E+02 -0.87769619698E+01  0.38485850863E+02  0.13432738763E+03  0.12509000000E+03 0.  0.
         25    1    3    3    0    0 -0.40650365750E+01  0.61434406107E+02 -0.77108272331E+02  0.15932327055E+03  0.12509000000E+03 0.  0.
         25    1    4    4    0    0  0.33015739339E+02 -0.52657444137E+02  0.76722602552E+02  0.15936345663E+03  0.12509000000E+03 0.  0.
<mgrwt>
<rscale>  2 0.45140909E+03</rscale>
<asrwt>0</asrwt>
<pdfrwt beam="1">  1       21 0.36111345E-01 0.45140909E+03</pdfrwt>
<pdfrwt beam="2">  1       21 0.30508377E-01 0.45140909E+03</pdfrwt>
<totfact> 0.70695415E+04</totfact>
</mgrwt>
</event>
<event>
 7    0  0.4712189E-002  0.4480848E+03  0.7546771E-02  0.1028295E+00
         21   -1    0    0  502  501  0.00000000000E+00  0.00000000000E+00  0.32153244670E+03  0.32153244670E+03  0.00000000000E+00 0. -1.
         21   -1    0    0  501  502 -0.00000000000E+00 -0.00000000000E+00 -0.15611179517E+03  0.15611179517E+03  0.00000000000E+00 0. -1.
      99926    2    1    2    0    0  0.00000000000E+00  0.35527136788E-14  0.16542065154E+03  0.47764424187E+03  0.44808484670E+03 0.  0.
      99925    2    3    3    0    0  0.45786051283E+02 -0.17246637147E+02  0.20570950397E+03  0.33741404286E+03  0.26294110997E+03 0.  0.
         25    1    4    4    0    0 -0.73886590946E+01 -0.34268917296E+02  0.11104934464E+03  0.17090469865E+03  0.12509000000E+03 0.  0.
         25    1    4    4    0    0  0.53174710377E+02  0.17022280149E+02  0.94660159329E+02  0.16650934421E+03  0.12509000000E+03 0.  0.
         25    1    3    3    0    0 -0.45786051283E+02  0.17246637147E+02 -0.40288852429E+02  0.14023019901E+03  0.12509000000E+03 0.  0.
<mgrwt>
<rscale>  2 0.44808485E+03</rscale>
<asrwt>0</asrwt>
<pdfrwt beam="1">  1       21 0.47284184E-01 0.44808485E+03</pdfrwt>
<pdfrwt beam="2">  1       21 0.22957617E-01 0.44808485E+03</pdfrwt>
<totfact> 0.70672313E+04</totfact>
</mgrwt>
</event>
<event>
 7    0  0.4712189E-002  0.4373103E+03  0.7546771E-02  0.1031575E+00
         21   -1    0    0  502  501  0.00000000000E+00  0.00000000000E+00  0.16718727558E+04  0.16718727558E+04  0.00000000000E+00 0.  1.
         21   -1    0    0  501  502 -0.00000000000E+00 -0.00000000000E+00 -0.28596723428E+02  0.28596723428E+02  0.00000000000E+00 0.  1.
      99926    2    1    2    0    0  0.00000000000E+00  0.17763568394E-14  0.16432760324E+04  0.17004694792E+04  0.43731033742E+03 0.  0.
      99925    2    3    3    0    0 -0.60198775220E+02 -0.61863674742E+01  0.13395909881E+04  0.13665019989E+04  0.26298580572E+03 0.  0.
         25    1    4    4    0    0 -0.47719094606E+02  0.13929792153E+02  0.85185818465E+03  0.86242740330E+03  0.12509000000E+03 0.  0.
         25    1    3    3    0    0  0.60198775220E+02  0.61863674742E+01  0.30368504428E+03  0.33396748031E+03  0.12509000000E+03 0.  0.
         25    1    4    4    0    0 -0.12479680615E+02 -0.20116159627E+02  0.48773280343E+03  0.50407459562E+03  0.12509000000E+03 0.  0.
<mgrwt>
<rscale>  2 0.43731034E+03</rscale>
<asrwt>0</asrwt>
<pdfrwt beam="1">  1       21 0.24586357E+00 0.43731034E+03</pdfrwt>
<pdfrwt beam="2">  1       21 0.42054016E-02 0.43731034E+03</pdfrwt>
<totfact> 0.22140172E+04</totfact>
</mgrwt>
</event>
<event>
 7    0  0.4712189E-002  0.4504094E+03  0.7546771E-02  0.1027600E+00
         21   -1    0    0  502  501  0.00000000000E+00  0.00000000000E+00  0.24263480799E+02  0.24263480799E+02  0.00000000000E+00 0. -1.
         21   -1    0    0  501  502 -0.00000000000E+00 -0.00000000000E+00 -0.20902668606E+04  0.20902668606E+04  0.00000000000E+00 0. -1.
      99926    2    1    2    0    0  0.00000000000E+00  0.00000000000E+00 -0.20660033798E+04  0.21145303414E+04  0.45040936864E+03 0.  0.
      99925    2    3    3    0    0 -0.16307356511E+02 -0.28092538528E+02 -0.17929153976E+04  0.18124050781E+04  0.26308064088E+03 0.  0.
         25    1    4    4    0    0  0.30325210432E+02 -0.28583190027E+00 -0.86998468830E+03  0.87945469813E+03  0.12509000000E+03 0.  0.
         25    1    3    3    0    0  0.16307356511E+02  0.28092538528E+02 -0.27308798223E+03  0.30212526332E+03  0.12509000000E+03 0.  0.
         25    1    4    4    0    0 -0.46632566943E+02 -0.27806706627E+02 -0.92293070932E+03  0.93295038000E+03  0.12509000000E+03 0.  0.
<mgrwt>
<rscale>  2 0.45040937E+03</rscale>
<asrwt>0</asrwt>
<pdfrwt beam="1">  1       21 0.35681596E-02 0.45040937E+03</pdfrwt>
<pdfrwt beam="2">  1       21 0.30739213E+00 0.45040937E+03</pdfrwt>
<totfact> 0.12363345E+04</totfact>
</mgrwt>
</event>
<event>
 6    0  0.4712189E-002  0.4521053E+03  0.7546771E-02  0.1027096E+00
         21   -1    0    0  502  501  0.00000000000E+00  0.00000000000E+00  0.11310333867E+04  0.11310333867E+04  0.00000000000E+00 0. -1.
         21   -1    0    0  501  502 -0.00000000000E+00 -0.00000000000E+00 -0.45179754886E+02  0.45179754886E+02  0.00000000000E+00 0. -1.
      99926    2    1    2    0    0  0.71054273576E-14 -0.14210854715E-13  0.10858536318E+04  0.11762131416E+04  0.45210534693E+03 0.  0.
         25    1    3    3    0    0  0.34761345681E+02 -0.72012553330E+02  0.58786924572E+03  0.60632657632E+03  0.12509000000E+03 0.  0.
         25    1    3    3    0    0 -0.25609148308E+02  0.29884829515E+02  0.15965699875E+03  0.20660783350E+03  0.12509000000E+03 0.  0.
         25    1    3    3    0    0 -0.91521973730E+01  0.42127723814E+02  0.33832738738E+03  0.36327873180E+03  0.12509000000E+03 0.  0.
<mgrwt>
<rscale>  2 0.45210535E+03</rscale>
<asrwt>0</asrwt>
<pdfrwt beam="1">  1       21 0.16632842E+00 0.45210535E+03</pdfrwt>
<pdfrwt beam="2">  1       21 0.66440823E-02 0.45210535E+03</pdfrwt>
<totfact> 0.33672183E+04</totfact>
</mgrwt>
</event>
<event>
 7    0  0.4712189E-002  0.4476538E+03  0.7546771E-02  0.1028424E+00
         21   -1    0    0  502  501  0.00000000000E+00  0.00000000000E+00  0.39638679637E+02  0.39638679637E+02  0.00000000000E+00 0. -1.
         21   -1    0    0  501  502 -0.00000000000E+00 -0.00000000000E+00 -0.12638784825E+04  0.12638784825E+04  0.00000000000E+00 0. -1.
      99926    2    1    2    0    0  0.00000000000E+00  0.00000000000E+00 -0.12242398029E+04  0.13035171622E+04  0.44765376919E+03 0.  0.
      99925    2    3    3    0    0  0.92150230922E+02  0.42189470402E+02 -0.68304901960E+03  0.73888755925E+03  0.26292060695E+03 0.  0.
         25    1    4    4    0    0  0.25458938284E+02  0.19131347939E+02 -0.23157600778E+03  0.26512095634E+03  0.12509000000E+03 0.  0.
         25    1    3    3    0    0 -0.92150230922E+02 -0.42189470402E+02 -0.54119078328E+03  0.56462960290E+03  0.12509000000E+03 0.  0.
         25    1    4    4    0    0  0.66691292639E+02  0.23058122462E+02 -0.45147301183E+03  0.47376660291E+03  0.12509000000E+03 0.  0.
<mgrwt>
<rscale>  2 0.44765377E+03</rscale>
<asrwt>0</asrwt>
<pdfrwt beam="1">  1       21 0.58292188E-02 0.44765377E+03</pdfrwt>
<pdfrwt beam="2">  1       21 0.18586444E+00 0.44765377E+03</pdfrwt>
<totfact> 0.30731267E+04</totfact>
</mgrwt>
</event>
<event>
 7    0  0.4712189E-002  0.4557775E+03  0.7546771E-02  0.1026013E+00
         21   -1    0    0  502  501  0.00000000000E+00  0.00000000000E+00  0.19750931245E+03  0.19750931245E+03  0.00000000000E+00 0.  1.
         21   -1    0    0  501  502 -0.00000000000E+00 -0.00000000000E+00 -0.26294094556E+03  0.26294094556E+03  0.00000000000E+00 0.  1.
      99926    2    1    2    0    0  0.00000000000E+00 -0.71054273576E-14 -0.65431633112E+02  0.46045025800E+03  0.45577751314E+03 0.  0.
      99925    2    3    3    0    0 -0.72087755755E+02 -0.56055846030E+02  0.27529244151E+02  0.27981766071E+03  0.26306113654E+03 0.  0.
         25    1    4    4    0    0 -0.32784161780E+01 -0.18686242849E+00  0.13968138806E+02  0.12591028525E+03  0.12509000000E+03 0.  0.
         25    1    3    3    0    0  0.72087755755E+02  0.56055846030E+02 -0.92960877264E+02  0.18063259730E+03  0.12509000000E+03 0.  0.
         25    1    4    4    0    0 -0.68809339577E+02 -0.55868983602E+02  0.13561105345E+02  0.15390737546E+03  0.12509000000E+03 0.  0.
<mgrwt>
<rscale>  2 0.45577751E+03</rscale>
<asrwt>0</asrwt>
<pdfrwt beam="1">  1       21 0.29045487E-01 0.45577751E+03</pdfrwt>
<pdfrwt beam="2">  1       21 0.38667786E-01 0.45577751E+03</pdfrwt>
<totfact> 0.67726862E+04</totfact>
</mgrwt>
</event>
<event>
 7    0  0.4712189E-002  0.4406971E+03  0.7546771E-02  0.1030533E+00
         21   -1    0    0  502  501  0.00000000000E+00  0.00000000000E+00  0.10161103732E+03  0.10161103732E+03  0.00000000000E+00 0.  1.
         21   -1    0    0  501  502 -0.00000000000E+00 -0.00000000000E+00 -0.47783673741E+03  0.47783673741E+03  0.00000000000E+00 0.  1.
      99926    2    1    2    0    0  0.00000000000E+00  0.88817841970E-15 -0.37622570009E+03  0.57944777473E+03  0.44069711394E+03 0.  0.
      99925    2    3    3    0    0 -0.98629710009E+02 -0.10645107160E+01 -0.25281516716E+03  0.37793692982E+03  0.26304345895E+03 0.  0.
         25    1    4    4    0    0 -0.68182113442E+02  0.26447041935E+02 -0.99073480500E+02  0.17553150503E+03  0.12509000000E+03 0.  0.
         25    1    4    4    0    0 -0.30447596567E+02 -0.27511552651E+02 -0.15374168666E+03  0.20240542478E+03  0.12509000000E+03 0.  0.
         25    1    3    3    0    0  0.98629710009E+02  0.10645107160E+01 -0.12341053293E+03  0.20151084491E+03  0.12509000000E+03 0.  0.
<mgrwt>
<rscale>  2 0.44069711E+03</rscale>
<asrwt>0</asrwt>
<pdfrwt beam="1">  1       21 0.14942800E-01 0.44069711E+03</pdfrwt>
<pdfrwt beam="2">  1       21 0.70270107E-01 0.44069711E+03</pdfrwt>
<totfact> 0.67248890E+04</totfact>
</mgrwt>
</event>
<event>
 7    0  0.4712189E-002  0.4487309E+03  0.7546771E-02  0.1028101E+00
         21   -1    0    0  502  501  0.00000000000E+00  0.00000000000E+00  0.35983541876E+03  0.35983541876E+03  0.00000000000E+00 0.  1.
         21   -1    0    0  501  502 -0.00000000000E+00 -0.00000000000E+00 -0.13989687104E+03  0.13989687104E+03  0.00000000000E+00 0.  1.
      99926    2    1    2    0    0  0.00000000000E+00  0.00000000000E+00  0.21993854771E+03  0.49973228980E+03  0.44873087335E+03 0.  0.
      99925    2    3    3    0    0  0.12190807405E+02  0.10379544523E+03  0.11363051543E+03  0.30512752094E+03  0.26318966500E+03 0.  0.
         25    1    4    4    0    0  0.26604290709E+02  0.79984227982E+02  0.87365444902E+02  0.17431435418E+03  0.12509000000E+03 0.  0.
         25    1    4    4    0    0 -0.14413483304E+02  0.23811217245E+02  0.26265070526E+02  0.13081316676E+03  0.12509000000E+03 0.  0.
         25    1    3    3    0    0 -0.12190807405E+02 -0.10379544523E+03  0.10630803229E+03  0.19460476886E+03  0.12509000000E+03 0.  0.
<mgrwt>
<rscale>  2 0.44873087E+03</rscale>
<asrwt>0</asrwt>
<pdfrwt beam="1">  1       21 0.52916973E-01 0.44873087E+03</pdfrwt>
<pdfrwt beam="2">  1       21 0.20573069E-01 0.44873087E+03</pdfrwt>
<totfact> 0.68642145E+04</totfact>
</mgrwt>
</event>
<event>
 7    0  0.4712189E-002  0.4529685E+03  0.7546771E-02  0.1026840E+00
         21   -1    0    0  502  501  0.00000000000E+00  0.00000000000E+00  0.17951935261E+03  0.17951935261E+03  0.00000000000E+00 0.  1.
         21   -1    0    0  501  502 -0.00000000000E+00 -0.00000000000E+00 -0.28573589638E+03  0.28573589638E+03  0.00000000000E+00 0.  1.
      99926    2    1    2    0    0  0.00000000000E+00  0.00000000000E+00 -0.10621654378E+03  0.46525524899E+03  0.45296853372E+03 0.  0.
      99925    2    3    3    0    0 -0.81263829436E+02  0.18010765760E+02  0.89050112215E+01  0.27597060042E+03  0.26296820229E+03 0.  0.
         25    1    4    4    0    0 -0.42496262811E+02 -0.63859185970E+01 -0.33003630658E+02  0.13632116507E+03  0.12509000000E+03 0.  0.
         25    1    4    4    0    0 -0.38767566626E+02  0.24396684357E+02  0.41908641880E+02  0.13964943535E+03  0.12509000000E+03 0.  0.
         25    1    3    3    0    0  0.81263829436E+02 -0.18010765760E+02 -0.11512155500E+03  0.18928464857E+03  0.12509000000E+03 0.  0.
<mgrwt>
<rscale>  2 0.45296853E+03</rscale>
<asrwt>0</asrwt>
<pdfrwt beam="1">  1       21 0.26399905E-01 0.45296853E+03</pdfrwt>
<pdfrwt beam="2">  1       21 0.42019984E-01 0.45296853E+03</pdfrwt>
<totfact> 0.68893954E+04</totfact>
</mgrwt>
</event>
<event>
 7    0  0.4712189E-002  0.4639533E+03  0.7546771E-02  0.1023641E+00
         21   -1    0    0  502  501  0.00000000000E+00  0.00000000000E+00  0.41991124114E+02  0.41991124114E+02  0.00000000000E+00 0. -1.
         21   -1    0    0  501  502 -0.00000000000E+00 -0.00000000000E+00 -0.12815364393E+04  0.12815364393E+04  0.00000000000E+00 0. -1.
      99926    2    1    2    0    0  0.00000000000E+00 -0.19984014443E-14 -0.12395453152E+04  0.13235275634E+04  0.46395325488E+03 0.  0.
      99925    2    3    3    0    0 -0.69042397287E+02  0.17809595625E+01 -0.10586953247E+04  0.10930405755E+04  0.26292942915E+03 0.  0.
         25    1    3    3    0    0  0.69042397287E+02 -0.17809595625E+01 -0.18084999052E+03  0.23048698794E+03  0.12509000000E+03 0.  0.
         25    1    4    4    0    0 -0.47467728179E+02 -0.36513015324E+02 -0.57672919669E+03  0.59316984070E+03  0.12509000000E+03 0.  0.
         25    1    4    4    0    0 -0.21574669108E+02  0.38293974886E+02 -0.48196612798E+03  0.49987073477E+03  0.12509000000E+03 0.  0.
<mgrwt>
<rscale>  2 0.46395325E+03</rscale>
<asrwt>0</asrwt>
<pdfrwt beam="1">  1       21 0.61751647E-02 0.46395325E+03</pdfrwt>
<pdfrwt beam="2">  1       21 0.18846126E+00 0.46395325E+03</pdfrwt>
<totfact> 0.26542320E+04</totfact>
</mgrwt>
</event>
<event>
 7    0  0.4712189E-002  0.4509265E+03  0.7546771E-02  0.1027446E+00
         21   -1    0    0  502  501  0.00000000000E+00  0.00000000000E+00  0.10145041258E+03  0.10145041258E+03  0.00000000000E+00 0.  1.
         21   -1    0    0  501  502 -0.00000000000E+00 -0.00000000000E+00 -0.50106920756E+03  0.50106920756E+03  0.00000000000E+00 0.  1.
      99926    2    1    2    0    0  0.00000000000E+00  0.00000000000E+00 -0.39961879499E+03  0.60251962014E+03  0.45092650326E+03 0.  0.
      99925    2    3    3    0    0 -0.45271763303E+02 -0.68774954356E+02 -0.15628371732E+03  0.31679423621E+03  0.26297235767E+03 0.  0.
         25    1    4    4    0    0 -0.80721036756E+01 -0.73385764977E+01 -0.10508347001E+03  0.16373471633E+03  0.12509000000E+03 0.  0.
         25    1    4    4    0    0 -0.37199659628E+02 -0.61436377858E+02 -0.51200247312E+02  0.15305951988E+03  0.12509000000E+03 0.  0.
         25    1    3    3    0    0  0.45271763303E+02  0.68774954356E+02 -0.24333507766E+03  0.28572538393E+03  0.12509000000E+03 0.  0.
<mgrwt>
<rscale>  2 0.45092650E+03</rscale>
<asrwt>0</asrwt>
<pdfrwt beam="1">  1       21 0.14919178E-01 0.45092650E+03</pdfrwt>
<pdfrwt beam="2">  1       21 0.73686648E-01 0.45092650E+03</pdfrwt>
<totfact> 0.60445382E+04</totfact>
</mgrwt>
</event>
<event>
 7    0  0.4712189E-002  0.4780303E+03  0.7546771E-02  0.1019678E+00
         21   -1    0    0  502  501  0.00000000000E+00  0.00000000000E+00  0.12668626771E+03  0.12668626771E+03  0.00000000000E+00 0. -1.
         21   -1    0    0  501  502 -0.00000000000E+00 -0.00000000000E+00 -0.45094272896E+03  0.45094272896E+03  0.00000000000E+00 0. -1.
      99926    2    1    2    0    0 -0.71054273576E-14  0.00000000000E+00 -0.32425646125E+03  0.57762899667E+03  0.47803033913E+03 0.  0.
      99925    2    3    3    0    0 -0.45183543383E+02  0.66979975516E+02 -0.32869555536E+03  0.42864885246E+03  0.26300418417E+03 0.  0.
         25    1    4    4    0    0 -0.57276918826E+02  0.57473004409E+02 -0.17860954738E+03  0.23266428643E+03  0.12509000000E+03 0.  0.
         25    1    4    4    0    0  0.12093375443E+02  0.95069711070E+01 -0.15008600798E+03  0.19598456603E+03  0.12509000000E+03 0.  0.
         25    1    3    3    0    0  0.45183543383E+02 -0.66979975516E+02  0.44390941104E+01  0.14898014421E+03  0.12509000000E+03 0.  0.
<mgrwt>
<rscale>  2 0.47803034E+03</rscale>
<asrwt>0</asrwt>
<pdfrwt beam="1">  1       21 0.18630333E-01 0.47803034E+03</pdfrwt>
<pdfrwt beam="2">  1       21 0.66315108E-01 0.47803034E+03</pdfrwt>
<totfact> 0.50276635E+04</totfact>
</mgrwt>
</event>
<event>
 7    0  0.4712189E-002  0.4538305E+03  0.7546771E-02  0.1026586E+00
         21   -1    0    0  502  501  0.00000000000E+00  0.00000000000E+00  0.15993241411E+03  0.15993241411E+03  0.00000000000E+00 0. -1.
         21   -1    0    0  501  502 -0.00000000000E+00 -0.00000000000E+00 -0.32195185665E+03  0.32195185665E+03  0.00000000000E+00 0. -1.
      99926    2    1    2    0    0  0.00000000000E+00  0.00000000000E+00 -0.16201944254E+03  0.48188427076E+03  0.45383053075E+03 0.  0.
      99925    2    3    3    0    0 -0.48213795391E+02 -0.10085356526E+03 -0.95048718689E+02  0.30125039341E+03  0.26309984590E+03 0.  0.
         25    1    4    4    0    0  0.80497757017E+01 -0.27371985391E+02 -0.60527297779E+02  0.14186291393E+03  0.12509000000E+03 0.  0.
         25    1    4    4    0    0 -0.56263571093E+02 -0.73481579871E+02 -0.34521420910E+02  0.15938747948E+03  0.12509000000E+03 0.  0.
         25    1    3    3    0    0  0.48213795391E+02  0.10085356526E+03 -0.66970723851E+02  0.18063387735E+03  0.12509000000E+03 0.  0.
<mgrwt>
<rscale>  2 0.45383053E+03</rscale>
<asrwt>0</asrwt>
<pdfrwt beam="1">  1       21 0.23519473E-01 0.45383053E+03</pdfrwt>
<pdfrwt beam="2">  1       21 0.47345861E-01 0.45383053E+03</pdfrwt>
<totfact> 0.67184724E+04</totfact>
</mgrwt>
</event>
<event>
 7    0  0.4712189E-002  0.4372967E+03  0.7546771E-02  0.1031579E+00
         21   -1    0    0  502  501  0.00000000000E+00  0.00000000000E+00  0.54909423646E+03  0.54909423646E+03  0.00000000000E+00 0. -1.
         21   -1    0    0  501  502 -0.00000000000E+00 -0.00000000000E+00 -0.87065368862E+02  0.87065368862E+02  0.00000000000E+00 0. -1.
      99926    2    1    2    0    0  0.00000000000E+00  0.00000000000E+00  0.46202886760E+03  0.63615960533E+03  0.43729666012E+03 0.  0.
      99925    2    3    3    0    0 -0.33011107836E+02 -0.35284634361E+02  0.41565600313E+03  0.49426989703E+03  0.26305527841E+03 0.  0.
         25    1    4    4    0    0 -0.54748143957E+02 -0.10190753710E+02  0.23611487014E+03  0.27294495916E+03  0.12509000000E+03 0.  0.
         25    1    4    4    0    0  0.21737036121E+02 -0.25093880651E+02  0.17954113300E+03  0.22132493787E+03  0.12509000000E+03 0.  0.
         25    1    3    3    0    0  0.33011107836E+02  0.35284634361E+02  0.46372864467E+02  0.14188970830E+03  0.12509000000E+03 0.  0.
<mgrwt>
<rscale>  2 0.43729666E+03</rscale>
<asrwt>0</asrwt>
<pdfrwt beam="1">  1       21 0.80749151E-01 0.43729666E+03</pdfrwt>
<pdfrwt beam="2">  1       21 0.12803731E-01 0.43729666E+03</pdfrwt>
<totfact> 0.65139762E+04</totfact>
</mgrwt>
</event>
<event>
 7    0  0.4712189E-002  0.4571592E+03  0.7546771E-02  0.1025608E+00
         21   -1    0    0  502  501  0.00000000000E+00  0.00000000000E+00  0.40826344187E+03  0.40826344187E+03  0.00000000000E+00 0.  1.
         21   -1    0    0  501  502 -0.00000000000E+00 -0.00000000000E+00 -0.12797775403E+03  0.12797775403E+03  0.00000000000E+00 0.  1.
      99926    2    1    2    0    0  0.00000000000E+00  0.14210854715E-13  0.28028568784E+03  0.53624119589E+03  0.45715922102E+03 0.  0.
      99925    2    3    3    0    0  0.16753722792E+02 -0.74583227891E+02  0.27740000964E+03  0.38961520792E+03  0.26268974054E+03 0.  0.
         25    1    4    4    0    0  0.30367690617E+02 -0.71619416631E+02  0.13884329792E+03  0.20242654705E+03  0.12509000000E+03 0.  0.
         25    1    4    4    0    0 -0.13613967825E+02 -0.29638112607E+01  0.13855671172E+03  0.18718866088E+03  0.12509000000E+03 0.  0.
         25    1    3    3    0    0 -0.16753722792E+02  0.74583227891E+02  0.28856781986E+01  0.14662598797E+03  0.12509000000E+03 0.  0.
<mgrwt>
<rscale>  2 0.45715922E+03</rscale>
<asrwt>0</asrwt>
<pdfrwt beam="1">  1       21 0.60038741E-01 0.45715922E+03</pdfrwt>
<pdfrwt beam="2">  1       21 0.18820258E-01 0.45715922E+03</pdfrwt>
<totfact> 0.61722942E+04</totfact>
</mgrwt>
</event>
<event>
 6    0  0.4712189E-002  0.4456876E+03  0.7546771E-02  0.1029016E+00
         21   -1    0    0  502  501  0.00000000000E+00  0.00000000000E+00  0.81530817431E+03  0.81530817431E+03  0.00000000000E+00 0.  1.
         21   -1    0    0  501  502 -0.00000000000E+00 -0.00000000000E+00 -0.60908699731E+02  0.60908699731E+02  0.00000000000E+00 0.  1.
      99926    2    1    2    0    0  0.00000000000E+00 -0.88817841970E-14  0.75439947458E+03  0.87621687404E+03  0.44568760708E+03 0.  0.
         25    1    3    3    0    0  0.24877171762E+02  0.14495074796E+02  0.40610666520E+03  0.42590974688E+03  0.12509000000E+03 0.  0.
         25    1    3    3    0    0 -0.14096786107E+02 -0.72634708619E+02  0.15362109799E+03  0.21147451412E+03  0.12509000000E+03 0.  0.
         25    1    3    3    0    0 -0.10780385654E+02  0.58139633823E+02  0.19467171138E+03  0.23883261303E+03  0.12509000000E+03 0.  0.
<mgrwt>
<rscale>  2 0.44568761E+03</rscale>
<asrwt>0</asrwt>
<pdfrwt beam="1">  1       21 0.11989825E+00 0.44568761E+03</pdfrwt>
<pdfrwt beam="2">  1       21 0.89571622E-02 0.44568761E+03</pdfrwt>
<totfact> 0.47660308E+04</totfact>
</mgrwt>
</event>
<event>
 7    0  0.4712189E-002  0.4544931E+03  0.7546771E-02  0.1026391E+00
         21   -1    0    0  502  501  0.00000000000E+00  0.00000000000E+00  0.81714686330E+03  0.81714686330E+03  0.00000000000E+00 0.  1.
         21   -1    0    0  501  502 -0.00000000000E+00 -0.00000000000E+00 -0.63196699941E+02  0.63196699941E+02  0.00000000000E+00 0.  1.
      99926    2    1    2    0    0  0.00000000000E+00 -0.35527136788E-14  0.75395016336E+03  0.88034356324E+03  0.45449305881E+03 0.  0.
      99925    2    3    3    0    0  0.65178627836E+02 -0.14633241192E+02  0.65049838974E+03  0.70480962681E+03  0.26295640268E+03 0.  0.
         25    1    4    4    0    0  0.46296219138E+02 -0.36470126209E+02  0.27197564316E+03  0.30510927319E+03  0.12509000000E+03 0.  0.
         25    1    3    3    0    0 -0.65178627836E+02  0.14633241192E+02  0.10345177361E+03  0.17553393643E+03  0.12509000000E+03 0.  0.
         25    1    4    4    0    0  0.18882408698E+02  0.21836885017E+02  0.37852274658E+03  0.39970035362E+03  0.12509000000E+03 0.  0.
<mgrwt>
<rscale>  2 0.45449306E+03</rscale>
<asrwt>0</asrwt>
<pdfrwt beam="1">  1       21 0.12016865E+00 0.45449306E+03</pdfrwt>
<pdfrwt beam="2">  1       21 0.92936328E-02 0.45449306E+03</pdfrwt>
<totfact> 0.44270010E+04</totfact>
</mgrwt>
</event>
<event>
 7    0  0.4712189E-002  0.4537537E+03  0.7546771E-02  0.1026609E+00
         21   -1    0    0  502  501  0.00000000000E+00  0.00000000000E+00  0.52063516729E+03  0.52063516729E+03  0.00000000000E+00 0. -1.
         21   -1    0    0  501  502 -0.00000000000E+00 -0.00000000000E+00 -0.98865994546E+02  0.98865994546E+02  0.00000000000E+00 0. -1.
      99926    2    1    2    0    0  0.00000000000E+00  0.00000000000E+00  0.42176917275E+03  0.61950116184E+03  0.45375373766E+03 0.  0.
      99925    2    3    3    0    0  0.48938295433E+02 -0.22161643617E+02  0.13158776929E+03  0.29897214565E+03  0.26302643905E+03 0.  0.
         25    1    4    4    0    0  0.41382267341E+02  0.21573660380E+02  0.46823509296E+02  0.14148450090E+03  0.12509000000E+03 0.  0.
         25    1    4    4    0    0  0.75560280922E+01 -0.43735303997E+02  0.84764259997E+02  0.15748764475E+03  0.12509000000E+03 0.  0.
         25    1    3    3    0    0 -0.48938295433E+02  0.22161643617E+02  0.29018140345E+03  0.32052901619E+03  0.12509000000E+03 0.  0.
<mgrwt>
<rscale>  2 0.45375374E+03</rscale>
<asrwt>0</asrwt>
<pdfrwt beam="1">  1       21 0.76563994E-01 0.45375374E+03</pdfrwt>
<pdfrwt beam="2">  1       21 0.14539117E-01 0.45375374E+03</pdfrwt>
<totfact> 0.58063000E+04</totfact>
</mgrwt>
</event>
<event>
 7    0  0.4712189E-002  0.4462527E+03  0.7546771E-02  0.1028845E+00
         21   -1    0    0  502  501  0.00000000000E+00  0.00000000000E+00  0.33059147993E+03  0.33059147993E+03  0.00000000000E+00 0.  1.
         21   -1    0    0  501  502 -0.00000000000E+00 -0.00000000000E+00 -0.15059485174E+03  0.15059485174E+03  0.00000000000E+00 0.  1.
      99926    2    1    2    0    0  0.00000000000E+00  0.71054273576E-14  0.17999662819E+03  0.48118633167E+03  0.44625273067E+03 0.  0.
      99925    2    3    3    0    0  0.57052236100E+01  0.57599068044E+02  0.19916976112E+02  0.26994427780E+03  0.26291258046E+03 0.  0.
         25    1    4    4    0    0  0.25541000879E+02  0.58778579406E+02  0.26862105116E+02  0.14309557965E+03  0.12509000000E+03 0.  0.
         25    1    3    3    0    0 -0.57052236100E+01 -0.57599068044E+02  0.16007965207E+03  0.21124205387E+03  0.12509000000E+03 0.  0.
         25    1    4    4    0    0 -0.19835777269E+02 -0.11795113620E+01 -0.69451290039E+01  0.12684869816E+03  0.12509000000E+03 0.  0.
<mgrwt>
<rscale>  2 0.44625273E+03</rscale>
<asrwt>0</asrwt>
<pdfrwt beam="1">  1       21 0.48616394E-01 0.44625273E+03</pdfrwt>
<pdfrwt beam="2">  1       21 0.22146302E-01 0.44625273E+03</pdfrwt>
<totfact> 0.71447747E+04</totfact>
</mgrwt>
</event>
<event>
 7    0  0.4712189E-002  0.4463472E+03  0.7546771E-02  0.1028817E+00
         21   -1    0    0  502  501  0.00000000000E+00  0.00000000000E+00  0.32705824815E+03  0.32705824815E+03  0.00000000000E+00 0.  1.
         21   -1    0    0  501  502 -0.00000000000E+00 -0.00000000000E+00 -0.15228617021E+03  0.15228617021E+03  0.00000000000E+00 0.  1.
      99926    2    1    2    0    0  0.00000000000E+00  0.35527136788E-14  0.17477207794E+03  0.47934441837E+03  0.44634716555E+03 0.  0.
      99925    2    3    3    0    0  0.94471266342E+02 -0.16109234779E+02  0.15675319621E+03  0.32073636117E+03  0.26289907045E+03 0.  0.
         25    1    4    4    0    0  0.49658994238E+02  0.23542401205E+02  0.10654527402E+03  0.17326183619E+03  0.12509000000E+03 0.  0.
         25    1    4    4    0    0  0.44812272104E+02 -0.39651635984E+02  0.50207922182E+02  0.14747452498E+03  0.12509000000E+03 0.  0.
         25    1    3    3    0    0 -0.94471266342E+02  0.16109234779E+02  0.18018881735E+02  0.15860805720E+03  0.12509000000E+03 0.  0.
<mgrwt>
<rscale>  2 0.44634717E+03</rscale>
<asrwt>0</asrwt>
<pdfrwt beam="1">  1       21 0.48096801E-01 0.44634717E+03</pdfrwt>
<pdfrwt beam="2">  1       21 0.22395025E-01 0.44634717E+03</pdfrwt>
<totfact> 0.71536740E+04</totfact>
</mgrwt>
</event>
<event>
 7    0  0.4712189E-002  0.4520205E+03  0.7546771E-02  0.1027121E+00
         21   -1    0    0  502  501  0.00000000000E+00  0.00000000000E+00  0.14229295489E+03  0.14229295489E+03  0.00000000000E+00 0. -1.
         21   -1    0    0  501  502 -0.00000000000E+00 -0.00000000000E+00 -0.35898209135E+03  0.35898209135E+03  0.00000000000E+00 0. -1.
      99926    2    1    2    0    0  0.00000000000E+00  0.00000000000E+00 -0.21668913646E+03  0.50127504623E+03  0.45202045321E+03 0.  0.
      99925    2    3    3    0    0  0.45723983608E+02 -0.32369460884E+02 -0.24226916725E+03  0.36184653140E+03  0.26286897536E+03 0.  0.
         25    1    3    3    0    0 -0.45723983608E+02  0.32369460884E+02  0.25580030789E+02  0.13942851484E+03  0.12509000000E+03 0.  0.
         25    1    4    4    0    0  0.24459819949E+02  0.18229446017E+02 -0.14638084592E+03  0.19494987983E+03  0.12509000000E+03 0.  0.
         25    1    4    4    0    0  0.21264163659E+02 -0.50598906901E+02 -0.95888321325E+02  0.16689665156E+03  0.12509000000E+03 0.  0.
<mgrwt>
<rscale>  2 0.45202045E+03</rscale>
<asrwt>0</asrwt>
<pdfrwt beam="1">  1       21 0.20925435E-01 0.45202045E+03</pdfrwt>
<pdfrwt beam="2">  1       21 0.52791484E-01 0.45202045E+03</pdfrwt>
<totfact> 0.66745840E+04</totfact>
</mgrwt>
</event>
<event>
 7    0  0.4712189E-002  0.4444572E+03  0.7546771E-02  0.1029388E+00
         21   -1    0    0  502  501  0.00000000000E+00  0.00000000000E+00  0.65058250350E+02  0.65058250350E+02  0.00000000000E+00 0. -1.
         21   -1    0    0  501  502 -0.00000000000E+00 -0.00000000000E+00 -0.75909744330E+03  0.75909744330E+03  0.00000000000E+00 0. -1.
      99926    2    1    2    0    0 -0.35527136788E-14  0.00000000000E+00 -0.69403919295E+03  0.82415569365E+03  0.44445720382E+03 0.  0.
      99925    2    3    3    0    0  0.20564595014E+02  0.88217225071E+02 -0.35034312605E+03  0.44735378831E+03  0.26302076833E+03 0.  0.
         25    1    4    4    0    0  0.17966494198E+02  0.63412246974E+01 -0.18829304455E+03  0.22685851267E+03  0.12509000000E+03 0.  0.
         25    1    3    3    0    0 -0.20564595014E+02 -0.88217225071E+02 -0.34369606690E+03  0.37680190534E+03  0.12509000000E+03 0.  0.
         25    1    4    4    0    0  0.25981008162E+01  0.81876000373E+02 -0.16205008151E+03  0.22049527564E+03  0.12509000000E+03 0.  0.
<mgrwt>
<rscale>  2 0.44445720E+03</rscale>
<asrwt>0</asrwt>
<pdfrwt beam="1">  1       21 0.95673902E-02 0.44445720E+03</pdfrwt>
<pdfrwt beam="2">  1       21 0.11163197E+00 0.44445720E+03</pdfrwt>
<totfact> 0.50682881E+04</totfact>
</mgrwt>
</event>
<event>
 7    0  0.4712189E-002  0.4488636E+03  0.7546771E-02  0.1028061E+00
         21   -1    0    0  502  501  0.00000000000E+00  0.00000000000E+00  0.12558640023E+04  0.12558640023E+04  0.00000000000E+00 0. -1.
         21   -1    0    0  501  502 -0.00000000000E+00 -0.00000000000E+00 -0.40107547744E+02  0.40107547744E+02  0.00000000000E+00 0. -1.
      99926    2    1    2    0    0  0.00000000000E+00  0.22204460493E-14  0.12157564546E+04  0.12959715500E+04  0.44886356695E+03 0.  0.
      99925    2    3    3    0    0  0.18060801542E+02 -0.51671405015E+00  0.10745805799E+04  0.11064864709E+04  0.26317755978E+03 0.  0.
         25    1    4    4    0    0  0.39547062880E+02 -0.24058853616E+02  0.60146758165E+03  0.61607918200E+03  0.12509000000E+03 0.  0.
         25    1    4    4    0    0 -0.21486261337E+02  0.23542139566E+02  0.47311299825E+03  0.49040728886E+03  0.12509000000E+03 0.  0.
         25    1    3    3    0    0 -0.18060801542E+02  0.51671405015E+00  0.14117587466E+03  0.18948507918E+03  0.12509000000E+03 0.  0.
<mgrwt>
<rscale>  2 0.44886357E+03</rscale>
<asrwt>0</asrwt>
<pdfrwt beam="1">  1       21 0.18468586E+00 0.44886357E+03</pdfrwt>
<pdfrwt beam="2">  1       21 0.58981696E-02 0.44886357E+03</pdfrwt>
<totfact> 0.30669718E+04</totfact>
</mgrwt>
</event>
<event>
 7    0  0.4712189E-002  0.4479817E+03  0.7546771E-02  0.1028326E+00
         21   -1    0    0  502  501  0.00000000000E+00  0.00000000000E+00  0.61368553984E+02  0.61368553984E+02  0.00000000000E+00 0. -1.
         21   -1    0    0  501  502 -0.00000000000E+00 -0.00000000000E+00 -0.81755070779E+03  0.81755070779E+03  0.00000000000E+00 0. -1.
      99926    2    1    2    0    0 -0.35527136788E-14  0.00000000000E+00 -0.75618215380E+03  0.87891926177E+03  0.44798171724E+03 0.  0.
      99925    2    3    3    0    0  0.19871641752E+02  0.40622276662E+02 -0.66800463238E+03  0.71933281219E+03  0.26299135784E+03 0.  0.
         25    1    4    4    0    0 -0.18765011848E+02  0.38725318084E+02 -0.27653528787E+03  0.30654697758E+03  0.12509000000E+03 0.  0.
         25    1    3    3    0    0 -0.19871641752E+02 -0.40622276662E+02 -0.88177521419E+02  0.15958644958E+03  0.12509000000E+03 0.  0.
         25    1    4    4    0    0  0.38636653600E+02  0.18969585775E+01 -0.39146934452E+03  0.41278583460E+03  0.12509000000E+03 0.  0.
<mgrwt>
<rscale>  2 0.44798172E+03</rscale>
<asrwt>0</asrwt>
<pdfrwt beam="1">  1       21 0.90247876E-02 0.44798172E+03</pdfrwt>
<pdfrwt beam="2">  1       21 0.12022804E+00 0.44798172E+03</pdfrwt>
<totfact> 0.46670686E+04</totfact>
</mgrwt>
</event>
<event>
 7    0  0.4712189E-002  0.4591385E+03  0.7546771E-02  0.1025031E+00
         21   -1    0    0  502  501  0.00000000000E+00  0.00000000000E+00  0.26895003634E+03  0.26895003634E+03  0.00000000000E+00 0.  1.
         21   -1    0    0  501  502 -0.00000000000E+00 -0.00000000000E+00 -0.19595479121E+03  0.19595479121E+03  0.00000000000E+00 0.  1.
      99926    2    1    2    0    0 -0.35527136788E-14  0.00000000000E+00  0.72995245128E+02  0.46490482755E+03  0.45913853342E+03 0.  0.
      99925    2    3    3    0    0 -0.30382714069E+02 -0.89527405372E+02 -0.23904348985E+02  0.28058091411E+03  0.26308927351E+03 0.  0.
         25    1    4    4    0    0  0.56565465442E+01 -0.62672418884E+02  0.18080022237E+02  0.14118861113E+03  0.12509000000E+03 0.  0.
         25    1    4    4    0    0 -0.36039260613E+02 -0.26854986487E+02 -0.41984371222E+02  0.13939230299E+03  0.12509000000E+03 0.  0.
         25    1    3    3    0    0  0.30382714069E+02  0.89527405372E+02  0.96899594112E+02  0.18432391344E+03  0.12509000000E+03 0.  0.
<mgrwt>
<rscale>  2 0.45913853E+03</rscale>
<asrwt>0</asrwt>
<pdfrwt beam="1">  1       21 0.39551476E-01 0.45913853E+03</pdfrwt>
<pdfrwt beam="2">  1       21 0.28816881E-01 0.45913853E+03</pdfrwt>
<totfact> 0.65631240E+04</totfact>
</mgrwt>
</event>
<event>
 7    0  0.4712189E-002  0.4511611E+03  0.7546771E-02  0.1027376E+00
         21   -1    0    0  502  501  0.00000000000E+00  0.00000000000E+00  0.57503871605E+03  0.57503871605E+03  0.00000000000E+00 0.  1.
         21   -1    0    0  501  502 -0.00000000000E+00 -0.00000000000E+00 -0.88492458644E+02  0.88492458644E+02  0.00000000000E+00 0.  1.
      99926    2    1    2    0    0  0.00000000000E+00 -0.35527136788E-14  0.48654625741E+03  0.66353117470E+03  0.45116112332E+03 0.  0.
      99925    2    3    3    0    0  0.57471314443E+02 -0.25493157642E+02  0.17522897052E+03  0.32218265151E+03  0.26295173654E+03 0.  0.
         25    1    4    4    0    0  0.57301427907E+02 -0.22425514326E+02  0.12536953790E+03  0.18748703013E+03  0.12509000000E+03 0.  0.
         25    1    3    3    0    0 -0.57471314443E+02  0.25493157642E+02  0.31131728689E+03  0.34134852319E+03  0.12509000000E+03 0.  0.
         25    1    4    4    0    0  0.16988653637E+00 -0.30676433163E+01  0.49859432621E+02  0.13469562138E+03  0.12509000000E+03 0.  0.
<mgrwt>
<rscale>  2 0.45116112E+03</rscale>
<asrwt>0</asrwt>
<pdfrwt beam="1">  1       21 0.84564515E-01 0.45116112E+03</pdfrwt>
<pdfrwt beam="2">  1       21 0.13013597E-01 0.45116112E+03</pdfrwt>
<totfact> 0.56622244E+04</totfact>
</mgrwt>
</event>
<event>
 7    0  0.4712189E-002  0.4561016E+03  0.7546771E-02  0.1025918E+00
         21   -1    0    0  502  501  0.00000000000E+00  0.00000000000E+00  0.25062479334E+03  0.25062479334E+03  0.00000000000E+00 0.  1.
         21   -1    0    0  501  502 -0.00000000000E+00 -0.00000000000E+00 -0.20751009828E+03  0.20751009828E+03  0.00000000000E+00 0.  1.
      99926    2    1    2    0    0  0.00000000000E+00  0.00000000000E+00  0.43114695060E+02  0.45813489163E+03  0.45610163560E+03 0.  0.
      99925    2    3    3    0    0 -0.60999464192E+01  0.55013661345E+02 -0.73013069737E+02  0.27870000612E+03  0.26320918065E+03 0.  0.
         25    1    3    3    0    0  0.60999464192E+01 -0.55013661345E+02  0.11612776480E+03  0.17943488551E+03  0.12509000000E+03 0.  0.
         25    1    4    4    0    0 -0.41988920197E+01  0.61288372372E+02 -0.63297752392E+02  0.15306210779E+03  0.12509000000E+03 0.  0.
         25    1    4    4    0    0 -0.19010543995E+01 -0.62747110276E+01 -0.97153173454E+01  0.12563789833E+03  0.12509000000E+03 0.  0.
<mgrwt>
<rscale>  2 0.45610164E+03</rscale>
<asrwt>0</asrwt>
<pdfrwt beam="1">  1       21 0.36856587E-01 0.45610164E+03</pdfrwt>
<pdfrwt beam="2">  1       21 0.30516191E-01 0.45610164E+03</pdfrwt>
<totfact> 0.67719566E+04</totfact>
</mgrwt>
</event>
<event>
 7    0  0.4712189E-002  0.4518589E+03  0.7546771E-02  0.1027169E+00
         21   -1    0    0  502  501  0.00000000000E+00  0.00000000000E+00  0.45126641558E+03  0.45126641558E+03  0.00000000000E+00 0.  1.
         21   -1    0    0  501  502 -0.00000000000E+00 -0.00000000000E+00 -0.11311303873E+03  0.11311303873E+03  0.00000000000E+00 0.  1.
      99926    2    1    2    0    0 -0.35527136788E-14  0.00000000000E+00  0.33815337684E+03  0.56437945431E+03  0.45185889631E+03 0.  0.
      99925    2    3    3    0    0 -0.31601521778E+02 -0.40502438242E+02  0.33436675591E+03  0.42909844943E+03  0.26397963589E+03 0.  0.
         25    1    3    3    0    0  0.31601521778E+02  0.40502438242E+02  0.37866209342E+01  0.13528100488E+03  0.12509000000E+03 0.  0.
         25    1    4    4    0    0 -0.16785626747E+02 -0.44035472266E+02  0.11603148445E+03  0.17700760879E+03  0.12509000000E+03 0.  0.
         25    1    4    4    0    0 -0.14815895031E+02  0.35330340250E+01  0.21833527146E+03  0.25209084064E+03  0.12509000000E+03 0.  0.
<mgrwt>
<rscale>  2 0.45185890E+03</rscale>
<asrwt>0</asrwt>
<pdfrwt beam="1">  1       21 0.66362707E-01 0.45185890E+03</pdfrwt>
<pdfrwt beam="2">  1       21 0.16634271E-01 0.45185890E+03</pdfrwt>
<totfact> 0.62463553E+04</totfact>
</mgrwt>
</event>
<event>
 7    0  0.4712189E-002  0.4663237E+03  0.7546771E-02  0.1022963E+00
         21   -1    0    0  502  501  0.00000000000E+00  0.00000000000E+00  0.84128536524E+02  0.84128536524E+02  0.00000000000E+00 0.  1.
         21   -1    0    0  501  502 -0.00000000000E+00 -0.00000000000E+00 -0.64620705344E+03  0.64620705344E+03  0.00000000000E+00 0.  1.
      99926    2    1    2    0    0  0.00000000000E+00  0.00000000000E+00 -0.56207851692E+03  0.73033558997E+03  0.46632372317E+03 0.  0.
      99925    2    3    3    0    0  0.94073032134E+02  0.29111170938E+02 -0.23131080241E+03  0.36324978977E+03  0.26219940276E+03 0.  0.
         25    1    4    4    0    0  0.62184621936E+02  0.71394914433E+01 -0.16550901584E+03  0.21669942770E+03  0.12509000000E+03 0.  0.
         25    1    3    3    0    0 -0.94073032134E+02 -0.29111170938E+02 -0.33076771451E+03  0.36708580020E+03  0.12509000000E+03 0.  0.
         25    1    4    4    0    0  0.31888410198E+02  0.21971679494E+02 -0.65801786574E+02  0.14655036206E+03  0.12509000000E+03 0.  0.
<mgrwt>
<rscale>  2 0.46632372E+03</rscale>
<asrwt>0</asrwt>
<pdfrwt beam="1">  1       21 0.12371844E-01 0.46632372E+03</pdfrwt>
<pdfrwt beam="2">  1       21 0.95030449E-01 0.46632372E+03</pdfrwt>
<totfact> 0.46963031E+04</totfact>
</mgrwt>
</event>
<event>
 7    0  0.4712189E-002  0.4627275E+03  0.7546771E-02  0.1023993E+00
         21   -1    0    0  502  501  0.00000000000E+00  0.00000000000E+00  0.10006976148E+03  0.10006976148E+03  0.00000000000E+00 0. -1.
         21   -1    0    0  501  502 -0.00000000000E+00 -0.00000000000E+00 -0.53491871943E+03  0.53491871943E+03  0.00000000000E+00 0. -1.
      99926    2    1    2    0    0  0.00000000000E+00  0.00000000000E+00 -0.43484895795E+03  0.63498848091E+03  0.46272751664E+03 0.  0.
      99925    2    3    3    0    0 -0.33090112679E+02  0.30802180780E+02 -0.42442432762E+03  0.50157217413E+03  0.26342912916E+03 0.  0.
         25    1    4    4    0    0 -0.24069720508E+02  0.82373713491E+01 -0.13747489517E+03  0.18760080126E+03  0.12509000000E+03 0.  0.
         25    1    3    3    0    0  0.33090112679E+02 -0.30802180780E+02 -0.10424630339E+02  0.13341630678E+03  0.12509000000E+03 0.  0.
         25    1    4    4    0    0 -0.90203921717E+01  0.22564809431E+02 -0.28694943245E+03  0.31397137287E+03  0.12509000000E+03 0.  0.
<mgrwt>
<rscale>  2 0.46272752E+03</rscale>
<asrwt>0</asrwt>
<pdfrwt beam="1">  1       21 0.14716141E-01 0.46272752E+03</pdfrwt>
<pdfrwt beam="2">  1       21 0.78664517E-01 0.46272752E+03</pdfrwt>
<totfact> 0.53251508E+04</totfact>
</mgrwt>
</event>
<event>
 7    0  0.4712189E-002  0.4502050E+03  0.7546771E-02  0.1027661E+00
         21   -1    0    0  502  501  0.00000000000E+00  0.00000000000E+00  0.72625161186E+03  0.72625161186E+03  0.00000000000E+00 0.  1.
         21   -1    0    0  501  502 -0.00000000000E+00 -0.00000000000E+00 -0.69770765801E+02  0.69770765801E+02  0.00000000000E+00 0.  1.
      99926    2    1    2    0    0  0.00000000000E+00 -0.71054273576E-14  0.65648084605E+03  0.79602237766E+03  0.45020498053E+03 0.  0.
      99925    2    3    3    0    0 -0.91268600056E+02 -0.53073827723E+02  0.36896007224E+03  0.46517121471E+03  0.26288007826E+03 0.  0.
         25    1    3    3    0    0  0.91268600056E+02  0.53073827723E+02  0.28752077382E+03  0.33085116294E+03  0.12509000000E+03 0.  0.
         25    1    4    4    0    0 -0.65414227579E+02  0.15567816830E+01  0.22074622308E+03  0.26202642585E+03  0.12509000000E+03 0.  0.
         25    1    4    4    0    0 -0.25854372477E+02 -0.54630609406E+02  0.14821384916E+03  0.20314478887E+03  0.12509000000E+03 0.  0.
<mgrwt>
<rscale>  2 0.45020498E+03</rscale>
<asrwt>0</asrwt>
<pdfrwt beam="1">  1       21 0.10680170E+00 0.45020498E+03</pdfrwt>
<pdfrwt beam="2">  1       21 0.10260407E-01 0.45020498E+03</pdfrwt>
<totfact> 0.49805804E+04</totfact>
</mgrwt>
</event>
<event>
 7    0  0.4712189E-002  0.4458689E+03  0.7546771E-02  0.1028961E+00
         21   -1    0    0  502  501  0.00000000000E+00  0.00000000000E+00  0.49716973068E+03  0.49716973068E+03  0.00000000000E+00 0.  1.
         21   -1    0    0  501  502 -0.00000000000E+00 -0.00000000000E+00 -0.99965409931E+02  0.99965409931E+02  0.00000000000E+00 0.  1.
      99926    2    1    2    0    0 -0.71054273576E-14 -0.71054273576E-14  0.39720432075E+03  0.59713514061E+03  0.44586893111E+03 0.  0.
      99925    2    3    3    0    0  0.34034600617E+02  0.37265619404E+02  0.37432876476E+03  0.46032183866E+03  0.26311041521E+03 0.  0.
         25    1    3    3    0    0 -0.34034600617E+02 -0.37265619404E+02  0.22875555987E+02  0.13681330195E+03  0.12509000000E+03 0.  0.
         25    1    4    4    0    0 -0.28615283495E+01  0.26441946681E+02  0.24480273475E+03  0.27619422863E+03  0.12509000000E+03 0.  0.
         25    1    4    4    0    0  0.36896128967E+02  0.10823672723E+02  0.12952603001E+03  0.18412761003E+03  0.12509000000E+03 0.  0.
<mgrwt>
<rscale>  2 0.44586893E+03</rscale>
<asrwt>0</asrwt>
<pdfrwt beam="1">  1       21 0.73113195E-01 0.44586893E+03</pdfrwt>
<pdfrwt beam="2">  1       21 0.14700796E-01 0.44586893E+03</pdfrwt>
<totfact> 0.63299896E+04</totfact>
</mgrwt>
</event>
<event>
 7    0  0.4712189E-002  0.4548118E+03  0.7546771E-02  0.1026297E+00
         21   -1    0    0  502  501  0.00000000000E+00  0.00000000000E+00  0.28540431313E+02  0.28540431313E+02  0.00000000000E+00 0. -1.
         21   -1    0    0  501  502 -0.00000000000E+00 -0.00000000000E+00 -0.18119363560E+04  0.18119363560E+04  0.00000000000E+00 0. -1.
      99926    2    1    2    0    0 -0.14210854715E-13  0.35527136788E-14 -0.17833959247E+04  0.18404767873E+04  0.45481180773E+03 0.  0.
      99925    2    3    3    0    0  0.10057466759E+03 -0.30110654902E+02 -0.95309014606E+03  0.99426339258E+03  0.26297709409E+03 0.  0.
         25    1    4    4    0    0  0.61635062691E+02 -0.53024434090E+02 -0.46269274679E+03  0.48615075604E+03  0.12509000000E+03 0.  0.
         25    1    4    4    0    0  0.38939604899E+02  0.22913779188E+02 -0.49039739926E+03  0.50811263654E+03  0.12509000000E+03 0.  0.
         25    1    3    3    0    0 -0.10057466759E+03  0.30110654902E+02 -0.83030577864E+03  0.84621339474E+03  0.12509000000E+03 0.  0.
<mgrwt>
<rscale>  2 0.45481181E+03</rscale>
<asrwt>0</asrwt>
<pdfrwt beam="1">  1       21 0.41971236E-02 0.45481181E+03</pdfrwt>
<pdfrwt beam="2">  1       21 0.26646114E+00 0.45481181E+03</pdfrwt>
<totfact> 0.16518282E+04</totfact>
</mgrwt>
</event>
<event>
 7    0  0.4712189E-002  0.4534427E+03  0.7546771E-02  0.1026700E+00
         21   -1    0    0  502  501  0.00000000000E+00  0.00000000000E+00  0.10607450031E+03  0.10607450031E+03  0.00000000000E+00 0. -1.
         21   -1    0    0  501  502 -0.00000000000E+00 -0.00000000000E+00 -0.48458933610E+03  0.48458933610E+03  0.00000000000E+00 0. -1.
      99926    2    1    2    0    0  0.00000000000E+00  0.00000000000E+00 -0.37851483578E+03  0.59066383641E+03  0.45344270502E+03 0.  0.
      99925    2    3    3    0    0 -0.19242828100E+02 -0.49904479241E+02 -0.36657200377E+03  0.45409560138E+03  0.26261576070E+03 0.  0.
         25    1    4    4    0    0 -0.45115984265E+01 -0.28098113147E+02 -0.25046991430E+03  0.28141169939E+03  0.12509000000E+03 0.  0.
         25    1    4    4    0    0 -0.14731229673E+02 -0.21806366093E+02 -0.11610208946E+03  0.17268390199E+03  0.12509000000E+03 0.  0.
         25    1    3    3    0    0  0.19242828100E+02  0.49904479241E+02 -0.11942832018E+02  0.13656823503E+03  0.12509000000E+03 0.  0.
<mgrwt>
<rscale>  2 0.45344271E+03</rscale>
<asrwt>0</asrwt>
<pdfrwt beam="1">  1       21 0.15599192E-01 0.45344271E+03</pdfrwt>
<pdfrwt beam="2">  1       21 0.71263135E-01 0.45344271E+03</pdfrwt>
<totfact> 0.59991605E+04</totfact>
</mgrwt>
</event>
<event>
 7    0  0.4712189E-002  0.4530169E+03  0.7546771E-02  0.1026826E+00
         21   -1    0    0  502  501  0.00000000000E+00  0.00000000000E+00  0.20403215748E+03  0.20403215748E+03  0.00000000000E+00 0. -1.
         21   -1    0    0  501  502 -0.00000000000E+00 -0.00000000000E+00 -0.25146077661E+03  0.25146077661E+03  0.00000000000E+00 0. -1.
      99926    2    1    2    0    0 -0.17763568394E-14  0.14210854715E-13 -0.47428619122E+02  0.45549293409E+03  0.45301693025E+03 0.  0.
      99925    2    3    3    0    0  0.90314965837E+01 -0.90726219823E+02 -0.94086463225E+02  0.29382266035E+03  0.26299558605E+03 0.  0.
         25    1    4    4    0    0  0.12024041416E+02 -0.45442043113E+02 -0.89196968354E+02  0.16066475693E+03  0.12509000000E+03 0.  0.
         25    1    3    3    0    0 -0.90314965837E+01  0.90726219823E+02  0.46657844103E+02  0.16167027374E+03  0.12509000000E+03 0.  0.
         25    1    4    4    0    0 -0.29925448326E+01 -0.45284176710E+02 -0.48894948706E+01  0.13315790343E+03  0.12509000000E+03 0.  0.
<mgrwt>
<rscale>  2 0.45301693E+03</rscale>
<asrwt>0</asrwt>
<pdfrwt beam="1">  1       21 0.30004729E-01 0.45301693E+03</pdfrwt>
<pdfrwt beam="2">  1       21 0.36979526E-01 0.45301693E+03</pdfrwt>
<totfact> 0.69604445E+04</totfact>
</mgrwt>
</event>
<event>
 7    0  0.4712189E-002  0.4577224E+03  0.7546771E-02  0.1025444E+00
         21   -1    0    0  502  501  0.00000000000E+00  0.00000000000E+00  0.10172709351E+04  0.10172709351E+04  0.00000000000E+00 0. -1.
         21   -1    0    0  501  502 -0.00000000000E+00 -0.00000000000E+00 -0.51488201136E+02  0.51488201136E+02  0.00000000000E+00 0. -1.
      99926    2    1    2    0    0 -0.14210854715E-13  0.00000000000E+00  0.96578273393E+03  0.10687591362E+04  0.45772240721E+03 0.  0.
      99925    2    3    3    0    0  0.10306979045E+03  0.52316594186E+02  0.59373434196E+03  0.65957956462E+03  0.26299111300E+03 0.  0.
         25    1    4    4    0    0  0.88056744509E+02  0.68599677236E+01  0.32910436662E+03  0.36298518102E+03  0.12509000000E+03 0.  0.
         25    1    4    4    0    0  0.15013045938E+02  0.45456626463E+02  0.26462997533E+03  0.29659438360E+03  0.12509000000E+03 0.  0.
         25    1    3    3    0    0 -0.10306979045E+03 -0.52316594186E+02  0.37204839198E+03  0.40917957159E+03  0.12509000000E+03 0.  0.
<mgrwt>
<rscale>  2 0.45772241E+03</rscale>
<asrwt>0</asrwt>
<pdfrwt beam="1">  1       21 0.14959866E+00 0.45772241E+03</pdfrwt>
<pdfrwt beam="2">  1       21 0.75717949E-02 0.45772241E+03</pdfrwt>
<totfact> 0.35829246E+04</totfact>
</mgrwt>
</event>
<event>
 7    0  0.4712189E-002  0.4553018E+03  0.7546771E-02  0.1026153E+00
         21   -1    0    0  502  501  0.00000000000E+00  0.00000000000E+00  0.20262648440E+04  0.20262648440E+04  0.00000000000E+00 0.  1.
         21   -1    0    0  501  502 -0.00000000000E+00 -0.00000000000E+00 -0.25576585606E+02  0.25576585606E+02  0.00000000000E+00 0.  1.
      99926    2    1    2    0    0  0.71054273576E-14  0.00000000000E+00  0.20006882584E+04  0.20518414297E+04  0.45530181745E+03 0.  0.
      99925    2    3    3    0    0  0.54814621516E+02  0.23204221399E+02  0.82403310584E+03  0.86705962068E+03  0.26309456033E+03 0.  0.
         25    1    3    3    0    0 -0.54814621516E+02 -0.23204221399E+02  0.11766551526E+04  0.11847818090E+04  0.12509000000E+03 0.  0.
         25    1    4    4    0    0  0.17243474466E+02  0.34808280509E+02  0.30938041835E+03  0.33596533328E+03  0.12509000000E+03 0.  0.
         25    1    4    4    0    0  0.37571147050E+02 -0.11604059110E+02  0.51465268749E+03  0.53109428741E+03  0.12509000000E+03 0.  0.
<mgrwt>
<rscale>  2 0.45530182E+03</rscale>
<asrwt>0</asrwt>
<pdfrwt beam="1">  1       21 0.29798001E+00 0.45530182E+03</pdfrwt>
<pdfrwt beam="2">  1       21 0.37612640E-02 0.45530182E+03</pdfrwt>
<totfact> 0.12851627E+04</totfact>
</mgrwt>
</event>
<event>
 7    0  0.4712189E-002  0.4152133E+03  0.7546771E-02  0.1038636E+00
         21   -1    0    0  502  501  0.00000000000E+00  0.00000000000E+00  0.16381640474E+03  0.16381640474E+03  0.00000000000E+00 0. -1.
         21   -1    0    0  501  502 -0.00000000000E+00 -0.00000000000E+00 -0.26310261367E+03  0.26310261367E+03  0.00000000000E+00 0. -1.
      99926    2    1    2    0    0  0.00000000000E+00  0.00000000000E+00 -0.99286208929E+02  0.42691901841E+03  0.41521331505E+03 0.  0.
      99925    2    3    3    0    0  0.42377867930E+02  0.13235756764E+02 -0.99047996003E+01  0.26689522836E+03  0.26299028294E+03 0.  0.
         25    1    4    4    0    0  0.47312604852E+01  0.42146042203E+02 -0.15467685801E+02  0.13298658242E+03  0.12509000000E+03 0.  0.
         25    1    3    3    0    0 -0.42377867930E+02 -0.13235756764E+02 -0.89381409329E+02  0.16002379005E+03  0.12509000000E+03 0.  0.
         25    1    4    4    0    0  0.37646607445E+02 -0.28910285440E+02  0.55628862006E+01  0.13390864595E+03  0.12509000000E+03 0.  0.
<mgrwt>
<rscale>  2 0.41521332E+03</rscale>
<asrwt>0</asrwt>
<pdfrwt beam="1">  1       21 0.24090648E-01 0.41521332E+03</pdfrwt>
<pdfrwt beam="2">  1       21 0.38691560E-01 0.41521332E+03</pdfrwt>
<totfact> 0.98331051E+04</totfact>
</mgrwt>
</event>
<event>
 7    0  0.4712189E-002  0.4592587E+03  0.7546771E-02  0.1024996E+00
         21   -1    0    0  502  501  0.00000000000E+00  0.00000000000E+00  0.34921733800E+03  0.34921733800E+03  0.00000000000E+00 0. -1.
         21   -1    0    0  501  502 -0.00000000000E+00 -0.00000000000E+00 -0.15099375384E+03  0.15099375384E+03  0.00000000000E+00 0. -1.
      99926    2    1    2    0    0  0.00000000000E+00  0.00000000000E+00  0.19822358416E+03  0.50021109184E+03  0.45925869299E+03 0.  0.
      99925    2    3    3    0    0 -0.88645621721E+02  0.76509255285E+02  0.11991248318E+03  0.31181828669E+03  0.26294472404E+03 0.  0.
         25    1    4    4    0    0 -0.32128997692E+02  0.15292642838E+02  0.91097832693E+02  0.15878432114E+03  0.12509000000E+03 0.  0.
         25    1    4    4    0    0 -0.56516624029E+02  0.61216612447E+02  0.28814650490E+02  0.15303396556E+03  0.12509000000E+03 0.  0.
         25    1    3    3    0    0  0.88645621721E+02 -0.76509255285E+02  0.78311100981E+02  0.18839280515E+03  0.12509000000E+03 0.  0.
<mgrwt>
<rscale>  2 0.45925869E+03</rscale>
<asrwt>0</asrwt>
<pdfrwt beam="1">  1       21 0.51355491E-01 0.45925869E+03</pdfrwt>
<pdfrwt beam="2">  1       21 0.22204964E-01 0.45925869E+03</pdfrwt>
<totfact> 0.63095643E+04</totfact>
</mgrwt>
</event>
<event>
 7    0  0.4712189E-002  0.4530686E+03  0.7546771E-02  0.1026811E+00
         21   -1    0    0  502  501  0.00000000000E+00  0.00000000000E+00  0.28096748515E+03  0.28096748515E+03  0.00000000000E+00 0. -1.
         21   -1    0    0  501  502 -0.00000000000E+00 -0.00000000000E+00 -0.18264671780E+03  0.18264671780E+03  0.00000000000E+00 0. -1.
      99926    2    1    2    0    0  0.00000000000E+00  0.00000000000E+00  0.98320767354E+02  0.46361420295E+03  0.45306859953E+03 0.  0.
      99925    2    3    3    0    0  0.61829064907E+02 -0.45169293741E+02 -0.20826402302E+02  0.27465215781E+03  0.26293910016E+03 0.  0.
         25    1    4    4    0    0  0.36263920620E+02  0.72327739688E+01  0.17017497008E+02  0.13154652509E+03  0.12509000000E+03 0.  0.
         25    1    4    4    0    0  0.25565144287E+02 -0.52402067710E+02 -0.37843899310E+02  0.14310563273E+03  0.12509000000E+03 0.  0.
         25    1    3    3    0    0 -0.61829064907E+02  0.45169293741E+02  0.11914716966E+03  0.18896204513E+03  0.12509000000E+03 0.  0.
<mgrwt>
<rscale>  2 0.45306860E+03</rscale>
<asrwt>0</asrwt>
<pdfrwt beam="1">  1       21 0.41318748E-01 0.45306860E+03</pdfrwt>
<pdfrwt beam="2">  1       21 0.26859811E-01 0.45306860E+03</pdfrwt>
<totfact> 0.68964663E+04</totfact>
</mgrwt>
</event>
<event>
 7    0  0.4712189E-002  0.4498233E+03  0.7546771E-02  0.1027775E+00
         21   -1    0    0  502  501  0.00000000000E+00  0.00000000000E+00  0.16496000327E+03  0.16496000327E+03  0.00000000000E+00 0.  1.
         21   -1    0    0  501  502 -0.00000000000E+00 -0.00000000000E+00 -0.30665157953E+03  0.30665157953E+03  0.00000000000E+00 0.  1.
      99926    2    1    2    0    0 -0.14210854715E-13 -0.71054273576E-14 -0.14169157627E+03  0.47161158280E+03  0.44982327891E+03 0.  0.
      99925    2    3    3    0    0  0.97880172923E+02  0.46654724581E+02 -0.91463651526E+02  0.29861579065E+03  0.26277100163E+03 0.  0.
         25    1    4    4    0    0  0.22659074230E+02 -0.94381269929E+01 -0.49125214545E+02  0.13661371340E+03  0.12509000000E+03 0.  0.
         25    1    4    4    0    0  0.75221098693E+02  0.56092851574E+02 -0.42338436981E+02  0.16200207725E+03  0.12509000000E+03 0.  0.
         25    1    3    3    0    0 -0.97880172923E+02 -0.46654724581E+02 -0.50227924740E+02  0.17299579215E+03  0.12509000000E+03 0.  0.
<mgrwt>
<rscale>  2 0.44982328E+03</rscale>
<asrwt>0</asrwt>
<pdfrwt beam="1">  1       21 0.24258824E-01 0.44982328E+03</pdfrwt>
<pdfrwt beam="2">  1       21 0.45095820E-01 0.44982328E+03</pdfrwt>
<totfact> 0.70153969E+04</totfact>
</mgrwt>
</event>
<event>
 6    0  0.4712189E-002  0.4522804E+03  0.7546771E-02  0.1027044E+00
         21   -1    0    0  502  501  0.00000000000E+00  0.00000000000E+00  0.46357517275E+02  0.46357517275E+02  0.00000000000E+00 0.  1.
         21   -1    0    0  501  502 -0.00000000000E+00 -0.00000000000E+00 -0.11031520091E+04  0.11031520091E+04  0.00000000000E+00 0.  1.
      99926    2    1    2    0    0  0.00000000000E+00  0.00000000000E+00 -0.10567944919E+04  0.11495095264E+04  0.45228039233E+03 0.  0.
         25    1    3    3    0    0 -0.11152676292E+02  0.16554570454E+02 -0.21464994612E+03  0.24923993152E+03  0.12509000000E+03 0.  0.
         25    1    3    3    0    0 -0.60577393303E+02 -0.60595441950E+02 -0.28185915822E+03  0.32005237281E+03  0.12509000000E+03 0.  0.
         25    1    3    3    0    0  0.71730069594E+02  0.44040871496E+02 -0.56028538752E+03  0.58021722210E+03  0.12509000000E+03 0.  0.
<mgrwt>
<rscale>  2 0.45228039E+03</rscale>
<asrwt>0</asrwt>
<pdfrwt beam="1">  1       21 0.68172818E-02 0.45228039E+03</pdfrwt>
<pdfrwt beam="2">  1       21 0.16222824E+00 0.45228039E+03</pdfrwt>
<totfact> 0.34524740E+04</totfact>
</mgrwt>
</event>
<event>
 7    0  0.4712189E-002  0.4758370E+03  0.7546771E-02  0.1020286E+00
         21   -1    0    0  502  501  0.00000000000E+00  0.00000000000E+00  0.19467802988E+03  0.19467802988E+03  0.00000000000E+00 0. -1.
         21   -1    0    0  501  502 -0.00000000000E+00 -0.00000000000E+00 -0.29076319386E+03  0.29076319386E+03  0.00000000000E+00 0. -1.
      99926    2    1    2    0    0  0.00000000000E+00  0.00000000000E+00 -0.96085163973E+02  0.48544122374E+03  0.47583697100E+03 0.  0.
      99925    2    3    3    0    0  0.23255867975E+02 -0.95532227115E+02  0.29060631000E+02  0.28301538568E+03  0.26379148289E+03 0.  0.
         25    1    4    4    0    0 -0.98241109705E+01 -0.10453993740E+02  0.23338246889E+02  0.12805460167E+03  0.12509000000E+03 0.  0.
         25    1    3    3    0    0 -0.23255867975E+02  0.95532227115E+02 -0.12514579497E+03  0.20242583806E+03  0.12509000000E+03 0.  0.
         25    1    4    4    0    0  0.33079978945E+02 -0.85078233375E+02  0.57223841116E+01  0.15496078401E+03  0.12509000000E+03 0.  0.
<mgrwt>
<rscale>  2 0.47583697E+03</rscale>
<asrwt>0</asrwt>
<pdfrwt beam="1">  1       21 0.28629122E-01 0.47583697E+03</pdfrwt>
<pdfrwt beam="2">  1       21 0.42759293E-01 0.47583697E+03</pdfrwt>
<totfact> 0.56384935E+04</totfact>
</mgrwt>
</event>
<event>
 7    0  0.4712189E-002  0.4526860E+03  0.7546771E-02  0.1026924E+00
         21   -1    0    0  502  501  0.00000000000E+00  0.00000000000E+00  0.29703330856E+02  0.29703330856E+02  0.00000000000E+00 0.  1.
         21   -1    0    0  501  502 -0.00000000000E+00 -0.00000000000E+00 -0.17247614148E+04  0.17247614148E+04  0.00000000000E+00 0.  1.
      99926    2    1    2    0    0  0.00000000000E+00 -0.71054273576E-14 -0.16950580839E+04  0.17544647456E+04  0.45268602342E+03 0.  0.
      99925    2    3    3    0    0 -0.80965287258E+02 -0.54589826906E+02 -0.86447534616E+03  0.90885808808E+03  0.26300185017E+03 0.  0.
         25    1    3    3    0    0  0.80965287258E+02  0.54589826906E+02 -0.83058273774E+03  0.84560665753E+03  0.12509000000E+03 0.  0.
         25    1    4    4    0    0 -0.20064549224E+02  0.91206583900E+01 -0.36505625190E+03  0.38652211799E+03  0.12509000000E+03 0.  0.
         25    1    4    4    0    0 -0.60900738034E+02 -0.63710485296E+02 -0.49941909426E+03  0.52233597009E+03  0.12509000000E+03 0.  0.
<mgrwt>
<rscale>  2 0.45268602E+03</rscale>
<asrwt>0</asrwt>
<pdfrwt beam="1">  1       21 0.43681386E-02 0.45268602E+03</pdfrwt>
<pdfrwt beam="2">  1       21 0.25364129E+00 0.45268602E+03</pdfrwt>
<totfact> 0.18480836E+04</totfact>
</mgrwt>
</event>
<event>
 7    0  0.4712189E-002  0.4423424E+03  0.7546771E-02  0.1030031E+00
         21   -1    0    0  502  501  0.00000000000E+00  0.00000000000E+00  0.10024432356E+04  0.10024432356E+04  0.00000000000E+00 0.  1.
         21   -1    0    0  501  502 -0.00000000000E+00 -0.00000000000E+00 -0.48797486747E+02  0.48797486747E+02  0.00000000000E+00 0.  1.
      99926    2    1    2    0    0 -0.71054273576E-14  0.00000000000E+00  0.95364574886E+03  0.10512407223E+04  0.44234244880E+03 0.  0.
      99925    2    3    3    0    0  0.56484033713E+02 -0.79637068416E+02  0.66704561519E+03  0.72364393749E+03  0.26301746481E+03 0.  0.
         25    1    3    3    0    0 -0.56484033713E+02  0.79637068416E+02  0.28660013367E+03  0.32759678486E+03  0.12509000000E+03 0.  0.
         25    1    4    4    0    0  0.37446526748E+02 -0.79835462179E+02  0.33490891139E+03  0.36822198524E+03  0.12509000000E+03 0.  0.
         25    1    4    4    0    0  0.19037506965E+02  0.19839376215E+00  0.33213670380E+03  0.35542195225E+03  0.12509000000E+03 0.  0.
<mgrwt>
<rscale>  2 0.44234245E+03</rscale>
<asrwt>0</asrwt>
<pdfrwt beam="1">  1       21 0.14741811E+00 0.44234245E+03</pdfrwt>
<pdfrwt beam="2">  1       21 0.71761016E-02 0.44234245E+03</pdfrwt>
<totfact> 0.41149316E+04</totfact>
</mgrwt>
</event>
<event>
 7    0  0.4712189E-002  0.4545155E+03  0.7546771E-02  0.1026384E+00
         21   -1    0    0  502  501  0.00000000000E+00  0.00000000000E+00  0.22867753660E+03  0.22867753660E+03  0.00000000000E+00 0. -1.
         21   -1    0    0  501  502 -0.00000000000E+00 -0.00000000000E+00 -0.22584675512E+03  0.22584675512E+03  0.00000000000E+00 0. -1.
      99926    2    1    2    0    0  0.00000000000E+00  0.00000000000E+00  0.28307814792E+01  0.45452429173E+03  0.45451547658E+03 0.  0.
      99925    2    3    3    0    0 -0.35567095430E+02 -0.10113992396E+03 -0.33172695291E+02  0.28588840903E+03  0.26294001637E+03 0.  0.
         25    1    3    3    0    0  0.35567095430E+02  0.10113992396E+03  0.36003476770E+02  0.16863588270E+03  0.12509000000E+03 0.  0.
         25    1    4    4    0    0 -0.33873805366E+02 -0.54489562217E+02 -0.54307644614E+02  0.15070957317E+03  0.12509000000E+03 0.  0.
         25    1    4    4    0    0 -0.16932900646E+01 -0.46650361739E+02  0.21134949324E+02  0.13517883586E+03  0.12509000000E+03 0.  0.
<mgrwt>
<rscale>  2 0.45451548E+03</rscale>
<asrwt>0</asrwt>
<pdfrwt beam="1">  1       21 0.33629050E-01 0.45451548E+03</pdfrwt>
<pdfrwt beam="2">  1       21 0.33212758E-01 0.45451548E+03</pdfrwt>
<totfact> 0.68846429E+04</totfact>
</mgrwt>
</event>
<event>
 7    0  0.4712189E-002  0.4410989E+03  0.7546771E-02  0.1030410E+00
         21   -1    0    0  502  501  0.00000000000E+00  0.00000000000E+00  0.18818747459E+03  0.18818747459E+03  0.00000000000E+00 0. -1.
         21   -1    0    0  501  502 -0.00000000000E+00 -0.00000000000E+00 -0.25847656250E+03  0.25847656250E+03  0.00000000000E+00 0. -1.
      99926    2    1    2    0    0  0.00000000000E+00  0.00000000000E+00 -0.70289087917E+02  0.44666403709E+03  0.44109886211E+03 0.  0.
      99925    2    3    3    0    0 -0.28548697943E+02  0.94159290909E+02 -0.59307422884E+02  0.28713627999E+03  0.26315180535E+03 0.  0.
         25    1    4    4    0    0 -0.43833589694E+02  0.77774973375E+02 -0.37612221104E+02  0.15821667847E+03  0.12509000000E+03 0.  0.
         25    1    3    3    0    0  0.28548697943E+02 -0.94159290909E+02 -0.10981665033E+02  0.15952775710E+03  0.12509000000E+03 0.  0.
         25    1    4    4    0    0  0.15284891751E+02  0.16384317533E+02 -0.21695201780E+02  0.12891960152E+03  0.12509000000E+03 0.  0.
<mgrwt>
<rscale>  2 0.44109886E+03</rscale>
<asrwt>0</asrwt>
<pdfrwt beam="1">  1       21 0.27674629E-01 0.44109886E+03</pdfrwt>
<pdfrwt beam="2">  1       21 0.38011259E-01 0.44109886E+03</pdfrwt>
<totfact> 0.77393713E+04</totfact>
</mgrwt>
</event>
<event>
 7    0  0.4712189E-002  0.4519833E+03  0.7546771E-02  0.1027132E+00
         21   -1    0    0  502  501  0.00000000000E+00  0.00000000000E+00  0.40195507873E+02  0.40195507873E+02  0.00000000000E+00 0.  1.
         21   -1    0    0  501  502 -0.00000000000E+00 -0.00000000000E+00 -0.12705952658E+04  0.12705952658E+04  0.00000000000E+00 0.  1.
      99926    2    1    2    0    0  0.00000000000E+00  0.00000000000E+00 -0.12303997579E+04  0.13107907737E+04  0.45198328292E+03 0.  0.
      99925    2    3    3    0    0 -0.48959286097E+02  0.14885659429E+01 -0.10630909827E+04  0.10962238566E+04  0.26295451852E+03 0.  0.
         25    1    4    4    0    0 -0.15956699166E+02  0.17381103633E+02 -0.37842847233E+03  0.39926474398E+03  0.12509000000E+03 0.  0.
         25    1    4    4    0    0 -0.33002586930E+02 -0.15892537690E+02 -0.68466251037E+03  0.69695911265E+03  0.12509000000E+03 0.  0.
         25    1    3    3    0    0  0.48959286097E+02 -0.14885659429E+01 -0.16730877522E+03  0.21456691705E+03  0.12509000000E+03 0.  0.
<mgrwt>
<rscale>  2 0.45198328E+03</rscale>
<asrwt>0</asrwt>
<pdfrwt beam="1">  1       21 0.59111044E-02 0.45198328E+03</pdfrwt>
<pdfrwt beam="2">  1       21 0.18685223E+00 0.45198328E+03</pdfrwt>
<totfact> 0.29488647E+04</totfact>
</mgrwt>
</event>
<event>
 7    0  0.4712189E-002  0.4558830E+03  0.7546771E-02  0.1025982E+00
         21   -1    0    0  502  501  0.00000000000E+00  0.00000000000E+00  0.42246192430E+03  0.42246192430E+03  0.00000000000E+00 0. -1.
         21   -1    0    0  501  502 -0.00000000000E+00 -0.00000000000E+00 -0.12298703104E+03  0.12298703104E+03  0.00000000000E+00 0. -1.
      99926    2    1    2    0    0  0.00000000000E+00  0.00000000000E+00  0.29947489326E+03  0.54544895535E+03  0.45588304552E+03 0.  0.
      99925    2    3    3    0    0 -0.85798576108E+02  0.44151895576E+02  0.11553541867E+03  0.30297828917E+03  0.26293844374E+03 0.  0.
         25    1    4    4    0    0 -0.67906862199E+02  0.26546441031E+02  0.96458229789E+02  0.17397630200E+03  0.12509000000E+03 0.  0.
         25    1    4    4    0    0 -0.17891713909E+02  0.17605454545E+02  0.19077188879E+02  0.12900198716E+03  0.12509000000E+03 0.  0.
         25    1    3    3    0    0  0.85798576108E+02 -0.44151895576E+02  0.18393947459E+03  0.24247066618E+03  0.12509000000E+03 0.  0.
<mgrwt>
<rscale>  2 0.45588305E+03</rscale>
<asrwt>0</asrwt>
<pdfrwt beam="1">  1       21 0.62126753E-01 0.45588305E+03</pdfrwt>
<pdfrwt beam="2">  1       21 0.18086328E-01 0.45588305E+03</pdfrwt>
<totfact> 0.61735750E+04</totfact>
</mgrwt>
</event>
<event>
 7    0  0.4712189E-002  0.4544212E+03  0.7546771E-02  0.1026412E+00
         21   -1    0    0  502  501  0.00000000000E+00  0.00000000000E+00  0.19675615135E+03  0.19675615135E+03  0.00000000000E+00 0. -1.
         21   -1    0    0  501  502 -0.00000000000E+00 -0.00000000000E+00 -0.26237891594E+03  0.26237891594E+03  0.00000000000E+00 0. -1.
      99926    2    1    2    0    0 -0.71054273576E-14  0.00000000000E+00 -0.65622764586E+02  0.45913506729E+03  0.45442123936E+03 0.  0.
      99925    2    3    3    0    0  0.62383186874E+02 -0.48037852087E+02 -0.12261214079E+03  0.30072233315E+03  0.26306061535E+03 0.  0.
         25    1    4    4    0    0 -0.13445006014E+01 -0.45370438683E+02 -0.46189108620E+02  0.14085888770E+03  0.12509000000E+03 0.  0.
         25    1    4    4    0    0  0.63727687475E+02 -0.26674134046E+01 -0.76423032172E+02  0.15986344545E+03  0.12509000000E+03 0.  0.
         25    1    3    3    0    0 -0.62383186874E+02  0.48037852087E+02  0.56989376207E+02  0.15841273414E+03  0.12509000000E+03 0.  0.
<mgrwt>
<rscale>  2 0.45442124E+03</rscale>
<asrwt>0</asrwt>
<pdfrwt beam="1">  1       21 0.28934728E-01 0.45442124E+03</pdfrwt>
<pdfrwt beam="2">  1       21 0.38585134E-01 0.45442124E+03</pdfrwt>
<totfact> 0.68559542E+04</totfact>
</mgrwt>
</event>
<event>
 7    0  0.4712189E-002  0.4821803E+03  0.7546771E-02  0.1018538E+00
         21   -1    0    0  502  501  0.00000000000E+00  0.00000000000E+00  0.11611392796E+03  0.11611392796E+03  0.00000000000E+00 0.  1.
         21   -1    0    0  501  502 -0.00000000000E+00 -0.00000000000E+00 -0.50058119262E+03  0.50058119262E+03  0.00000000000E+00 0.  1.
      99926    2    1    2    0    0  0.00000000000E+00  0.00000000000E+00 -0.38446726466E+03  0.61669512058E+03  0.48218025069E+03 0.  0.
      99925    2    3    3    0    0  0.95501972368E+02 -0.99091864664E+01 -0.36171299949E+03  0.45737128876E+03  0.26293227850E+03 0.  0.
         25    1    3    3    0    0 -0.95501972368E+02  0.99091864664E+01 -0.22754265168E+02  0.15932383182E+03  0.12509000000E+03 0.  0.
         25    1    4    4    0    0  0.70765172986E+02 -0.22436268222E+02 -0.24006247644E+03  0.28069306464E+03  0.12509000000E+03 0.  0.
         25    1    4    4    0    0  0.24736799382E+02  0.12527081755E+02 -0.12165052305E+03  0.17667822412E+03  0.12509000000E+03 0.  0.
<mgrwt>
<rscale>  2 0.48218025E+03</rscale>
<asrwt>0</asrwt>
<pdfrwt beam="1">  1       21 0.17075578E-01 0.48218025E+03</pdfrwt>
<pdfrwt beam="2">  1       21 0.73614881E-01 0.48218025E+03</pdfrwt>
<totfact> 0.46780528E+04</totfact>
</mgrwt>
</event>
<event>
 7    0  0.4712189E-002  0.4373022E+03  0.7546771E-02  0.1031578E+00
         21   -1    0    0  502  501  0.00000000000E+00  0.00000000000E+00  0.42653619678E+02  0.42653619678E+02  0.00000000000E+00 0. -1.
         21   -1    0    0  501  502 -0.00000000000E+00 -0.00000000000E+00 -0.11208500406E+04  0.11208500406E+04  0.00000000000E+00 0. -1.
      99926    2    1    2    0    0  0.00000000000E+00  0.00000000000E+00 -0.10781964209E+04  0.11635036602E+04  0.43730223574E+03 0.  0.
      99925    2    3    3    0    0  0.43233723331E+02 -0.82712548188E+02 -0.63445795749E+03  0.69311886833E+03  0.26299495310E+03 0.  0.
         25    1    4    4    0    0  0.25921357103E+02 -0.75247905431E+02 -0.40199719440E+03  0.42846635391E+03  0.12509000000E+03 0.  0.
         25    1    4    4    0    0  0.17312366228E+02 -0.74646427566E+01 -0.23246076309E+03  0.26465251442E+03  0.12509000000E+03 0.  0.
         25    1    3    3    0    0 -0.43233723331E+02  0.82712548188E+02 -0.44373846339E+03  0.47038479190E+03  0.12509000000E+03 0.  0.
<mgrwt>
<rscale>  2 0.43730224E+03</rscale>
<asrwt>0</asrwt>
<pdfrwt beam="1">  1       21 0.62725903E-02 0.43730224E+03</pdfrwt>
<pdfrwt beam="2">  1       21 0.16483091E+00 0.43730224E+03</pdfrwt>
<totfact> 0.38357898E+04</totfact>
</mgrwt>
</event>
<event>
 7    0  0.4712189E-002  0.4691961E+03  0.7546771E-02  0.1022147E+00
         21   -1    0    0  502  501  0.00000000000E+00  0.00000000000E+00  0.96969256031E+02  0.96969256031E+02  0.00000000000E+00 0.  1.
         21   -1    0    0  501  502 -0.00000000000E+00 -0.00000000000E+00 -0.56756381623E+03  0.56756381623E+03  0.00000000000E+00 0.  1.
      99926    2    1    2    0    0  0.00000000000E+00  0.00000000000E+00 -0.47059456020E+03  0.66453307226E+03  0.46919608272E+03 0.  0.
      99925    2    3    3    0    0  0.88743846670E+02  0.49145965180E+02 -0.18627623935E+03  0.33776830690E+03  0.26286459553E+03 0.  0.
         25    1    4    4    0    0  0.31563771113E+02 -0.14896517841E+02 -0.91824872951E+02  0.15905185721E+03  0.12509000000E+03 0.  0.
         25    1    4    4    0    0  0.57180075557E+02  0.64042483021E+02 -0.94451366403E+02  0.17871644968E+03  0.12509000000E+03 0.  0.
         25    1    3    3    0    0 -0.88743846670E+02 -0.49145965180E+02 -0.28431832085E+03  0.32676476536E+03  0.12509000000E+03 0.  0.
<mgrwt>
<rscale>  2 0.46919608E+03</rscale>
<asrwt>0</asrwt>
<pdfrwt beam="1">  1       21 0.14260185E-01 0.46919608E+03</pdfrwt>
<pdfrwt beam="2">  1       21 0.83465267E-01 0.46919608E+03</pdfrwt>
<totfact> 0.49135359E+04</totfact>
</mgrwt>
</event>
<event>
 7    0  0.4712189E-002  0.4594187E+03  0.7546771E-02  0.1024950E+00
         21   -1    0    0  502  501  0.00000000000E+00  0.00000000000E+00  0.35938422137E+03  0.35938422137E+03  0.00000000000E+00 0.  1.
         21   -1    0    0  501  502 -0.00000000000E+00 -0.00000000000E+00 -0.14682445897E+03  0.14682445897E+03  0.00000000000E+00 0.  1.
      99926    2    1    2    0    0  0.00000000000E+00  0.00000000000E+00  0.21255976240E+03  0.50620868035E+03  0.45941873652E+03 0.  0.
      99925    2    3    3    0    0  0.10558489076E+03  0.17698973802E+02  0.80216659840E+02  0.29496562667E+03  0.26288511858E+03 0.  0.
         25    1    4    4    0    0  0.17757343638E+02  0.75505739148E+01  0.11539508579E+02  0.12709446399E+03  0.12509000000E+03 0.  0.
         25    1    3    3    0    0 -0.10558489076E+03 -0.17698973802E+02  0.13234310256E+03  0.21124305367E+03  0.12509000000E+03 0.  0.
         25    1    4    4    0    0  0.87827547124E+02  0.10148399887E+02  0.68677151261E+02  0.16787116268E+03  0.12509000000E+03 0.  0.
<mgrwt>
<rscale>  2 0.45941874E+03</rscale>
<asrwt>0</asrwt>
<pdfrwt beam="1">  1       21 0.52850621E-01 0.45941874E+03</pdfrwt>
<pdfrwt beam="2">  1       21 0.21591832E-01 0.45941874E+03</pdfrwt>
<totfact> 0.62611636E+04</totfact>
</mgrwt>
</event>
<event>
 7    0  0.4712189E-002  0.4560766E+03  0.7546771E-02  0.1025925E+00
         21   -1    0    0  502  501  0.00000000000E+00  0.00000000000E+00  0.41134368176E+03  0.41134368176E+03  0.00000000000E+00 0. -1.
         21   -1    0    0  501  502 -0.00000000000E+00 -0.00000000000E+00 -0.12641854644E+03  0.12641854644E+03  0.00000000000E+00 0. -1.
      99926    2    1    2    0    0  0.00000000000E+00  0.00000000000E+00  0.28492513531E+03  0.53776222820E+03  0.45607661785E+03 0.  0.
      99925    2    3    3    0    0 -0.28948903837E+02  0.92233679717E+02  0.10892960661E+03  0.30118871969E+03  0.26363591364E+03 0.  0.
         25    1    4    4    0    0  0.35282456277E+00  0.51475204220E+01  0.56584617354E+02  0.13738976844E+03  0.12509000000E+03 0.  0.
         25    1    4    4    0    0 -0.29301728400E+02  0.87086159295E+02  0.52344989258E+02  0.16379895124E+03  0.12509000000E+03 0.  0.
         25    1    3    3    0    0  0.28948903837E+02 -0.92233679717E+02  0.17599552870E+03  0.23657350851E+03  0.12509000000E+03 0.  0.
<mgrwt>
<rscale>  2 0.45607662E+03</rscale>
<asrwt>0</asrwt>
<pdfrwt beam="1">  1       21 0.60491718E-01 0.45607662E+03</pdfrwt>
<pdfrwt beam="2">  1       21 0.18590963E-01 0.45607662E+03</pdfrwt>
<totfact> 0.62151237E+04</totfact>
</mgrwt>
</event>
<event>
 7    0  0.4712189E-002  0.4494332E+03  0.7546771E-02  0.1027891E+00
         21   -1    0    0  502  501  0.00000000000E+00  0.00000000000E+00  0.20396810545E+04  0.20396810545E+04  0.00000000000E+00 0. -1.
         21   -1    0    0  501  502 -0.00000000000E+00 -0.00000000000E+00 -0.24757574243E+02  0.24757574243E+02  0.00000000000E+00 0. -1.
      99926    2    1    2    0    0 -0.71054273576E-14  0.00000000000E+00  0.20149234803E+04  0.20644386288E+04  0.44943322146E+03 0.  0.
      99925    2    3    3    0    0  0.34588367491E+02  0.99468390864E+02  0.13781506434E+04  0.14070061457E+04  0.26320482915E+03 0.  0.
         25    1    4    4    0    0 -0.92750296602E+01  0.74508220792E+02  0.61860493843E+03  0.63557617883E+03  0.12509000000E+03 0.  0.
         25    1    4    4    0    0  0.43863397151E+02  0.24960170072E+02  0.75954570500E+03  0.77142996687E+03  0.12509000000E+03 0.  0.
         25    1    3    3    0    0 -0.34588367491E+02 -0.99468390864E+02  0.63677283686E+03  0.65743248308E+03  0.12509000000E+03 0.  0.
<mgrwt>
<rscale>  2 0.44943322E+03</rscale>
<asrwt>0</asrwt>
<pdfrwt beam="1">  1       21 0.29995298E+00 0.44943322E+03</pdfrwt>
<pdfrwt beam="2">  1       21 0.36408211E-02 0.44943322E+03</pdfrwt>
<totfact> 0.13249603E+04</totfact>
</mgrwt>
</event>
<event>
 7    0  0.4712189E-002  0.4598575E+03  0.7546771E-02  0.1024823E+00
         21   -1    0    0  502  501  0.00000000000E+00  0.00000000000E+00  0.78119936760E+03  0.78119936760E+03  0.00000000000E+00 0.  1.
         21   -1    0    0  501  502 -0.00000000000E+00 -0.00000000000E+00 -0.67674449976E+02  0.67674449976E+02  0.00000000000E+00 0.  1.
      99926    2    1    2    0    0  0.00000000000E+00  0.00000000000E+00  0.71352491763E+03  0.84887381758E+03  0.45985753239E+03 0.  0.
      99925    2    3    3    0    0 -0.85741672582E+02  0.80478901538E+02  0.44199834532E+03  0.52762208516E+03  0.26304759926E+03 0.  0.
         25    1    4    4    0    0 -0.29023335431E+02  0.75616046720E+02  0.25825829429E+03  0.29816940687E+03  0.12509000000E+03 0.  0.
         25    1    3    3    0    0  0.85741672582E+02 -0.80478901538E+02  0.27152657231E+03  0.32125173241E+03  0.12509000000E+03 0.  0.
         25    1    4    4    0    0 -0.56718337150E+02  0.48628548178E+01  0.18374005102E+03  0.22945267829E+03  0.12509000000E+03 0.  0.
<mgrwt>
<rscale>  2 0.45985753E+03</rscale>
<asrwt>0</asrwt>
<pdfrwt beam="1">  1       21 0.11488225E+00 0.45985753E+03</pdfrwt>
<pdfrwt beam="2">  1       21 0.99521254E-02 0.45985753E+03</pdfrwt>
<totfact> 0.43796866E+04</totfact>
</mgrwt>
</event>
<event>
 7    0  0.4712189E-002  0.4532438E+03  0.7546771E-02  0.1026759E+00
         21   -1    0    0  502  501  0.00000000000E+00  0.00000000000E+00  0.20374295382E+03  0.20374295382E+03  0.00000000000E+00 0.  1.
         21   -1    0    0  501  502 -0.00000000000E+00 -0.00000000000E+00 -0.25207000173E+03  0.25207000173E+03  0.00000000000E+00 0.  1.
      99926    2    1    2    0    0  0.00000000000E+00  0.00000000000E+00 -0.48327047916E+02  0.45581295555E+03  0.45324380513E+03 0.  0.
      99925    2    3    3    0    0  0.93353592691E+02 -0.40468607368E+02 -0.76281817401E+02  0.29216217282E+03  0.26303463291E+03 0.  0.
         25    1    4    4    0    0  0.28599942935E+02 -0.62225080184E+01 -0.24124335071E+00  0.12846883918E+03  0.12509000000E+03 0.  0.
         25    1    4    4    0    0  0.64753649756E+02 -0.34246099349E+02 -0.76040574051E+02  0.16369333364E+03  0.12509000000E+03 0.  0.
         25    1    3    3    0    0 -0.93353592691E+02  0.40468607368E+02  0.27954769485E+02  0.16365078273E+03  0.12509000000E+03 0.  0.
<mgrwt>
<rscale>  2 0.45324381E+03</rscale>
<asrwt>0</asrwt>
<pdfrwt beam="1">  1       21 0.29962199E-01 0.45324381E+03</pdfrwt>
<pdfrwt beam="2">  1       21 0.37069118E-01 0.45324381E+03</pdfrwt>
<totfact> 0.69454332E+04</totfact>
</mgrwt>
</event>
<event>
 7    0  0.4712189E-002  0.4566788E+03  0.7546771E-02  0.1025749E+00
         21   -1    0    0  502  501  0.00000000000E+00  0.00000000000E+00  0.40973380568E+03  0.40973380568E+03  0.00000000000E+00 0.  1.
         21   -1    0    0  501  502 -0.00000000000E+00 -0.00000000000E+00 -0.12725059512E+03  0.12725059512E+03  0.00000000000E+00 0.  1.
      99926    2    1    2    0    0  0.00000000000E+00  0.44408920985E-14  0.28248321056E+03  0.53698440080E+03  0.45667875191E+03 0.  0.
      99925    2    3    3    0    0 -0.34378678765E+02  0.41837233699E+01  0.49543353580E+02  0.27032378847E+03  0.26347867017E+03 0.  0.
         25    1    4    4    0    0 -0.18925843359E+02 -0.36744905482E+02  0.10437149827E+02  0.13215452252E+03  0.12509000000E+03 0.  0.
         25    1    4    4    0    0 -0.15452835406E+02  0.40928628852E+02  0.39106203753E+02  0.13816926595E+03  0.12509000000E+03 0.  0.
         25    1    3    3    0    0  0.34378678765E+02 -0.41837233699E+01  0.23293985698E+03  0.26666061233E+03  0.12509000000E+03 0.  0.
<mgrwt>
<rscale>  2 0.45667875E+03</rscale>
<asrwt>0</asrwt>
<pdfrwt beam="1">  1       21 0.60254971E-01 0.45667875E+03</pdfrwt>
<pdfrwt beam="2">  1       21 0.18713323E-01 0.45667875E+03</pdfrwt>
<totfact> 0.61908213E+04</totfact>
</mgrwt>
</event>
<event>
 7    0  0.4712189E-002  0.4600799E+03  0.7546771E-02  0.1024758E+00
         21   -1    0    0  502  501  0.00000000000E+00  0.00000000000E+00  0.96708485677E+02  0.96708485677E+02  0.00000000000E+00 0.  1.
         21   -1    0    0  501  502 -0.00000000000E+00 -0.00000000000E+00 -0.54719469854E+03  0.54719469854E+03  0.00000000000E+00 0.  1.
      99926    2    1    2    0    0  0.14210854715E-13  0.17763568394E-14 -0.45048621286E+03  0.64390318422E+03  0.46007986553E+03 0.  0.
      99925    2    3    3    0    0  0.10728040705E+03  0.15043856121E+02 -0.21709200624E+03  0.35779871531E+03  0.26297448196E+03 0.  0.
         25    1    4    4    0    0  0.94474725424E+02  0.15798371161E+02 -0.13636737647E+03  0.20837137937E+03  0.12509000000E+03 0.  0.
         25    1    4    4    0    0  0.12805681622E+02 -0.75451504005E+00 -0.80724629776E+02  0.14942733594E+03  0.12509000000E+03 0.  0.
         25    1    3    3    0    0 -0.10728040705E+03 -0.15043856121E+02 -0.23339420662E+03  0.28610446890E+03  0.12509000000E+03 0.  0.
<mgrwt>
<rscale>  2 0.46007987E+03</rscale>
<asrwt>0</asrwt>
<pdfrwt beam="1">  1       21 0.14221836E-01 0.46007987E+03</pdfrwt>
<pdfrwt beam="2">  1       21 0.80469808E-01 0.46007987E+03</pdfrwt>
<totfact> 0.53862362E+04</totfact>
</mgrwt>
</event>
<event>
 7    0  0.4712189E-002  0.4364356E+03  0.7546771E-02  0.1031846E+00
         21   -1    0    0  502  501  0.00000000000E+00  0.00000000000E+00  0.58741583734E+02  0.58741583734E+02  0.00000000000E+00 0. -1.
         21   -1    0    0  501  502 -0.00000000000E+00 -0.00000000000E+00 -0.81065238462E+03  0.81065238462E+03  0.00000000000E+00 0. -1.
      99926    2    1    2    0    0  0.00000000000E+00  0.00000000000E+00 -0.75191080089E+03  0.86939396835E+03  0.43643558485E+03 0.  0.
      99925    2    3    3    0    0 -0.66997225571E+02  0.33127530494E+02 -0.36597558964E+03  0.45686571854E+03  0.26306290323E+03 0.  0.
         25    1    4    4    0    0 -0.61305707473E+01  0.39731526942E+02 -0.14509980948E+03  0.19574892322E+03  0.12509000000E+03 0.  0.
         25    1    3    3    0    0  0.66997225571E+02 -0.33127530494E+02 -0.38593521125E+03  0.41252824981E+03  0.12509000000E+03 0.  0.
         25    1    4    4    0    0 -0.60866654824E+02 -0.66039964484E+01 -0.22087578016E+03  0.26111679532E+03  0.12509000000E+03 0.  0.
<mgrwt>
<rscale>  2 0.43643558E+03</rscale>
<asrwt>0</asrwt>
<pdfrwt beam="1">  1       21 0.86384679E-02 0.43643558E+03</pdfrwt>
<pdfrwt beam="2">  1       21 0.11921359E+00 0.43643558E+03</pdfrwt>
<totfact> 0.51700217E+04</totfact>
</mgrwt>
</event>
<event>
 7    0  0.4712189E-002  0.4574106E+03  0.7546771E-02  0.1025535E+00
         21   -1    0    0  502  501  0.00000000000E+00  0.00000000000E+00  0.16698390061E+03  0.16698390061E+03  0.00000000000E+00 0.  1.
         21   -1    0    0  501  502 -0.00000000000E+00 -0.00000000000E+00 -0.31324050886E+03  0.31324050886E+03  0.00000000000E+00 0.  1.
      99926    2    1    2    0    0  0.00000000000E+00  0.35527136788E-14 -0.14625660825E+03  0.48022440948E+03  0.45741063389E+03 0.  0.
      99925    2    3    3    0    0 -0.33975717394E+02 -0.29900936874E+02 -0.20332713890E+03  0.33547300545E+03  0.26296729183E+03 0.  0.
         25    1    3    3    0    0  0.33975717394E+02  0.29900936874E+02  0.57070530657E+02  0.14475140403E+03  0.12509000000E+03 0.  0.
         25    1    4    4    0    0 -0.31911592027E+01  0.23610016113E+02 -0.97468132408E+02  0.16035947522E+03  0.12509000000E+03 0.  0.
         25    1    4    4    0    0 -0.30784558192E+02 -0.53510952987E+02 -0.10585900650E+03  0.17511353023E+03  0.12509000000E+03 0.  0.
<mgrwt>
<rscale>  2 0.45741063E+03</rscale>
<asrwt>0</asrwt>
<pdfrwt beam="1">  1       21 0.24556456E-01 0.45741063E+03</pdfrwt>
<pdfrwt beam="2">  1       21 0.46064780E-01 0.45741063E+03</pdfrwt>
<totfact> 0.65423003E+04</totfact>
</mgrwt>
</event>
<event>
 7    0  0.4712189E-002  0.4487054E+03  0.7546771E-02  0.1028109E+00
         21   -1    0    0  502  501  0.00000000000E+00  0.00000000000E+00  0.90538191334E+03  0.90538191334E+03  0.00000000000E+00 0. -1.
         21   -1    0    0  501  502 -0.00000000000E+00 -0.00000000000E+00 -0.55594365085E+02  0.55594365085E+02  0.00000000000E+00 0. -1.
      99926    2    1    2    0    0  0.00000000000E+00 -0.35527136788E-14  0.84978754825E+03  0.96097627842E+03  0.44870539391E+03 0.  0.
      99925    2    3    3    0    0 -0.10481007658E+03 -0.19519603064E+02  0.56171840010E+03  0.62931755432E+03  0.26295789798E+03 0.  0.
         25    1    4    4    0    0 -0.62591790904E+02  0.19217597884E+02  0.34299417639E+03  0.37091718954E+03  0.12509000000E+03 0.  0.
         25    1    4    4    0    0 -0.42218285673E+02 -0.38737200947E+02  0.21872422372E+03  0.25840036479E+03  0.12509000000E+03 0.  0.
         25    1    3    3    0    0  0.10481007658E+03  0.19519603064E+02  0.28806914815E+03  0.33165872410E+03  0.12509000000E+03 0.  0.
<mgrwt>
<rscale>  2 0.44870539E+03</rscale>
<asrwt>0</asrwt>
<pdfrwt beam="1">  1       21 0.13314439E+00 0.44870539E+03</pdfrwt>
<pdfrwt beam="2">  1       21 0.81756425E-02 0.44870539E+03</pdfrwt>
<totfact> 0.42765819E+04</totfact>
</mgrwt>
</event>
<event>
 7    0  0.4712189E-002  0.4528964E+03  0.7546771E-02  0.1026862E+00
         21   -1    0    0  502  501  0.00000000000E+00  0.00000000000E+00  0.26184624735E+04  0.26184624735E+04  0.00000000000E+00 0. -1.
         21   -1    0    0  501  502 -0.00000000000E+00 -0.00000000000E+00 -0.19583545674E+02  0.19583545674E+02  0.00000000000E+00 0. -1.
      99926    2    1    2    0    0  0.00000000000E+00  0.00000000000E+00  0.25988789278E+04  0.26380460192E+04  0.45289636539E+03 0.  0.
      99925    2    3    3    0    0 -0.75101049234E+02  0.18642855774E+02  0.11736448216E+04  0.12052419540E+04  0.26301763559E+03 0.  0.
         25    1    4    4    0    0 -0.45512167119E+02 -0.59444800902E+01  0.43007769158E+03  0.45024551424E+03  0.12509000000E+03 0.  0.
         25    1    3    3    0    0  0.75101049234E+02 -0.18642855774E+02  0.14252341062E+04  0.14328040652E+04  0.12509000000E+03 0.  0.
         25    1    4    4    0    0 -0.29588882114E+02  0.24587335864E+02  0.74356713003E+03  0.75499643972E+03  0.12509000000E+03 0.  0.
<mgrwt>
<rscale>  2 0.45289637E+03</rscale>
<asrwt>0</asrwt>
<pdfrwt beam="1">  1       21 0.38506777E+00 0.45289637E+03</pdfrwt>
<pdfrwt beam="2">  1       21 0.28799350E-02 0.45289637E+03</pdfrwt>
<totfact> 0.59162156E+03</totfact>
</mgrwt>
</event>
<event>
 7    0  0.4712189E-002  0.4478397E+03  0.7546771E-02  0.1028368E+00
         21   -1    0    0  502  501  0.00000000000E+00  0.00000000000E+00  0.10427278340E+03  0.10427278340E+03  0.00000000000E+00 0.  1.
         21   -1    0    0  501  502 -0.00000000000E+00 -0.00000000000E+00 -0.48085508162E+03  0.48085508162E+03  0.00000000000E+00 0.  1.
      99926    2    1    2    0    0 -0.71054273576E-14  0.00000000000E+00 -0.37658229822E+03  0.58512786503E+03  0.44783969353E+03 0.  0.
      99925    2    3    3    0    0  0.61069782586E+02 -0.29192743874E+02 -0.34577061162E+03  0.43959916418E+03  0.26288471740E+03 0.  0.
         25    1    4    4    0    0  0.29712779503E+02 -0.87204715946E+01 -0.23652030956E+03  0.26934784355E+03  0.12509000000E+03 0.  0.
         25    1    3    3    0    0 -0.61069782586E+02  0.29192743874E+02 -0.30811686602E+02  0.14552870085E+03  0.12509000000E+03 0.  0.
         25    1    4    4    0    0  0.31357003083E+02 -0.20472272279E+02 -0.10925030206E+03  0.17025132062E+03  0.12509000000E+03 0.  0.
<mgrwt>
<rscale>  2 0.44783969E+03</rscale>
<asrwt>0</asrwt>
<pdfrwt beam="1">  1       21 0.15334233E-01 0.44783969E+03</pdfrwt>
<pdfrwt beam="2">  1       21 0.70713982E-01 0.44783969E+03</pdfrwt>
<totfact> 0.63099320E+04</totfact>
</mgrwt>
</event>
<event>
 7    0  0.4712189E-002  0.4722178E+03  0.7546771E-02  0.1021296E+00
         21   -1    0    0  502  501  0.00000000000E+00  0.00000000000E+00  0.90440275589E+02  0.90440275589E+02  0.00000000000E+00 0.  1.
         21   -1    0    0  501  502 -0.00000000000E+00 -0.00000000000E+00 -0.61640027130E+03  0.61640027130E+03  0.00000000000E+00 0.  1.
      99926    2    1    2    0    0  0.88817841970E-15  0.00000000000E+00 -0.52595999571E+03  0.70684054689E+03  0.47221779047E+03 0.  0.
      99925    2    3    3    0    0 -0.41576267428E+01  0.32904994772E+02 -0.51241114536E+03  0.57672097117E+03  0.26256784294E+03 0.  0.
         25    1    3    3    0    0  0.41576267428E+01 -0.32904994772E+02 -0.13548850349E+02  0.13011957573E+03  0.12509000000E+03 0.  0.
         25    1    4    4    0    0  0.33426644537E+02 -0.18346380786E+01 -0.24863304554E+03  0.28033302677E+03  0.12509000000E+03 0.  0.
         25    1    4    4    0    0 -0.37584271279E+02  0.34739632851E+02 -0.26377809982E+03  0.29638794440E+03  0.12509000000E+03 0.  0.
<mgrwt>
<rscale>  2 0.47221779E+03</rscale>
<asrwt>0</asrwt>
<pdfrwt beam="1">  1       21 0.13300040E-01 0.47221779E+03</pdfrwt>
<pdfrwt beam="2">  1       21 0.90647101E-01 0.47221779E+03</pdfrwt>
<totfact> 0.45977930E+04</totfact>
</mgrwt>
</event>
<event>
 7    0  0.4712189E-002  0.4114720E+03  0.7546771E-02  0.1039878E+00
         21   -1    0    0  502  501  0.00000000000E+00  0.00000000000E+00  0.37249360356E+03  0.37249360356E+03  0.00000000000E+00 0.  1.
         21   -1    0    0  501  502 -0.00000000000E+00 -0.00000000000E+00 -0.11363226814E+03  0.11363226814E+03  0.00000000000E+00 0.  1.
      99926    2    1    2    0    0  0.00000000000E+00  0.00000000000E+00  0.25886133542E+03  0.48612587170E+03  0.41147195793E+03 0.  0.
      99925    2    3    3    0    0  0.53525178985E+02  0.33486203418E+02  0.15566664972E+03  0.31210598243E+03  0.26304328129E+03 0.  0.
         25    1    3    3    0    0 -0.53525178985E+02 -0.33486203418E+02  0.10319468570E+03  0.17401988927E+03  0.12509000000E+03 0.  0.
         25    1    4    4    0    0 -0.75194577941E+01  0.38478032472E+02  0.70381022972E+02  0.14878876881E+03  0.12509000000E+03 0.  0.
         25    1    4    4    0    0  0.61044636779E+02 -0.49918290541E+01  0.85285626745E+02  0.16331721362E+03  0.12509000000E+03 0.  0.
<mgrwt>
<rscale>  2 0.41147196E+03</rscale>
<asrwt>0</asrwt>
<pdfrwt beam="1">  1       21 0.54778471E-01 0.41147196E+03</pdfrwt>
<pdfrwt beam="2">  1       21 0.16710628E-01 0.41147196E+03</pdfrwt>
<totfact> 0.95085328E+04</totfact>
</mgrwt>
</event>
<event>
 7    0  0.4712189E-002  0.4574358E+03  0.7546771E-02  0.1025528E+00
         21   -1    0    0  502  501  0.00000000000E+00  0.00000000000E+00  0.40011689595E+03  0.40011689595E+03  0.00000000000E+00 0. -1.
         21   -1    0    0  501  502 -0.00000000000E+00 -0.00000000000E+00 -0.13074147855E+03  0.13074147855E+03  0.00000000000E+00 0. -1.
      99926    2    1    2    0    0  0.00000000000E+00  0.00000000000E+00  0.26937541739E+03  0.53085837450E+03  0.45743578597E+03 0.  0.
      99925    2    3    3    0    0 -0.11262152420E+03  0.21590528996E+02  0.18587651118E+03  0.34173054975E+03  0.26283061574E+03 0.  0.
         25    1    3    3    0    0  0.11262152420E+03 -0.21590528996E+02  0.83498906216E+02  0.18912782475E+03  0.12509000000E+03 0.  0.
         25    1    4    4    0    0 -0.34616047290E+02 -0.85958633638E+01  0.51209561340E+02  0.13979301438E+03  0.12509000000E+03 0.  0.
         25    1    4    4    0    0 -0.78005476915E+02  0.30186392359E+02  0.13466694984E+03  0.20193753537E+03  0.12509000000E+03 0.  0.
<mgrwt>
<rscale>  2 0.45743579E+03</rscale>
<asrwt>0</asrwt>
<pdfrwt beam="1">  1       21 0.58840720E-01 0.45743579E+03</pdfrwt>
<pdfrwt beam="2">  1       21 0.19226688E-01 0.45743579E+03</pdfrwt>
<totfact> 0.61943885E+04</totfact>
</mgrwt>
</event>
<event>
 7    0  0.4712189E-002  0.4469184E+03  0.7546771E-02  0.1028645E+00
         21   -1    0    0  502  501  0.00000000000E+00  0.00000000000E+00  0.16530103347E+02  0.16530103347E+02  0.00000000000E+00 0.  1.
         21   -1    0    0  501  502 -0.00000000000E+00 -0.00000000000E+00 -0.30207924533E+04  0.30207924533E+04  0.00000000000E+00 0.  1.
      99926    2    1    2    0    0  0.00000000000E+00  0.00000000000E+00 -0.30042623499E+04  0.30373225566E+04  0.44691838827E+03 0.  0.
      99925    2    3    3    0    0 -0.66116688419E+02  0.17404882825E+02 -0.13587284097E+04  0.13856253074E+04  0.26294534573E+03 0.  0.
         25    1    3    3    0    0  0.66116688419E+02 -0.17404882825E+02 -0.16455339403E+04  0.16516972492E+04  0.12509000000E+03 0.  0.
         25    1    4    4    0    0 -0.27538700596E+02 -0.35236585397E+00 -0.47033435204E+03  0.48746324477E+03  0.12509000000E+03 0.  0.
         25    1    4    4    0    0 -0.38577987823E+02  0.17757248679E+02 -0.88839405763E+03  0.89816206263E+03  0.12509000000E+03 0.  0.
<mgrwt>
<rscale>  2 0.44691839E+03</rscale>
<asrwt>0</asrwt>
<pdfrwt beam="1">  1       21 0.24308985E-02 0.44691839E+03</pdfrwt>
<pdfrwt beam="2">  1       21 0.44423402E+00 0.44691839E+03</pdfrwt>
<totfact> 0.32441038E+03</totfact>
</mgrwt>
</event>
<event>
 7    0  0.4712189E-002  0.4478211E+03  0.7546771E-02  0.1028374E+00
         21   -1    0    0  502  501  0.00000000000E+00  0.00000000000E+00  0.88128172287E+02  0.88128172287E+02  0.00000000000E+00 0. -1.
         21   -1    0    0  501  502 -0.00000000000E+00 -0.00000000000E+00 -0.56889802905E+03  0.56889802905E+03  0.00000000000E+00 0. -1.
      99926    2    1    2    0    0  0.00000000000E+00  0.00000000000E+00 -0.48076985677E+03  0.65702620134E+03  0.44782114072E+03 0.  0.
      99925    2    3    3    0    0  0.81929342165E+02 -0.26015242015E+02 -0.21255860998E+03  0.34884769637E+03  0.26291508641E+03 0.  0.
         25    1    4    4    0    0  0.47024090766E+01 -0.30940737354E+02 -0.88112405425E+02  0.15617536928E+03  0.12509000000E+03 0.  0.
         25    1    3    3    0    0 -0.81929342165E+02  0.26015242015E+02 -0.26821124679E+03  0.30817850497E+03  0.12509000000E+03 0.  0.
         25    1    4    4    0    0  0.77226933088E+02  0.49254953386E+01 -0.12444620456E+03  0.19267232709E+03  0.12509000000E+03 0.  0.
<mgrwt>
<rscale>  2 0.44782114E+03</rscale>
<asrwt>0</asrwt>
<pdfrwt beam="1">  1       21 0.12960025E-01 0.44782114E+03</pdfrwt>
<pdfrwt beam="2">  1       21 0.83661478E-01 0.44782114E+03</pdfrwt>
<totfact> 0.58542876E+04</totfact>
</mgrwt>
</event>
<event>
 7    0  0.4712189E-002  0.4592578E+03  0.7546771E-02  0.1024997E+00
         21   -1    0    0  502  501  0.00000000000E+00  0.00000000000E+00  0.66887775750E+03  0.66887775750E+03  0.00000000000E+00 0. -1.
         21   -1    0    0  501  502 -0.00000000000E+00 -0.00000000000E+00 -0.78832680941E+02  0.78832680941E+02  0.00000000000E+00 0. -1.
      99926    2    1    2    0    0  0.00000000000E+00 -0.71054273576E-14  0.59004507656E+03  0.74771043844E+03  0.45925777879E+03 0.  0.
      99925    2    3    3    0    0  0.98669527268E+02 -0.57303099090E+02  0.31808336388E+03  0.42735126183E+03  0.26159654782E+03 0.  0.
         25    1    4    4    0    0  0.65486956978E+02  0.24334972059E+01  0.13540669967E+03  0.19564494846E+03  0.12509000000E+03 0.  0.
         25    1    4    4    0    0  0.33182570290E+02 -0.59736596295E+02  0.18267666421E+03  0.23170631337E+03  0.12509000000E+03 0.  0.
         25    1    3    3    0    0 -0.98669527268E+02  0.57303099090E+02  0.27196171268E+03  0.32035917661E+03  0.12509000000E+03 0.  0.
<mgrwt>
<rscale>  2 0.45925778E+03</rscale>
<asrwt>0</asrwt>
<pdfrwt beam="1">  1       21 0.98364373E-01 0.45925778E+03</pdfrwt>
<pdfrwt beam="2">  1       21 0.11593042E-01 0.45925778E+03</pdfrwt>
<totfact> 0.48736342E+04</totfact>
</mgrwt>
</event>
<event>
 7    0  0.4712189E-002  0.4544321E+03  0.7546771E-02  0.1026409E+00
         21   -1    0    0  502  501  0.00000000000E+00  0.00000000000E+00  0.28676376489E+03  0.28676376489E+03  0.00000000000E+00 0. -1.
         21   -1    0    0  501  502 -0.00000000000E+00 -0.00000000000E+00 -0.18003368679E+03  0.18003368679E+03  0.00000000000E+00 0. -1.
      99926    2    1    2    0    0  0.71054273576E-14  0.71054273576E-14  0.10673007810E+03  0.46679745168E+03  0.45443211960E+03 0.  0.
      99925    2    3    3    0    0 -0.36974260930E+02 -0.63777454821E+02 -0.20183026994E+02  0.27395268493E+03  0.26307424672E+03 0.  0.
         25    1    3    3    0    0  0.36974260930E+02  0.63777454821E+02  0.12691310510E+03  0.19284476674E+03  0.12509000000E+03 0.  0.
         25    1    4    4    0    0 -0.49103972400E+02 -0.18074183016E+02 -0.33180989676E+02  0.13959356136E+03  0.12509000000E+03 0.  0.
         25    1    4    4    0    0  0.12129711469E+02 -0.45703271805E+02  0.12997962682E+02  0.13435912358E+03  0.12509000000E+03 0.  0.
<mgrwt>
<rscale>  2 0.45443212E+03</rscale>
<asrwt>0</asrwt>
<pdfrwt beam="1">  1       21 0.42171142E-01 0.45443212E+03</pdfrwt>
<pdfrwt beam="2">  1       21 0.26475542E-01 0.45443212E+03</pdfrwt>
<totfact> 0.67980562E+04</totfact>
</mgrwt>
</event>
<event>
 7    0  0.4712189E-002  0.4531967E+03  0.7546771E-02  0.1026773E+00
         21   -1    0    0  502  501  0.00000000000E+00  0.00000000000E+00  0.59514699563E+02  0.59514699563E+02  0.00000000000E+00 0.  1.
         21   -1    0    0  501  502 -0.00000000000E+00 -0.00000000000E+00 -0.86275861716E+03  0.86275861716E+03  0.00000000000E+00 0.  1.
      99926    2    1    2    0    0  0.00000000000E+00 -0.14210854715E-13 -0.80324391760E+03  0.92227331673E+03  0.45319673386E+03 0.  0.
      99925    2    3    3    0    0 -0.42796146327E+02 -0.93796448531E+02 -0.59233722250E+03  0.65626875655E+03  0.26305134815E+03 0.  0.
         25    1    4    4    0    0 -0.15854491621E+02 -0.22496885015E+02 -0.20020174155E+03  0.23766724671E+03  0.12509000000E+03 0.  0.
         25    1    4    4    0    0 -0.26941654705E+02 -0.71299563516E+02 -0.39213548096E+03  0.41860150984E+03  0.12509000000E+03 0.  0.
         25    1    3    3    0    0  0.42796146327E+02  0.93796448531E+02 -0.21090669510E+03  0.26600456018E+03  0.12509000000E+03 0.  0.
<mgrwt>
<rscale>  2 0.45319673E+03</rscale>
<asrwt>0</asrwt>
<pdfrwt beam="1">  1       21 0.87521627E-02 0.45319673E+03</pdfrwt>
<pdfrwt beam="2">  1       21 0.12687625E+00 0.45319673E+03</pdfrwt>
<totfact> 0.42886226E+04</totfact>
</mgrwt>
</event>
<event>
 7    0  0.4712189E-002  0.4552318E+03  0.7546771E-02  0.1026173E+00
         21   -1    0    0  502  501  0.00000000000E+00  0.00000000000E+00  0.12216301393E+03  0.12216301393E+03  0.00000000000E+00 0.  1.
         21   -1    0    0  501  502 -0.00000000000E+00 -0.00000000000E+00 -0.42409716432E+03  0.42409716432E+03  0.00000000000E+00 0.  1.
      99926    2    1    2    0    0  0.00000000000E+00  0.00000000000E+00 -0.30193415038E+03  0.54626017825E+03  0.45523175546E+03 0.  0.
      99925    2    3    3    0    0  0.53432834205E+02 -0.63112225891E+02 -0.28320072708E+03  0.39514211158E+03  0.26286197080E+03 0.  0.
         25    1    4    4    0    0  0.66795749920E+02 -0.27748289431E+02 -0.15916438446E+03  0.21497081000E+03  0.12509000000E+03 0.  0.
         25    1    3    3    0    0 -0.53432834205E+02  0.63112225891E+02 -0.18733423301E+02  0.15111806668E+03  0.12509000000E+03 0.  0.
         25    1    4    4    0    0 -0.13362915715E+02 -0.35363936460E+02 -0.12403634263E+03  0.18017130157E+03  0.12509000000E+03 0.  0.
<mgrwt>
<rscale>  2 0.45523176E+03</rscale>
<asrwt>0</asrwt>
<pdfrwt beam="1">  1       21 0.17965149E-01 0.45523176E+03</pdfrwt>
<pdfrwt beam="2">  1       21 0.62367231E-01 0.45523176E+03</pdfrwt>
<totfact> 0.62000546E+04</totfact>
</mgrwt>
</event>
<event>
 7    0  0.4712189E-002  0.4743405E+03  0.7546771E-02  0.1020702E+00
         21   -1    0    0  502  501  0.00000000000E+00  0.00000000000E+00  0.27914188408E+03  0.27914188408E+03  0.00000000000E+00 0. -1.
         21   -1    0    0  501  502 -0.00000000000E+00 -0.00000000000E+00 -0.20150947629E+03  0.20150947629E+03  0.00000000000E+00 0. -1.
      99926    2    1    2    0    0  0.00000000000E+00  0.00000000000E+00  0.77632407791E+02  0.48065136038E+03  0.47434053115E+03 0.  0.
      99925    2    3    3    0    0 -0.97806152490E+02  0.53753191318E+02  0.11650157050E+03  0.30856484449E+03  0.26302889249E+03 0.  0.
         25    1    4    4    0    0 -0.17472629918E+02 -0.36495737363E+01  0.50375854514E+02  0.13602884622E+03  0.12509000000E+03 0.  0.
         25    1    3    3    0    0  0.97806152490E+02 -0.53753191318E+02 -0.38869162706E+02  0.17208651589E+03  0.12509000000E+03 0.  0.
         25    1    4    4    0    0 -0.80333522572E+02  0.57402765054E+02  0.66125715984E+02  0.17253599827E+03  0.12509000000E+03 0.  0.
<mgrwt>
<rscale>  2 0.47434053E+03</rscale>
<asrwt>0</asrwt>
<pdfrwt beam="1">  1       21 0.41050277E-01 0.47434053E+03</pdfrwt>
<pdfrwt beam="2">  1       21 0.29633747E-01 0.47434053E+03</pdfrwt>
<totfact> 0.57329611E+04</totfact>
</mgrwt>
</event>
<event>
 7    0  0.4712189E-002  0.4547457E+03  0.7546771E-02  0.1026316E+00
         21   -1    0    0  502  501  0.00000000000E+00  0.00000000000E+00  0.35181258135E+03  0.35181258135E+03  0.00000000000E+00 0. -1.
         21   -1    0    0  501  502 -0.00000000000E+00 -0.00000000000E+00 -0.14694876286E+03  0.14694876286E+03  0.00000000000E+00 0. -1.
      99926    2    1    2    0    0 -0.14210854715E-13  0.00000000000E+00  0.20486381849E+03  0.49876134421E+03  0.45474574693E+03 0.  0.
      99925    2    3    3    0    0  0.60994639470E+02  0.91847381167E+02  0.10238870225E+03  0.30304485278E+03  0.26305217919E+03 0.  0.
         25    1    3    3    0    0 -0.60994639470E+02 -0.91847381167E+02  0.10247511624E+03  0.19571649143E+03  0.12509000000E+03 0.  0.
         25    1    4    4    0    0  0.12257655361E+02  0.64584125064E+01  0.38745591270E+02  0.13168405427E+03  0.12509000000E+03 0.  0.
         25    1    4    4    0    0  0.48736984108E+02  0.85388968661E+02  0.63643110983E+02  0.17136079851E+03  0.12509000000E+03 0.  0.
<mgrwt>
<rscale>  2 0.45474575E+03</rscale>
<asrwt>0</asrwt>
<pdfrwt beam="1">  1       21 0.51737144E-01 0.45474575E+03</pdfrwt>
<pdfrwt beam="2">  1       21 0.21610112E-01 0.45474575E+03</pdfrwt>
<totfact> 0.65489846E+04</totfact>
</mgrwt>
</event>
<event>
 7    0  0.4712189E-002  0.4554100E+03  0.7546771E-02  0.1026121E+00
         21   -1    0    0  502  501  0.00000000000E+00  0.00000000000E+00  0.36774600805E+03  0.36774600805E+03  0.00000000000E+00 0. -1.
         21   -1    0    0  501  502 -0.00000000000E+00 -0.00000000000E+00 -0.14099286168E+03  0.14099286168E+03  0.00000000000E+00 0. -1.
      99926    2    1    2    0    0 -0.71054273576E-14  0.14210854715E-13  0.22675314637E+03  0.50873886973E+03  0.45540997814E+03 0.  0.
      99925    2    3    3    0    0  0.38248862592E+02 -0.99042862656E+02  0.18765113742E+03  0.34007073600E+03  0.26298800728E+03 0.  0.
         25    1    4    4    0    0 -0.14816790472E+02 -0.23568975095E+02  0.82495709560E+02  0.15240762469E+03  0.12509000000E+03 0.  0.
         25    1    3    3    0    0 -0.38248862592E+02  0.99042862656E+02  0.39102008948E+02  0.16866813373E+03  0.12509000000E+03 0.  0.
         25    1    4    4    0    0  0.53065653064E+02 -0.75473887561E+02  0.10515542786E+03  0.18766311131E+03  0.12509000000E+03 0.  0.
<mgrwt>
<rscale>  2 0.45540998E+03</rscale>
<asrwt>0</asrwt>
<pdfrwt beam="1">  1       21 0.54080295E-01 0.45540998E+03</pdfrwt>
<pdfrwt beam="2">  1       21 0.20734244E-01 0.45540998E+03</pdfrwt>
<totfact> 0.64451018E+04</totfact>
</mgrwt>
</event>
<event>
 7    0  0.4712189E-002  0.4516444E+03  0.7546771E-02  0.1027233E+00
         21   -1    0    0  502  501  0.00000000000E+00  0.00000000000E+00  0.14140672181E+04  0.14140672181E+04  0.00000000000E+00 0. -1.
         21   -1    0    0  501  502 -0.00000000000E+00 -0.00000000000E+00 -0.36063113942E+02  0.36063113942E+02  0.00000000000E+00 0. -1.
      99926    2    1    2    0    0  0.00000000000E+00 -0.17763568394E-14  0.13780041042E+04  0.14501303321E+04  0.45164440530E+03 0.  0.
      99925    2    3    3    0    0  0.51010583041E+02  0.14436954166E+02  0.55984556940E+03  0.62076828726E+03  0.26289864903E+03 0.  0.
         25    1    3    3    0    0 -0.51010583041E+02 -0.14436954166E+02  0.81815853480E+03  0.82936204483E+03  0.12509000000E+03 0.  0.
         25    1    4    4    0    0  0.59324987037E+02  0.30413449345E+02  0.28915389064E+03  0.32202781333E+03  0.12509000000E+03 0.  0.
         25    1    4    4    0    0 -0.83144039960E+01 -0.15976495179E+02  0.27069167876E+03  0.29874047393E+03  0.12509000000E+03 0.  0.
<mgrwt>
<rscale>  2 0.45164441E+03</rscale>
<asrwt>0</asrwt>
<pdfrwt beam="1">  1       21 0.20795102E+00 0.45164441E+03</pdfrwt>
<pdfrwt beam="2">  1       21 0.53034001E-02 0.45164441E+03</pdfrwt>
<totfact> 0.25689449E+04</totfact>
</mgrwt>
</event>
<event>
 7    0  0.4712189E-002  0.4567451E+03  0.7546771E-02  0.1025729E+00
         21   -1    0    0  502  501  0.00000000000E+00  0.00000000000E+00  0.23594658709E+03  0.23594658709E+03  0.00000000000E+00 0.  1.
         21   -1    0    0  501  502 -0.00000000000E+00 -0.00000000000E+00 -0.22104167593E+03  0.22104167593E+03  0.00000000000E+00 0.  1.
      99926    2    1    2    0    0  0.71054273576E-14 -0.71054273576E-14  0.14904911156E+02  0.45698826303E+03  0.45674513261E+03 0.  0.
      99925    2    3    3    0    0 -0.47373418912E+02  0.54751268177E+02  0.99106888036E+02  0.28971775398E+03  0.26243524826E+03 0.  0.
         25    1    3    3    0    0  0.47373418912E+02 -0.54751268177E+02 -0.84201976879E+02  0.16727050905E+03  0.12509000000E+03 0.  0.
         25    1    4    4    0    0  0.96167313549E+01  0.27185466588E+02  0.23742464873E+02  0.13054786040E+03  0.12509000000E+03 0.  0.
         25    1    4    4    0    0 -0.56990150267E+02  0.27565801589E+02  0.75364423163E+02  0.15916989358E+03  0.12509000000E+03 0.  0.
<mgrwt>
<rscale>  2 0.45674513E+03</rscale>
<asrwt>0</asrwt>
<pdfrwt beam="1">  1       21 0.34698028E-01 0.45674513E+03</pdfrwt>
<pdfrwt beam="2">  1       21 0.32506129E-01 0.45674513E+03</pdfrwt>
<totfact> 0.67456208E+04</totfact>
</mgrwt>
</event>
<event>
 7    0  0.4712189E-002  0.4525915E+03  0.7546771E-02  0.1026952E+00
         21   -1    0    0  502  501  0.00000000000E+00  0.00000000000E+00  0.20600606905E+04  0.20600606905E+04  0.00000000000E+00 0.  1.
         21   -1    0    0  501  502 -0.00000000000E+00 -0.00000000000E+00 -0.24858382145E+02  0.24858382145E+02  0.00000000000E+00 0.  1.
      99926    2    1    2    0    0 -0.35527136788E-14  0.35527136788E-14  0.20352023083E+04  0.20849190726E+04  0.45259154161E+03 0.  0.
      99925    2    3    3    0    0  0.16071383728E+02  0.89262244258E+01  0.77960081349E+03  0.82296796865E+03  0.26298456642E+03 0.  0.
         25    1    3    3    0    0 -0.16071383728E+02 -0.89262244258E+01  0.12556014948E+04  0.12619511039E+04  0.12509000000E+03 0.  0.
         25    1    4    4    0    0  0.24933223674E+02 -0.32018884600E+02  0.40520057638E+03  0.42600691287E+03  0.12509000000E+03 0.  0.
         25    1    4    4    0    0 -0.88618399460E+01  0.40945109026E+02  0.37440023711E+03  0.39696105578E+03  0.12509000000E+03 0.  0.
<mgrwt>
<rscale>  2 0.45259154E+03</rscale>
<asrwt>0</asrwt>
<pdfrwt beam="1">  1       21 0.30294998E+00 0.45259154E+03</pdfrwt>
<pdfrwt beam="2">  1       21 0.36556459E-02 0.45259154E+03</pdfrwt>
<totfact> 0.12606644E+04</totfact>
</mgrwt>
</event>
<event>
 7    0  0.4712189E-002  0.4610356E+03  0.7546771E-02  0.1024481E+00
         21   -1    0    0  502  501  0.00000000000E+00  0.00000000000E+00  0.15037816670E+03  0.15037816670E+03  0.00000000000E+00 0.  1.
         21   -1    0    0  501  502 -0.00000000000E+00 -0.00000000000E+00 -0.35336555695E+03  0.35336555695E+03  0.00000000000E+00 0.  1.
      99926    2    1    2    0    0  0.00000000000E+00  0.00000000000E+00 -0.20298739024E+03  0.50374372365E+03  0.46103563693E+03 0.  0.
      99925    2    3    3    0    0 -0.87408146177E+02  0.47968757931E+02 -0.56754133511E+02  0.28701149432E+03  0.26308435994E+03 0.  0.
         25    1    4    4    0    0 -0.37562069975E+02 -0.66878656657E+01 -0.54467358627E+02  0.14166805534E+03  0.12509000000E+03 0.  0.
         25    1    3    3    0    0  0.87408146177E+02 -0.47968757931E+02 -0.14623325673E+03  0.21673222933E+03  0.12509000000E+03 0.  0.
         25    1    4    4    0    0 -0.49846076203E+02  0.54656623597E+02 -0.22867748840E+01  0.14534343898E+03  0.12509000000E+03 0.  0.
<mgrwt>
<rscale>  2 0.46103564E+03</rscale>
<asrwt>0</asrwt>
<pdfrwt beam="1">  1       21 0.22114437E-01 0.46103564E+03</pdfrwt>
<pdfrwt beam="2">  1       21 0.51965522E-01 0.46103564E+03</pdfrwt>
<totfact> 0.61985031E+04</totfact>
</mgrwt>
</event>
<event>
 7    0  0.4712189E-002  0.4621728E+03  0.7546771E-02  0.1024153E+00
         21   -1    0    0  502  501  0.00000000000E+00  0.00000000000E+00  0.62253757561E+02  0.62253757561E+02  0.00000000000E+00 0.  1.
         21   -1    0    0  501  502 -0.00000000000E+00 -0.00000000000E+00 -0.85779436786E+03  0.85779436786E+03  0.00000000000E+00 0.  1.
      99926    2    1    2    0    0 -0.14210854715E-13  0.00000000000E+00 -0.79554061030E+03  0.92004812542E+03  0.46217279286E+03 0.  0.
      99925    2    3    3    0    0 -0.11230415400E+03  0.33553829133E+02 -0.44785301238E+03  0.53239846877E+03  0.26294053776E+03 0.  0.
         25    1    4    4    0    0 -0.79165889397E+02  0.24298064946E+02 -0.30191276209E+03  0.33712973470E+03  0.12509000000E+03 0.  0.
         25    1    3    3    0    0  0.11230415400E+03 -0.33553829133E+02 -0.34768759792E+03  0.38764965665E+03  0.12509000000E+03 0.  0.
         25    1    4    4    0    0 -0.33138264604E+02  0.92557641869E+01 -0.14594025029E+03  0.19526873407E+03  0.12509000000E+03 0.  0.
<mgrwt>
<rscale>  2 0.46217279E+03</rscale>
<asrwt>0</asrwt>
<pdfrwt beam="1">  1       21 0.91549644E-02 0.46217279E+03</pdfrwt>
<pdfrwt beam="2">  1       21 0.12614623E+00 0.46217279E+03</pdfrwt>
<totfact> 0.40080255E+04</totfact>
</mgrwt>
</event>
<event>
 7    0  0.4712189E-002  0.4002624E+03  0.7546771E-02  0.1043689E+00
         21   -1    0    0  502  501  0.00000000000E+00  0.00000000000E+00  0.93940651630E+03  0.93940651630E+03  0.00000000000E+00 0.  1.
         21   -1    0    0  501  502 -0.00000000000E+00 -0.00000000000E+00 -0.42635969087E+02  0.42635969087E+02  0.00000000000E+00 0.  1.
      99926    2    1    2    0    0  0.00000000000E+00  0.00000000000E+00  0.89677054721E+03  0.98204248539E+03  0.40026244984E+03 0.  0.
      99925    2    3    3    0    0  0.13783029159E+02  0.63035639509E+01  0.49182855643E+03  0.55794906312E+03  0.26302494426E+03 0.  0.
         25    1    4    4    0    0  0.81328134741E+01 -0.12158491382E+01  0.33127346784E+03  0.35419943470E+03  0.12509000000E+03 0.  0.
         25    1    3    3    0    0 -0.13783029159E+02 -0.63035639509E+01  0.40494199078E+03  0.42409342226E+03  0.12509000000E+03 0.  0.
         25    1    4    4    0    0  0.56502156847E+01  0.75194130891E+01  0.16055508859E+03  0.20374962842E+03  0.12509000000E+03 0.  0.
<mgrwt>
<rscale>  2 0.40026245E+03</rscale>
<asrwt>0</asrwt>
<pdfrwt beam="1">  1       21 0.13814800E+00 0.40026245E+03</pdfrwt>
<pdfrwt beam="2">  1       21 0.62699961E-02 0.40026245E+03</pdfrwt>
<totfact> 0.62689892E+04</totfact>
</mgrwt>
</event>
<event>
 7    0  0.4712189E-002  0.4458366E+03  0.7546771E-02  0.1028971E+00
         21   -1    0    0  502  501  0.00000000000E+00  0.00000000000E+00  0.76300318206E+02  0.76300318206E+02  0.00000000000E+00 0. -1.
         21   -1    0    0  501  502 -0.00000000000E+00 -0.00000000000E+00 -0.65127600776E+03  0.65127600776E+03  0.00000000000E+00 0. -1.
      99926    2    1    2    0    0  0.00000000000E+00  0.00000000000E+00 -0.57497568955E+03  0.72757632597E+03  0.44583659173E+03 0.  0.
      99925    2    3    3    0    0  0.91296514674E+02  0.42479911361E+02 -0.40956194782E+03  0.49703606806E+03  0.26299100249E+03 0.  0.
         25    1    3    3    0    0 -0.91296514674E+02 -0.42479911361E+02 -0.16541374173E+03  0.23054025790E+03  0.12509000000E+03 0.  0.
         25    1    4    4    0    0  0.41028190694E+02  0.48002561385E+02 -0.15516021880E+03  0.20906879234E+03  0.12509000000E+03 0.  0.
         25    1    4    4    0    0  0.50268323981E+02 -0.55226500238E+01 -0.25440172902E+03  0.28796727572E+03  0.12509000000E+03 0.  0.
<mgrwt>
<rscale>  2 0.44583659E+03</rscale>
<asrwt>0</asrwt>
<pdfrwt beam="1">  1       21 0.11220636E-01 0.44583659E+03</pdfrwt>
<pdfrwt beam="2">  1       21 0.95775878E-01 0.44583659E+03</pdfrwt>
<totfact> 0.55310457E+04</totfact>
</mgrwt>
</event>
<event>
 7    0  0.4712189E-002  0.4490173E+03  0.7546771E-02  0.1028016E+00
         21   -1    0    0  502  501  0.00000000000E+00  0.00000000000E+00  0.25193496257E+03  0.25193496257E+03  0.00000000000E+00 0. -1.
         21   -1    0    0  501  502 -0.00000000000E+00 -0.00000000000E+00 -0.20006803045E+03  0.20006803045E+03  0.00000000000E+00 0. -1.
      99926    2    1    2    0    0  0.17763568394E-14 -0.35527136788E-14  0.51866932112E+02  0.45200299302E+03  0.44901729037E+03 0.  0.
      99925    2    3    3    0    0  0.13400889371E+02 -0.28745827954E+02  0.13630623342E+03  0.29778428415E+03  0.26285011728E+03 0.  0.
         25    1    3    3    0    0 -0.13400889371E+02  0.28745827954E+02 -0.84439301309E+02  0.15421870887E+03  0.12509000000E+03 0.  0.
         25    1    4    4    0    0 -0.15488810770E+02 -0.25634147220E+01  0.10246453273E+03  0.16245911154E+03  0.12509000000E+03 0.  0.
         25    1    4    4    0    0  0.28889700141E+02 -0.26182413232E+02  0.33841700696E+02  0.13532517261E+03  0.12509000000E+03 0.  0.
<mgrwt>
<rscale>  2 0.44901729E+03</rscale>
<asrwt>0</asrwt>
<pdfrwt beam="1">  1       21 0.37049259E-01 0.44901729E+03</pdfrwt>
<pdfrwt beam="2">  1       21 0.29421769E-01 0.44901729E+03</pdfrwt>
<totfact> 0.72148651E+04</totfact>
</mgrwt>
</event>
<event>
 7    0  0.4712189E-002  0.4613642E+03  0.7546771E-02  0.1024386E+00
         21   -1    0    0  502  501  0.00000000000E+00  0.00000000000E+00  0.52978776173E+03  0.52978776173E+03  0.00000000000E+00 0. -1.
         21   -1    0    0  501  502 -0.00000000000E+00 -0.00000000000E+00 -0.10044444868E+03  0.10044444868E+03  0.00000000000E+00 0. -1.
      99926    2    1    2    0    0  0.35527136788E-14 -0.14210854715E-13  0.42934331305E+03  0.63023221041E+03  0.46136423634E+03 0.  0.
      99925    2    3    3    0    0  0.19374149912E+02  0.11647979630E+03  0.24843385867E+03  0.38059519510E+03  0.26304071883E+03 0.  0.
         25    1    3    3    0    0 -0.19374149912E+02 -0.11647979630E+03  0.18090945437E+03  0.24963701531E+03  0.12509000000E+03 0.  0.
         25    1    4    4    0    0  0.34825319250E+02  0.84473832679E+02  0.16375165670E+03  0.22541238750E+03  0.12509000000E+03 0.  0.
         25    1    4    4    0    0 -0.15451169338E+02  0.32005963623E+02  0.84682201973E+02  0.15518280759E+03  0.12509000000E+03 0.  0.
<mgrwt>
<rscale>  2 0.46136424E+03</rscale>
<asrwt>0</asrwt>
<pdfrwt beam="1">  1       21 0.77909964E-01 0.46136424E+03</pdfrwt>
<pdfrwt beam="2">  1       21 0.14771243E-01 0.46136424E+03</pdfrwt>
<totfact> 0.54085918E+04</totfact>
</mgrwt>
</event>
<event>
 7    0  0.4712189E-002  0.4440867E+03  0.7546771E-02  0.1029500E+00
         21   -1    0    0  502  501  0.00000000000E+00  0.00000000000E+00  0.83265323461E+02  0.83265323461E+02  0.00000000000E+00 0. -1.
         21   -1    0    0  501  502 -0.00000000000E+00 -0.00000000000E+00 -0.59212219355E+03  0.59212219355E+03  0.00000000000E+00 0. -1.
      99926    2    1    2    0    0  0.14210854715E-13  0.00000000000E+00 -0.50885687008E+03  0.67538751701E+03  0.44408668511E+03 0.  0.
      99925    2    3    3    0    0  0.84512705855E+02 -0.21424490795E+02 -0.40569736659E+03  0.49129298282E+03  0.26301527608E+03 0.  0.
         25    1    3    3    0    0 -0.84512705855E+02  0.21424490795E+02 -0.10315950349E+03  0.18409453419E+03  0.12509000000E+03 0.  0.
         25    1    4    4    0    0  0.61446447086E+01 -0.26278731284E+02 -0.21334701874E+03  0.24878260969E+03  0.12509000000E+03 0.  0.
         25    1    4    4    0    0  0.78368061146E+02  0.48542404893E+01 -0.19235034785E+03  0.24251037313E+03  0.12509000000E+03 0.  0.
<mgrwt>
<rscale>  2 0.44408669E+03</rscale>
<asrwt>0</asrwt>
<pdfrwt beam="1">  1       21 0.12244900E-01 0.44408669E+03</pdfrwt>
<pdfrwt beam="2">  1       21 0.87076796E-01 0.44408669E+03</pdfrwt>
<totfact> 0.59185222E+04</totfact>
</mgrwt>
</event>
<event>
 7    0  0.4712189E-002  0.4565055E+03  0.7546771E-02  0.1025800E+00
         21   -1    0    0  502  501  0.00000000000E+00  0.00000000000E+00  0.33380218367E+03  0.33380218367E+03  0.00000000000E+00 0. -1.
         21   -1    0    0  501  502 -0.00000000000E+00 -0.00000000000E+00 -0.15607843745E+03  0.15607843745E+03  0.00000000000E+00 0. -1.
      99926    2    1    2    0    0  0.44408920985E-14  0.00000000000E+00  0.17772374623E+03  0.48988062112E+03  0.45650552349E+03 0.  0.
      99925    2    3    3    0    0 -0.28663037765E+01  0.98981182034E+02  0.17364723480E+03  0.33028859081E+03  0.26292907974E+03 0.  0.
         25    1    4    4    0    0 -0.38152029064E+02  0.42602169270E+02  0.67195761974E+02  0.15307939337E+03  0.12509000000E+03 0.  0.
         25    1    3    3    0    0  0.28663037765E+01 -0.98981182034E+02  0.40765114306E+01  0.15959203031E+03  0.12509000000E+03 0.  0.
         25    1    4    4    0    0  0.35285725287E+02  0.56379012764E+02  0.10645147282E+03  0.17720919743E+03  0.12509000000E+03 0.  0.
<mgrwt>
<rscale>  2 0.45650552E+03</rscale>
<asrwt>0</asrwt>
<pdfrwt beam="1">  1       21 0.49088557E-01 0.45650552E+03</pdfrwt>
<pdfrwt beam="2">  1       21 0.22952711E-01 0.45650552E+03</pdfrwt>
<totfact> 0.65204784E+04</totfact>
</mgrwt>
</event>
<event>
 7    0  0.4712189E-002  0.4435485E+03  0.7546771E-02  0.1029664E+00
         21   -1    0    0  502  501  0.00000000000E+00  0.00000000000E+00  0.11041977969E+03  0.11041977969E+03  0.00000000000E+00 0.  1.
         21   -1    0    0  501  502 -0.00000000000E+00 -0.00000000000E+00 -0.44542575461E+03  0.44542575461E+03  0.00000000000E+00 0.  1.
      99926    2    1    2    0    0  0.00000000000E+00  0.00000000000E+00 -0.33500597492E+03  0.55584553430E+03  0.44354848075E+03 0.  0.
      99925    2    3    3    0    0 -0.68671106896E+02  0.74184381900E+02 -0.23006506261E+03  0.36380609404E+03  0.26307013815E+03 0.  0.
         25    1    4    4    0    0 -0.36310984977E+02 -0.44604060809E+01 -0.11388779747E+03  0.17307894547E+03  0.12509000000E+03 0.  0.
         25    1    4    4    0    0 -0.32360121919E+02  0.78644787981E+02 -0.11617726514E+03  0.19072714857E+03  0.12509000000E+03 0.  0.
         25    1    3    3    0    0  0.68671106896E+02 -0.74184381900E+02 -0.10494091230E+03  0.19203944026E+03  0.12509000000E+03 0.  0.
<mgrwt>
<rscale>  2 0.44354848E+03</rscale>
<asrwt>0</asrwt>
<pdfrwt beam="1">  1       21 0.16238203E-01 0.44354848E+03</pdfrwt>
<pdfrwt beam="2">  1       21 0.65503787E-01 0.44354848E+03</pdfrwt>
<totfact> 0.67381529E+04</totfact>
</mgrwt>
</event>
<event>
 7    0  0.4712189E-002  0.4593965E+03  0.7546771E-02  0.1024956E+00
         21   -1    0    0  502  501  0.00000000000E+00  0.00000000000E+00  0.69749737406E+03  0.69749737406E+03  0.00000000000E+00 0. -1.
         21   -1    0    0  501  502 -0.00000000000E+00 -0.00000000000E+00 -0.75643712582E+02  0.75643712582E+02  0.00000000000E+00 0. -1.
      99926    2    1    2    0    0  0.00000000000E+00  0.71054273576E-14  0.62185366147E+03  0.77314108664E+03  0.45939652106E+03 0.  0.
      99925    2    3    3    0    0 -0.82979659920E+02 -0.57784605161E+02  0.48953038529E+03  0.56485848517E+03  0.26305973769E+03 0.  0.
         25    1    3    3    0    0  0.82979659920E+02  0.57784605161E+02  0.13232327619E+03  0.20828260147E+03  0.12509000000E+03 0.  0.
         25    1    4    4    0    0  0.41850594221E+00 -0.23329078014E+02  0.20760200958E+03  0.24349645482E+03  0.12509000000E+03 0.  0.
         25    1    4    4    0    0 -0.83398165863E+02 -0.34455527147E+02  0.28192837571E+03  0.32136203035E+03  0.12509000000E+03 0.  0.
<mgrwt>
<rscale>  2 0.45939652E+03</rscale>
<asrwt>0</asrwt>
<pdfrwt beam="1">  1       21 0.10257314E+00 0.45939652E+03</pdfrwt>
<pdfrwt beam="2">  1       21 0.11124076E-01 0.45939652E+03</pdfrwt>
<totfact> 0.47433076E+04</totfact>
</mgrwt>
</event>
<event>
 7    0  0.4712189E-002  0.4505411E+03  0.7546771E-02  0.1027561E+00
         21   -1    0    0  502  501  0.00000000000E+00  0.00000000000E+00  0.47073889664E+02  0.47073889664E+02  0.00000000000E+00 0.  1.
         21   -1    0    0  501  502 -0.00000000000E+00 -0.00000000000E+00 -0.10780247575E+04  0.10780247575E+04  0.00000000000E+00 0.  1.
      99926    2    1    2    0    0  0.00000000000E+00  0.00000000000E+00 -0.10309508678E+04  0.11250986471E+04  0.45054109020E+03 0.  0.
      99925    2    3    3    0    0  0.33572230812E+02 -0.77126062166E+02 -0.82368023021E+03  0.86880945607E+03  0.26325885584E+03 0.  0.
         25    1    3    3    0    0 -0.33572230812E+02  0.77126062166E+02 -0.20727063761E+03  0.25628919108E+03  0.12509000000E+03 0.  0.
         25    1    4    4    0    0  0.24765465733E+02 -0.29270909674E+02 -0.53002172458E+03  0.54593099479E+03  0.12509000000E+03 0.  0.
         25    1    4    4    0    0  0.88067650789E+01 -0.47855152492E+02 -0.29365850563E+03  0.32287846128E+03  0.12509000000E+03 0.  0.
<mgrwt>
<rscale>  2 0.45054109E+03</rscale>
<asrwt>0</asrwt>
<pdfrwt beam="1">  1       21 0.69226310E-02 0.45054109E+03</pdfrwt>
<pdfrwt beam="2">  1       21 0.15853305E+00 0.45054109E+03</pdfrwt>
<totfact> 0.35854938E+04</totfact>
</mgrwt>
</event>
<event>
 7    0  0.4712189E-002  0.4739548E+03  0.7546771E-02  0.1020810E+00
         21   -1    0    0  502  501  0.00000000000E+00  0.00000000000E+00  0.12713423658E+03  0.12713423658E+03  0.00000000000E+00 0. -1.
         21   -1    0    0  501  502 -0.00000000000E+00 -0.00000000000E+00 -0.44172433759E+03  0.44172433759E+03  0.00000000000E+00 0. -1.
      99926    2    1    2    0    0  0.00000000000E+00  0.00000000000E+00 -0.31459010101E+03  0.56885857417E+03  0.47395479294E+03 0.  0.
      99925    2    3    3    0    0 -0.62415587823E+02  0.44445834359E+02 -0.32091519494E+03  0.42202992333E+03  0.26315690385E+03 0.  0.
         25    1    4    4    0    0 -0.26667080873E+02 -0.16117229054E+02 -0.12874901907E+03  0.18219417193E+03  0.12509000000E+03 0.  0.
         25    1    3    3    0    0  0.62415587823E+02 -0.44445834359E+02  0.63250939292E+01  0.14682865084E+03  0.12509000000E+03 0.  0.
         25    1    4    4    0    0 -0.35748506950E+02  0.60563063413E+02 -0.19216617587E+03  0.23983575140E+03  0.12509000000E+03 0.  0.
<mgrwt>
<rscale>  2 0.47395479E+03</rscale>
<asrwt>0</asrwt>
<pdfrwt beam="1">  1       21 0.18696211E-01 0.47395479E+03</pdfrwt>
<pdfrwt beam="2">  1       21 0.64959461E-01 0.47395479E+03</pdfrwt>
<totfact> 0.52338876E+04</totfact>
</mgrwt>
</event>
<event>
 7    0  0.4712189E-002  0.4589373E+03  0.7546771E-02  0.1025090E+00
         21   -1    0    0  502  501  0.00000000000E+00  0.00000000000E+00  0.60244685477E+02  0.60244685477E+02  0.00000000000E+00 0.  1.
         21   -1    0    0  501  502 -0.00000000000E+00 -0.00000000000E+00 -0.87403315332E+03  0.87403315332E+03  0.00000000000E+00 0.  1.
      99926    2    1    2    0    0 -0.35527136788E-14 -0.88817841970E-15 -0.81378846784E+03  0.93427783880E+03  0.45893726115E+03 0.  0.
      99925    2    3    3    0    0 -0.26477081775E+02 -0.42219686798E+01 -0.27870818055E+03  0.38411669620E+03  0.26296107224E+03 0.  0.
         25    1    4    4    0    0 -0.18070378368E+02 -0.16239601840E+02 -0.85396280813E+02  0.15339588038E+03  0.12509000000E+03 0.  0.
         25    1    3    3    0    0  0.26477081775E+02  0.42219686798E+01 -0.53508028729E+03  0.55016114260E+03  0.12509000000E+03 0.  0.
         25    1    4    4    0    0 -0.84067034070E+01  0.12017633161E+02 -0.19331189974E+03  0.23072081582E+03  0.12509000000E+03 0.  0.
<mgrwt>
<rscale>  2 0.45893726E+03</rscale>
<asrwt>0</asrwt>
<pdfrwt beam="1">  1       21 0.88595122E-02 0.45893726E+03</pdfrwt>
<pdfrwt beam="2">  1       21 0.12853429E+00 0.45893726E+03</pdfrwt>
<totfact> 0.40521792E+04</totfact>
</mgrwt>
</event>
<event>
 7    0  0.4712189E-002  0.4568340E+03  0.7546771E-02  0.1025703E+00
         21   -1    0    0  502  501  0.00000000000E+00  0.00000000000E+00  0.13682400712E+04  0.13682400712E+04  0.00000000000E+00 0.  1.
         21   -1    0    0  501  502 -0.00000000000E+00 -0.00000000000E+00 -0.38132438473E+02  0.38132438473E+02  0.00000000000E+00 0.  1.
      99926    2    1    2    0    0  0.14210854715E-13  0.00000000000E+00  0.13301076327E+04  0.14063725096E+04  0.45683401944E+03 0.  0.
      99925    2    3    3    0    0 -0.92268647849E+02 -0.55476773427E+02  0.70772212509E+03  0.76247624164E+03  0.26250378466E+03 0.  0.
         25    1    4    4    0    0 -0.46821512444E+02 -0.68130367875E+02  0.36423645350E+03  0.39389047109E+03  0.12509000000E+03 0.  0.
         25    1    4    4    0    0 -0.45447135405E+02  0.12653594448E+02  0.34348567159E+03  0.36858577056E+03  0.12509000000E+03 0.  0.
         25    1    3    3    0    0  0.92268647849E+02  0.55476773427E+02  0.62238550761E+03  0.64389626800E+03  0.12509000000E+03 0.  0.
<mgrwt>
<rscale>  2 0.45683402E+03</rscale>
<asrwt>0</asrwt>
<pdfrwt beam="1">  1       21 0.20121174E+00 0.45683402E+03</pdfrwt>
<pdfrwt beam="2">  1       21 0.56077124E-02 0.45683402E+03</pdfrwt>
<totfact> 0.25793117E+04</totfact>
</mgrwt>
</event>
<event>
 7    0  0.4712189E-002  0.4524355E+03  0.7546771E-02  0.1026998E+00
         21   -1    0    0  502  501  0.00000000000E+00  0.00000000000E+00  0.45205007174E+03  0.45205007174E+03  0.00000000000E+00 0. -1.
         21   -1    0    0  501  502 -0.00000000000E+00 -0.00000000000E+00 -0.11320529640E+03  0.11320529640E+03  0.00000000000E+00 0. -1.
      99926    2    1    2    0    0  0.00000000000E+00  0.00000000000E+00  0.33884477535E+03  0.56525536814E+03  0.45243546439E+03 0.  0.
      99925    2    3    3    0    0 -0.96304768826E+02  0.77356036254E+01  0.14600089975E+03  0.31591480482E+03  0.26296663879E+03 0.  0.
         25    1    4    4    0    0 -0.19611612397E+02 -0.18812997996E+02  0.44442882594E+02  0.13550358721E+03  0.12509000000E+03 0.  0.
         25    1    4    4    0    0 -0.76693156429E+02  0.26548601622E+02  0.10155801715E+03  0.18041121761E+03  0.12509000000E+03 0.  0.
         25    1    3    3    0    0  0.96304768826E+02 -0.77356036254E+01  0.19284387560E+03  0.24934056332E+03  0.12509000000E+03 0.  0.
<mgrwt>
<rscale>  2 0.45243546E+03</rscale>
<asrwt>0</asrwt>
<pdfrwt beam="1">  1       21 0.66477951E-01 0.45243546E+03</pdfrwt>
<pdfrwt beam="2">  1       21 0.16647838E-01 0.45243546E+03</pdfrwt>
<totfact> 0.62119920E+04</totfact>
</mgrwt>
</event>
<event>
 7    0  0.4712189E-002  0.4558956E+03  0.7546771E-02  0.1025978E+00
         21   -1    0    0  502  501  0.00000000000E+00  0.00000000000E+00  0.56313786864E+02  0.56313786864E+02  0.00000000000E+00 0.  1.
         21   -1    0    0  501  502 -0.00000000000E+00 -0.00000000000E+00 -0.92269053748E+03  0.92269053748E+03  0.00000000000E+00 0.  1.
      99926    2    1    2    0    0  0.00000000000E+00  0.00000000000E+00 -0.86637675062E+03  0.97900432435E+03  0.45589559449E+03 0.  0.
      99925    2    3    3    0    0 -0.76152684324E+02  0.30003356404E+02 -0.37459092077E+03  0.46500019667E+03  0.26307297896E+03 0.  0.
         25    1    4    4    0    0 -0.57046779183E+02  0.27765975199E+02 -0.25418159001E+03  0.29031202729E+03  0.12509000000E+03 0.  0.
         25    1    4    4    0    0 -0.19105905141E+02  0.22373812043E+01 -0.12040933077E+03  0.17468816938E+03  0.12509000000E+03 0.  0.
         25    1    3    3    0    0  0.76152684324E+02 -0.30003356404E+02 -0.49178582985E+03  0.51400412767E+03  0.12509000000E+03 0.  0.
<mgrwt>
<rscale>  2 0.45589559E+03</rscale>
<asrwt>0</asrwt>
<pdfrwt beam="1">  1       21 0.82814391E-02 0.45589559E+03</pdfrwt>
<pdfrwt beam="2">  1       21 0.13568979E+00 0.45589559E+03</pdfrwt>
<totfact> 0.39709280E+04</totfact>
</mgrwt>
</event>
<event>
 7    0  0.4712189E-002  0.4581842E+03  0.7546771E-02  0.1025309E+00
         21   -1    0    0  502  501  0.00000000000E+00  0.00000000000E+00  0.46513758680E+02  0.46513758680E+02  0.00000000000E+00 0.  1.
         21   -1    0    0  501  502 -0.00000000000E+00 -0.00000000000E+00 -0.11283370116E+04  0.11283370116E+04  0.00000000000E+00 0.  1.
      99926    2    1    2    0    0 -0.14210854715E-13  0.00000000000E+00 -0.10818232529E+04  0.11748507703E+04  0.45818422262E+03 0.  0.
      99925    2    3    3    0    0  0.77632628199E+02 -0.79368153034E+02 -0.76505954198E+03  0.81664289021E+03  0.26317936596E+03 0.  0.
         25    1    3    3    0    0 -0.77632628199E+02  0.79368153034E+02 -0.31676371091E+03  0.35820788005E+03  0.12509000000E+03 0.  0.
         25    1    4    4    0    0 -0.28042046520E+01 -0.35111866596E+02 -0.37333638811E+03  0.39530782123E+03  0.12509000000E+03 0.  0.
         25    1    4    4    0    0  0.80436832851E+02 -0.44256286438E+02 -0.39172315387E+03  0.42133506898E+03  0.12509000000E+03 0.  0.
<mgrwt>
<rscale>  2 0.45818422E+03</rscale>
<asrwt>0</asrwt>
<pdfrwt beam="1">  1       21 0.68402585E-02 0.45818422E+03</pdfrwt>
<pdfrwt beam="2">  1       21 0.16593192E+00 0.45818422E+03</pdfrwt>
<totfact> 0.32158090E+04</totfact>
</mgrwt>
</event>
<event>
 7    0  0.4712189E-002  0.4619140E+03  0.7546771E-02  0.1024228E+00
         21   -1    0    0  502  501  0.00000000000E+00  0.00000000000E+00  0.33923680399E+02  0.33923680399E+02  0.00000000000E+00 0.  1.
         21   -1    0    0  501  502 -0.00000000000E+00 -0.00000000000E+00 -0.15723861831E+04  0.15723861831E+04  0.00000000000E+00 0.  1.
      99926    2    1    2    0    0  0.00000000000E+00  0.00000000000E+00 -0.15384625027E+04  0.16063098635E+04  0.46191395883E+03 0.  0.
      99925    2    3    3    0    0  0.62591786364E+02 -0.94411523922E+02 -0.10940962057E+04  0.11309782092E+04  0.26312342122E+03 0.  0.
         25    1    3    3    0    0 -0.62591786364E+02  0.94411523922E+02 -0.44436629704E+03  0.47533165434E+03  0.12509000000E+03 0.  0.
         25    1    4    4    0    0  0.30486794705E+02 -0.28751245226E+02 -0.66868091819E+03  0.68157006772E+03  0.12509000000E+03 0.  0.
         25    1    4    4    0    0  0.32104991659E+02 -0.65660278696E+02 -0.42541528751E+03  0.44940814149E+03  0.12509000000E+03 0.  0.
<mgrwt>
<rscale>  2 0.46191396E+03</rscale>
<asrwt>0</asrwt>
<pdfrwt beam="1">  1       21 0.49887755E-02 0.46191396E+03</pdfrwt>
<pdfrwt beam="2">  1       21 0.23123331E+00 0.46191396E+03</pdfrwt>
<totfact> 0.20182153E+04</totfact>
</mgrwt>
</event>
<event>
 7    0  0.4712189E-002  0.4371152E+03  0.7546771E-02  0.1031636E+00
         21   -1    0    0  502  501  0.00000000000E+00  0.00000000000E+00  0.14372149918E+03  0.14372149918E+03  0.00000000000E+00 0.  1.
         21   -1    0    0  501  502 -0.00000000000E+00 -0.00000000000E+00 -0.33236109648E+03  0.33236109648E+03  0.00000000000E+00 0.  1.
      99926    2    1    2    0    0  0.00000000000E+00  0.14210854715E-13 -0.18863959730E+03  0.47608259566E+03  0.43711524822E+03 0.  0.
      99925    2    3    3    0    0  0.11898373859E+02 -0.70562107682E+02 -0.18953920966E+03  0.33196840572E+03  0.26297780905E+03 0.  0.
         25    1    3    3    0    0 -0.11898373859E+02  0.70562107682E+02  0.89961236849E+00  0.14411418994E+03  0.12509000000E+03 0.  0.
         25    1    4    4    0    0 -0.21399604168E+02 -0.26734987892E+02 -0.57257155030E+02  0.14176950497E+03  0.12509000000E+03 0.  0.
         25    1    4    4    0    0  0.33297978027E+02 -0.43827119790E+02 -0.13228205463E+03  0.19019890075E+03  0.12509000000E+03 0.  0.
<mgrwt>
<rscale>  2 0.43711525E+03</rscale>
<asrwt>0</asrwt>
<pdfrwt beam="1">  1       21 0.21135515E-01 0.43711525E+03</pdfrwt>
<pdfrwt beam="2">  1       21 0.48876631E-01 0.43711525E+03</pdfrwt>
<totfact> 0.77405972E+04</totfact>
</mgrwt>
</event>
<event>
 7    0  0.4712189E-002  0.4548739E+03  0.7546771E-02  0.1026278E+00
         21   -1    0    0  502  501  0.00000000000E+00  0.00000000000E+00  0.12836416817E+03  0.12836416817E+03  0.00000000000E+00 0. -1.
         21   -1    0    0  501  502 -0.00000000000E+00 -0.00000000000E+00 -0.40297510736E+03  0.40297510736E+03  0.00000000000E+00 0. -1.
      99926    2    1    2    0    0  0.00000000000E+00 -0.35527136788E-14 -0.27461093919E+03  0.53133927553E+03  0.45487389220E+03 0.  0.
      99925    2    3    3    0    0  0.98688463704E+02 -0.51256620291E+01 -0.10908564133E+03  0.30153105634E+03  0.26316461675E+03 0.  0.
         25    1    3    3    0    0 -0.98688463704E+02  0.51256620291E+01 -0.16552529786E+03  0.22980821920E+03  0.12509000000E+03 0.  0.
         25    1    4    4    0    0  0.52718152610E+02  0.30976950865E+02 -0.30060912357E+02  0.14244276623E+03  0.12509000000E+03 0.  0.
         25    1    4    4    0    0  0.45970311093E+02 -0.36102612894E+02 -0.79024728970E+02  0.15908829011E+03  0.12509000000E+03 0.  0.
<mgrwt>
<rscale>  2 0.45487389E+03</rscale>
<asrwt>0</asrwt>
<pdfrwt beam="1">  1       21 0.18877084E-01 0.45487389E+03</pdfrwt>
<pdfrwt beam="2">  1       21 0.59261045E-01 0.45487389E+03</pdfrwt>
<totfact> 0.63179063E+04</totfact>
</mgrwt>
</event>
<event>
 7    0  0.4712189E-002  0.4529610E+03  0.7546771E-02  0.1026843E+00
         21   -1    0    0  502  501  0.00000000000E+00  0.00000000000E+00  0.21220656373E+03  0.21220656373E+03  0.00000000000E+00 0.  1.
         21   -1    0    0  501  502 -0.00000000000E+00 -0.00000000000E+00 -0.24171451614E+03  0.24171451614E+03  0.00000000000E+00 0.  1.
      99926    2    1    2    0    0  0.00000000000E+00  0.35527136788E-14 -0.29507952410E+02  0.45392107986E+03  0.45296095581E+03 0.  0.
      99925    2    3    3    0    0 -0.87346574540E+02  0.24859864395E+02  0.45788495390E+02  0.28197777498E+03  0.26299703864E+03 0.  0.
         25    1    4    4    0    0 -0.19154694599E+02  0.28820218561E+02 -0.70351675173E+01  0.12997887907E+03  0.12509000000E+03 0.  0.
         25    1    4    4    0    0 -0.68191879940E+02 -0.39603541658E+01  0.52823662907E+02  0.15199889591E+03  0.12509000000E+03 0.  0.
         25    1    3    3    0    0  0.87346574540E+02 -0.24859864395E+02 -0.75296447800E+02  0.17194330488E+03  0.12509000000E+03 0.  0.
<mgrwt>
<rscale>  2 0.45296096E+03</rscale>
<asrwt>0</asrwt>
<pdfrwt beam="1">  1       21 0.31206848E-01 0.45296096E+03</pdfrwt>
<pdfrwt beam="2">  1       21 0.35546252E-01 0.45296096E+03</pdfrwt>
<totfact> 0.69752869E+04</totfact>
</mgrwt>
</event>
<event>
 7    0  0.4712189E-002  0.4361205E+03  0.7546771E-02  0.1031944E+00
         21   -1    0    0  502  501  0.00000000000E+00  0.00000000000E+00  0.79866448291E+03  0.79866448291E+03  0.00000000000E+00 0.  1.
         21   -1    0    0  501  502 -0.00000000000E+00 -0.00000000000E+00 -0.59537220623E+02  0.59537220623E+02  0.00000000000E+00 0.  1.
      99926    2    1    2    0    0  0.00000000000E+00 -0.35527136788E-14  0.73912726228E+03  0.85820170353E+03  0.43612045823E+03 0.  0.
      99925    2    3    3    0    0 -0.83279921818E+02  0.23028079527E+02  0.54807705756E+03  0.61404288913E+03  0.26304822912E+03 0.  0.
         25    1    4    4    0    0 -0.33912785658E+02 -0.12383387371E+02  0.19402137022E+03  0.23365621224E+03  0.12509000000E+03 0.  0.
         25    1    3    3    0    0  0.83279921818E+02 -0.23028079527E+02  0.19105020472E+03  0.24415881440E+03  0.12509000000E+03 0.  0.
         25    1    4    4    0    0 -0.49367136159E+02  0.35411466898E+02  0.35405568734E+03  0.38038667689E+03  0.12509000000E+03 0.  0.
<mgrwt>
<rscale>  2 0.43612046E+03</rscale>
<asrwt>0</asrwt>
<pdfrwt beam="1">  1       21 0.11745065E+00 0.43612046E+03</pdfrwt>
<pdfrwt beam="2">  1       21 0.87554741E-02 0.43612046E+03</pdfrwt>
<totfact> 0.52414891E+04</totfact>
</mgrwt>
</event>
<event>
 7    0  0.4712189E-002  0.4591591E+03  0.7546771E-02  0.1025025E+00
         21   -1    0    0  502  501  0.00000000000E+00  0.00000000000E+00  0.16886773909E+03  0.16886773909E+03  0.00000000000E+00 0.  1.
         21   -1    0    0  501  502 -0.00000000000E+00 -0.00000000000E+00 -0.31211864437E+03  0.31211864437E+03  0.00000000000E+00 0.  1.
      99926    2    1    2    0    0  0.00000000000E+00  0.00000000000E+00 -0.14325090528E+03  0.48098638346E+03  0.45915910010E+03 0.  0.
      99925    2    3    3    0    0 -0.38871970413E+02  0.58745178983E+02  0.80941101151E+01  0.27238425518E+03  0.26299361535E+03 0.  0.
         25    1    4    4    0    0 -0.40808552725E+02 -0.49100653647E+01 -0.16252856725E+01  0.13167990117E+03  0.12509000000E+03 0.  0.
         25    1    4    4    0    0  0.19365823113E+01  0.63655244348E+02  0.97193957876E+01  0.14070435401E+03  0.12509000000E+03 0.  0.
         25    1    3    3    0    0  0.38871970413E+02 -0.58745178983E+02 -0.15134501539E+03  0.20860212828E+03  0.12509000000E+03 0.  0.
<mgrwt>
<rscale>  2 0.45915910E+03</rscale>
<asrwt>0</asrwt>
<pdfrwt beam="1">  1       21 0.24833491E-01 0.45915910E+03</pdfrwt>
<pdfrwt beam="2">  1       21 0.45899800E-01 0.45915910E+03</pdfrwt>
<totfact> 0.64473598E+04</totfact>
</mgrwt>
</event>
<event>
 7    0  0.4712189E-002  0.4548024E+03  0.7546771E-02  0.1026300E+00
         21   -1    0    0  502  501  0.00000000000E+00  0.00000000000E+00  0.27911178810E+03  0.27911178810E+03  0.00000000000E+00 0.  1.
         21   -1    0    0  501  502 -0.00000000000E+00 -0.00000000000E+00 -0.18527095067E+03  0.18527095067E+03  0.00000000000E+00 0.  1.
      99926    2    1    2    0    0  0.00000000000E+00  0.00000000000E+00  0.93840837433E+02  0.46438273877E+03  0.45480240248E+03 0.  0.
      99925    2    3    3    0    0  0.17038173264E+02 -0.11150918440E+03  0.64684195652E+02  0.29343767329E+03  0.26305327481E+03 0.  0.
         25    1    3    3    0    0 -0.17038173264E+02  0.11150918440E+03  0.29156641781E+02  0.17094506548E+03  0.12509000000E+03 0.  0.
         25    1    4    4    0    0  0.69205180629E+01 -0.31448724757E+02 -0.45847743319E+01  0.12924954203E+03  0.12509000000E+03 0.  0.
         25    1    4    4    0    0  0.10117655201E+02 -0.80060459639E+02  0.69268969983E+02  0.16418813126E+03  0.12509000000E+03 0.  0.
<mgrwt>
<rscale>  2 0.45480240E+03</rscale>
<asrwt>0</asrwt>
<pdfrwt beam="1">  1       21 0.41045851E-01 0.45480240E+03</pdfrwt>
<pdfrwt beam="2">  1       21 0.27245728E-01 0.45480240E+03</pdfrwt>
<totfact> 0.67962814E+04</totfact>
</mgrwt>
</event>
<event>
 7    0  0.4712189E-002  0.4534054E+03  0.7546771E-02  0.1026711E+00
         21   -1    0    0  502  501  0.00000000000E+00  0.00000000000E+00  0.24465363959E+03  0.24465363959E+03  0.00000000000E+00 0. -1.
         21   -1    0    0  501  502 -0.00000000000E+00 -0.00000000000E+00 -0.21006883778E+03  0.21006883778E+03  0.00000000000E+00 0. -1.
      99926    2    1    2    0    0  0.00000000000E+00  0.00000000000E+00  0.34584801808E+02  0.45472247737E+03  0.45340536269E+03 0.  0.
      99925    2    3    3    0    0 -0.79557477278E+02  0.71824709604E+02  0.52803259555E+02  0.28898895209E+03  0.26313161936E+03 0.  0.
         25    1    4    4    0    0 -0.82003080797E+02  0.43084053971E+02  0.25175060050E+02  0.15767698854E+03  0.12509000000E+03 0.  0.
         25    1    4    4    0    0  0.24456035196E+01  0.28740655633E+02  0.27628199505E+02  0.13131196355E+03  0.12509000000E+03 0.  0.
         25    1    3    3    0    0  0.79557477278E+02 -0.71824709604E+02 -0.18218457747E+02  0.16573352528E+03  0.12509000000E+03 0.  0.
<mgrwt>
<rscale>  2 0.45340536E+03</rscale>
<asrwt>0</asrwt>
<pdfrwt beam="1">  1       21 0.35978477E-01 0.45340536E+03</pdfrwt>
<pdfrwt beam="2">  1       21 0.30892476E-01 0.45340536E+03</pdfrwt>
<totfact> 0.69445534E+04</totfact>
</mgrwt>
</event>
<event>
 7    0  0.4712189E-002  0.4587808E+03  0.7546771E-02  0.1025135E+00
         21   -1    0    0  502  501  0.00000000000E+00  0.00000000000E+00  0.28755178933E+02  0.28755178933E+02  0.00000000000E+00 0.  1.
         21   -1    0    0  501  502 -0.00000000000E+00 -0.00000000000E+00 -0.18299297264E+04  0.18299297264E+04  0.00000000000E+00 0.  1.
      99926    2    1    2    0    0  0.00000000000E+00  0.00000000000E+00 -0.18011745475E+04  0.18586849054E+04  0.45878080482E+03 0.  0.
      99925    2    3    3    0    0  0.94310303567E+02  0.67026279796E+02 -0.11921561511E+04  0.12262784927E+04  0.26293667961E+03 0.  0.
         25    1    4    4    0    0  0.29138890483E+02  0.78889958459E+01 -0.66720916409E+03  0.67950488441E+03  0.12509000000E+03 0.  0.
         25    1    3    3    0    0 -0.94310303567E+02 -0.67026279796E+02 -0.60901839644E+03  0.63240641272E+03  0.12509000000E+03 0.  0.
         25    1    4    4    0    0  0.65171413084E+02  0.59137283950E+02 -0.52494698697E+03  0.54677360824E+03  0.12509000000E+03 0.  0.
<mgrwt>
<rscale>  2 0.45878080E+03</rscale>
<asrwt>0</asrwt>
<pdfrwt beam="1">  1       21 0.42287013E-02 0.45878080E+03</pdfrwt>
<pdfrwt beam="2">  1       21 0.26910741E+00 0.45878080E+03</pdfrwt>
<totfact> 0.15691923E+04</totfact>
</mgrwt>
</event>
<event>
 7    0  0.4712189E-002  0.4578684E+03  0.7546771E-02  0.1025401E+00
         21   -1    0    0  502  501  0.00000000000E+00  0.00000000000E+00  0.49402530456E+02  0.49402530456E+02  0.00000000000E+00 0. -1.
         21   -1    0    0  501  502 -0.00000000000E+00 -0.00000000000E+00 -0.10608944458E+04  0.10608944458E+04  0.00000000000E+00 0. -1.
      99926    2    1    2    0    0 -0.71054273576E-14  0.00000000000E+00 -0.10114919154E+04  0.11102969763E+04  0.45786840979E+03 0.  0.
      99925    2    3    3    0    0 -0.32610750214E+02  0.10478137811E+03 -0.54446984659E+03  0.61451504937E+03  0.26294245345E+03 0.  0.
         25    1    3    3    0    0  0.32610750214E+02 -0.10478137811E+03 -0.46702206879E+03  0.49578192692E+03  0.12509000000E+03 0.  0.
         25    1    4    4    0    0  0.16942388838E+02  0.73509193576E+02 -0.30152881689E+03  0.33504892418E+03  0.12509000000E+03 0.  0.
         25    1    4    4    0    0 -0.49553139052E+02  0.31272184531E+02 -0.24294102970E+03  0.27946612519E+03  0.12509000000E+03 0.  0.
<mgrwt>
<rscale>  2 0.45786841E+03</rscale>
<asrwt>0</asrwt>
<pdfrwt beam="1">  1       21 0.72650787E-02 0.45786841E+03</pdfrwt>
<pdfrwt beam="2">  1       21 0.15601387E+00 0.45786841E+03</pdfrwt>
<totfact> 0.34360922E+04</totfact>
</mgrwt>
</event>
<event>
 7    0  0.4712189E-002  0.4590612E+03  0.7546771E-02  0.1025054E+00
         21   -1    0    0  502  501  0.00000000000E+00  0.00000000000E+00  0.39311620445E+03  0.39311620445E+03  0.00000000000E+00 0. -1.
         21   -1    0    0  501  502 -0.00000000000E+00 -0.00000000000E+00 -0.13401708128E+03  0.13401708128E+03  0.00000000000E+00 0. -1.
      99926    2    1    2    0    0  0.00000000000E+00  0.00000000000E+00  0.25909912318E+03  0.52713328573E+03  0.45906115638E+03 0.  0.
      99925    2    3    3    0    0 -0.80472518835E+02  0.83238898189E+02  0.14333773535E+03  0.32109264054E+03  0.26296432643E+03 0.  0.
         25    1    4    4    0    0 -0.49748929340E+02  0.50215934646E+02  0.30926469535E+02  0.14697125801E+03  0.12509000000E+03 0.  0.
         25    1    3    3    0    0  0.80472518835E+02 -0.83238898189E+02  0.11576138782E+03  0.20604064519E+03  0.12509000000E+03 0.  0.
         25    1    4    4    0    0 -0.30723589494E+02  0.33022963543E+02  0.11241126582E+03  0.17412138253E+03  0.12509000000E+03 0.  0.
<mgrwt>
<rscale>  2 0.45906116E+03</rscale>
<asrwt>0</asrwt>
<pdfrwt beam="1">  1       21 0.57811206E-01 0.45906116E+03</pdfrwt>
<pdfrwt beam="2">  1       21 0.19708394E-01 0.45906116E+03</pdfrwt>
<totfact> 0.61400332E+04</totfact>
</mgrwt>
</event>
<event>
 7    0  0.4712189E-002  0.4498102E+03  0.7546771E-02  0.1027779E+00
         21   -1    0    0  502  501  0.00000000000E+00  0.00000000000E+00  0.45663890426E+03  0.45663890426E+03  0.00000000000E+00 0.  1.
         21   -1    0    0  501  502 -0.00000000000E+00 -0.00000000000E+00 -0.11077088439E+03  0.11077088439E+03  0.00000000000E+00 0.  1.
      99926    2    1    2    0    0 -0.71054273576E-14 -0.22204460493E-14  0.34586801987E+03  0.56740978865E+03  0.44981016116E+03 0.  0.
      99925    2    3    3    0    0  0.50266591320E+02 -0.32099688608E+01  0.97863577851E+02  0.28511429547E+03  0.26301301776E+03 0.  0.
         25    1    3    3    0    0 -0.50266591320E+02  0.32099688608E+01  0.24800444202E+03  0.28229549317E+03  0.12509000000E+03 0.  0.
         25    1    4    4    0    0  0.61045126782E+02  0.18357710760E+02  0.52101677640E+02  0.14975181455E+03  0.12509000000E+03 0.  0.
         25    1    4    4    0    0 -0.10778535462E+02 -0.21567679621E+02  0.45761900211E+02  0.13536248092E+03  0.12509000000E+03 0.  0.
<mgrwt>
<rscale>  2 0.44981016E+03</rscale>
<asrwt>0</asrwt>
<pdfrwt beam="1">  1       21 0.67152780E-01 0.44981016E+03</pdfrwt>
<pdfrwt beam="2">  1       21 0.16289836E-01 0.44981016E+03</pdfrwt>
<totfact> 0.63288303E+04</totfact>
</mgrwt>
</event>
<event>
 7    0  0.4712189E-002  0.4542189E+03  0.7546771E-02  0.1026471E+00
         21   -1    0    0  502  501  0.00000000000E+00  0.00000000000E+00  0.33434631872E+02  0.33434631872E+02  0.00000000000E+00 0.  1.
         21   -1    0    0  501  502 -0.00000000000E+00 -0.00000000000E+00 -0.15426726677E+04  0.15426726677E+04  0.00000000000E+00 0.  1.
      99926    2    1    2    0    0  0.00000000000E+00  0.00000000000E+00 -0.15092380358E+04  0.15761072996E+04  0.45421885801E+03 0.  0.
      99925    2    3    3    0    0 -0.13647937321E+01 -0.81048644203E+02 -0.12205157429E+04  0.12511783598E+04  0.26309288073E+03 0.  0.
         25    1    4    4    0    0 -0.21923324826E+01 -0.23399500175E+02 -0.41869346245E+03  0.43761177604E+03  0.12509000000E+03 0.  0.
         25    1    3    3    0    0  0.13647937321E+01  0.81048644203E+02 -0.28872229290E+03  0.32492893978E+03  0.12509000000E+03 0.  0.
         25    1    4    4    0    0  0.82753875043E+00 -0.57649144027E+02 -0.80182228050E+03  0.81356658377E+03  0.12509000000E+03 0.  0.
<mgrwt>
<rscale>  2 0.45421886E+03</rscale>
<asrwt>0</asrwt>
<pdfrwt beam="1">  1       21 0.49168582E-02 0.45421886E+03</pdfrwt>
<pdfrwt beam="2">  1       21 0.22686360E+00 0.45421886E+03</pdfrwt>
<totfact> 0.22107775E+04</totfact>
</mgrwt>
</event>
<event>
 7    0  0.4712189E-002  0.4499041E+03  0.7546771E-02  0.1027751E+00
         21   -1    0    0  502  501  0.00000000000E+00  0.00000000000E+00  0.83389061605E+02  0.83389061605E+02  0.00000000000E+00 0.  1.
         21   -1    0    0  501  502 -0.00000000000E+00 -0.00000000000E+00 -0.60683520358E+03  0.60683520358E+03  0.00000000000E+00 0.  1.
      99926    2    1    2    0    0  0.35527136788E-14  0.00000000000E+00 -0.52344614198E+03  0.69022426519E+03  0.44990407056E+03 0.  0.
      99925    2    3    3    0    0  0.24519130166E+02 -0.84067251969E+02 -0.23170223264E+03  0.36093638607E+03  0.26252744539E+03 0.  0.
         25    1    4    4    0    0  0.19365094405E+02 -0.22958086154E+01 -0.11822396245E+03  0.17321862202E+03  0.12509000000E+03 0.  0.
         25    1    3    3    0    0 -0.24519130166E+02  0.84067251969E+02 -0.29174390934E+03  0.32928787912E+03  0.12509000000E+03 0.  0.
         25    1    4    4    0    0  0.51540357609E+01 -0.81771443354E+02 -0.11347827019E+03  0.18771776404E+03  0.12509000000E+03 0.  0.
<mgrwt>
<rscale>  2 0.44990407E+03</rscale>
<asrwt>0</asrwt>
<pdfrwt beam="1">  1       21 0.12263097E-01 0.44990407E+03</pdfrwt>
<pdfrwt beam="2">  1       21 0.89240471E-01 0.44990407E+03</pdfrwt>
<totfact> 0.55635439E+04</totfact>
</mgrwt>
</event>
<event>
 7    0  0.4712189E-002  0.4500632E+03  0.7546771E-02  0.1027703E+00
         21   -1    0    0  502  501  0.00000000000E+00  0.00000000000E+00  0.52913645692E+02  0.52913645692E+02  0.00000000000E+00 0.  1.
         21   -1    0    0  501  502 -0.00000000000E+00 -0.00000000000E+00 -0.95701608043E+03  0.95701608043E+03  0.00000000000E+00 0.  1.
      99926    2    1    2    0    0  0.00000000000E+00  0.00000000000E+00 -0.90410243474E+03  0.10099297261E+04  0.45006315024E+03 0.  0.
      99925    2    3    3    0    0 -0.50289408837E+02  0.63898087946E+02 -0.73253968876E+03  0.78256817662E+03  0.26303339173E+03 0.  0.
         25    1    4    4    0    0 -0.12716882707E+02  0.65791466546E+02 -0.43657861596E+03  0.45906277587E+03  0.12509000000E+03 0.  0.
         25    1    4    4    0    0 -0.37572526130E+02 -0.18933785994E+01 -0.29596107280E+03  0.32350540075E+03  0.12509000000E+03 0.  0.
         25    1    3    3    0    0  0.50289408837E+02 -0.63898087946E+02 -0.17156274598E+03  0.22736154950E+03  0.12509000000E+03 0.  0.
<mgrwt>
<rscale>  2 0.45006315E+03</rscale>
<asrwt>0</asrwt>
<pdfrwt beam="1">  1       21 0.77814197E-02 0.45006315E+03</pdfrwt>
<pdfrwt beam="2">  1       21 0.14073764E+00 0.45006315E+03</pdfrwt>
<totfact> 0.40314644E+04</totfact>
</mgrwt>
</event>
<event>
 7    0  0.4712189E-002  0.4526099E+03  0.7546771E-02  0.1026947E+00
         21   -1    0    0  502  501  0.00000000000E+00  0.00000000000E+00  0.10982501963E+03  0.10982501963E+03  0.00000000000E+00 0.  1.
         21   -1    0    0  501  502 -0.00000000000E+00 -0.00000000000E+00 -0.46632290893E+03  0.46632290893E+03  0.00000000000E+00 0.  1.
      99926    2    1    2    0    0 -0.35527136788E-14  0.00000000000E+00 -0.35649788930E+03  0.57614792856E+03  0.45260986568E+03 0.  0.
      99925    2    3    3    0    0  0.23184867462E+02  0.86735457808E+02 -0.30776036965E+03  0.41464427026E+03  0.26296929101E+03 0.  0.
         25    1    3    3    0    0 -0.23184867462E+02 -0.86735457808E+02 -0.48737519646E+02  0.16150365829E+03  0.12509000000E+03 0.  0.
         25    1    4    4    0    0  0.37555736351E+02  0.51182441103E+02 -0.20440783249E+03  0.24791156829E+03  0.12509000000E+03 0.  0.
         25    1    4    4    0    0 -0.14370868889E+02  0.35553016705E+02 -0.10335253716E+03  0.16673270197E+03  0.12509000000E+03 0.  0.
<mgrwt>
<rscale>  2 0.45260987E+03</rscale>
<asrwt>0</asrwt>
<pdfrwt beam="1">  1       21 0.16150738E-01 0.45260987E+03</pdfrwt>
<pdfrwt beam="2">  1       21 0.68576898E-01 0.45260987E+03</pdfrwt>
<totfact> 0.61321619E+04</totfact>
</mgrwt>
</event>
<event>
 7    0  0.4712189E-002  0.4611385E+03  0.7546771E-02  0.1024452E+00
         21   -1    0    0  502  501  0.00000000000E+00  0.00000000000E+00  0.12924901350E+03  0.12924901350E+03  0.00000000000E+00 0. -1.
         21   -1    0    0  501  502 -0.00000000000E+00 -0.00000000000E+00 -0.41131597952E+03  0.41131597952E+03  0.00000000000E+00 0. -1.
      99926    2    1    2    0    0  0.71054273576E-14  0.00000000000E+00 -0.28206696602E+03  0.54056499302E+03  0.46113852405E+03 0.  0.
      99925    2    3    3    0    0 -0.53474188309E+02  0.92362923861E+02 -0.11414393528E+03  0.30554148171E+03  0.26255734719E+03 0.  0.
         25    1    4    4    0    0 -0.13522206686E+02  0.72207777252E+02 -0.89406991509E+02  0.17040519769E+03  0.12509000000E+03 0.  0.
         25    1    4    4    0    0 -0.39951981623E+02  0.20155146609E+02 -0.24736943775E+02  0.13513628402E+03  0.12509000000E+03 0.  0.
         25    1    3    3    0    0  0.53474188309E+02 -0.92362923861E+02 -0.16792303074E+03  0.23502351132E+03  0.12509000000E+03 0.  0.
<mgrwt>
<rscale>  2 0.46113852E+03</rscale>
<asrwt>0</asrwt>
<pdfrwt beam="1">  1       21 0.19007208E-01 0.46113852E+03</pdfrwt>
<pdfrwt beam="2">  1       21 0.60487644E-01 0.46113852E+03</pdfrwt>
<totfact> 0.59547019E+04</totfact>
</mgrwt>
</event>
<event>
 7    0  0.4712189E-002  0.4446795E+03  0.7546771E-02  0.1029321E+00
         21   -1    0    0  502  501  0.00000000000E+00  0.00000000000E+00  0.62291832170E+03  0.62291832170E+03  0.00000000000E+00 0.  1.
         21   -1    0    0  501  502 -0.00000000000E+00 -0.00000000000E+00 -0.79360271318E+02  0.79360271318E+02  0.00000000000E+00 0.  1.
      99926    2    1    2    0    0  0.00000000000E+00  0.00000000000E+00  0.54355805039E+03  0.70227859302E+03  0.44467951165E+03 0.  0.
      99925    2    3    3    0    0  0.38595250423E+02 -0.71109931246E+02  0.44656539675E+03  0.52451105201E+03  0.26295432005E+03 0.  0.
         25    1    4    4    0    0  0.56618469281E+02 -0.53443858324E+02  0.24844550505E+03  0.28885043558E+03  0.12509000000E+03 0.  0.
         25    1    4    4    0    0 -0.18023218858E+02 -0.17666072922E+02  0.19811989170E+03  0.23566061643E+03  0.12509000000E+03 0.  0.
         25    1    3    3    0    0 -0.38595250423E+02  0.71109931246E+02  0.96992653639E+02  0.17776754101E+03  0.12509000000E+03 0.  0.
<mgrwt>
<rscale>  2 0.44467951E+03</rscale>
<asrwt>0</asrwt>
<pdfrwt beam="1">  1       21 0.91605633E-01 0.44467951E+03</pdfrwt>
<pdfrwt beam="2">  1       21 0.11670628E-01 0.44467951E+03</pdfrwt>
<totfact> 0.57292480E+04</totfact>
</mgrwt>
</event>
<event>
 7    0  0.4712189E-002  0.4207743E+03  0.7546771E-02  0.1036815E+00
         21   -1    0    0  502  501  0.00000000000E+00  0.00000000000E+00  0.52678743959E+03  0.52678743959E+03  0.00000000000E+00 0. -1.
         21   -1    0    0  501  502 -0.00000000000E+00 -0.00000000000E+00 -0.84023927817E+02  0.84023927817E+02  0.00000000000E+00 0. -1.
      99926    2    1    2    0    0  0.00000000000E+00 -0.14210854715E-13  0.44276351178E+03  0.61081136741E+03  0.42077428533E+03 0.  0.
      99925    2    3    3    0    0  0.32778666975E+02  0.68826331431E+02  0.30087573950E+03  0.40687227619E+03  0.26307286748E+03 0.  0.
         25    1    4    4    0    0  0.68361948189E+01  0.71700029780E+02  0.18250834476E+03  0.23268956108E+03  0.12509000000E+03 0.  0.
         25    1    4    4    0    0  0.25942472156E+02 -0.28736983499E+01  0.11836739474E+03  0.17418271510E+03  0.12509000000E+03 0.  0.
         25    1    3    3    0    0 -0.32778666975E+02 -0.68826331431E+02  0.14188777228E+03  0.20393909122E+03  0.12509000000E+03 0.  0.
<mgrwt>
<rscale>  2 0.42077429E+03</rscale>
<asrwt>0</asrwt>
<pdfrwt beam="1">  1       21 0.77468739E-01 0.42077429E+03</pdfrwt>
<pdfrwt beam="2">  1       21 0.12356460E-01 0.42077429E+03</pdfrwt>
<totfact> 0.76748846E+04</totfact>
</mgrwt>
</event>
<event>
 7    0  0.4712189E-002  0.4505985E+03  0.7546771E-02  0.1027544E+00
         21   -1    0    0  502  501  0.00000000000E+00  0.00000000000E+00  0.12793434305E+03  0.12793434305E+03  0.00000000000E+00 0. -1.
         21   -1    0    0  501  502 -0.00000000000E+00 -0.00000000000E+00 -0.39676407532E+03  0.39676407532E+03  0.00000000000E+00 0. -1.
      99926    2    1    2    0    0  0.14210854715E-13  0.71054273576E-14 -0.26882973227E+03  0.52469841837E+03  0.45059849677E+03 0.  0.
      99925    2    3    3    0    0 -0.82019833978E+02 -0.53949062088E+02 -0.22517008208E+03  0.35980018424E+03  0.26290084110E+03 0.  0.
         25    1    4    4    0    0 -0.76453724216E+02 -0.35991633390E+02 -0.14919242244E+03  0.21224150545E+03  0.12509000000E+03 0.  0.
         25    1    3    3    0    0  0.82019833978E+02  0.53949062088E+02 -0.43659650189E+02  0.16489823413E+03  0.12509000000E+03 0.  0.
         25    1    4    4    0    0 -0.55661097626E+01 -0.17957428698E+02 -0.75977659635E+02  0.14755867879E+03  0.12509000000E+03 0.  0.
<mgrwt>
<rscale>  2 0.45059850E+03</rscale>
<asrwt>0</asrwt>
<pdfrwt beam="1">  1       21 0.18813874E-01 0.45059850E+03</pdfrwt>
<pdfrwt beam="2">  1       21 0.58347658E-01 0.45059850E+03</pdfrwt>
<totfact> 0.65833933E+04</totfact>
</mgrwt>
</event>
<event>
 7    0  0.4712189E-002  0.4468220E+03  0.7546771E-02  0.1028674E+00
         21   -1    0    0  502  501  0.00000000000E+00  0.00000000000E+00  0.83674174076E+03  0.83674174076E+03  0.00000000000E+00 0.  1.
         21   -1    0    0  501  502 -0.00000000000E+00 -0.00000000000E+00 -0.59650988756E+02  0.59650988756E+02  0.00000000000E+00 0.  1.
      99926    2    1    2    0    0  0.00000000000E+00  0.00000000000E+00  0.77709075200E+03  0.89639272952E+03  0.44682198769E+03 0.  0.
      99925    2    3    3    0    0  0.17835917375E+02  0.66535283690E+02  0.33335706167E+03  0.43024665803E+03  0.26313531169E+03 0.  0.
         25    1    4    4    0    0  0.37842898055E+02  0.26438282111E+02  0.12279894308E+03  0.18126818865E+03  0.12509000000E+03 0.  0.
         25    1    3    3    0    0 -0.17835917375E+02 -0.66535283690E+02  0.44373369033E+03  0.46614607148E+03  0.12509000000E+03 0.  0.
         25    1    4    4    0    0 -0.20006980680E+02  0.40097001579E+02  0.21055811860E+03  0.24897846939E+03  0.12509000000E+03 0.  0.
<mgrwt>
<rscale>  2 0.44682199E+03</rscale>
<asrwt>0</asrwt>
<pdfrwt beam="1">  1       21 0.12305025E+00 0.44682199E+03</pdfrwt>
<pdfrwt beam="2">  1       21 0.87722047E-02 0.44682199E+03</pdfrwt>
<totfact> 0.46282520E+04</totfact>
</mgrwt>
</event>
<event>
 7    0  0.4712189E-002  0.4558932E+03  0.7546771E-02  0.1025979E+00
         21   -1    0    0  502  501  0.00000000000E+00  0.00000000000E+00  0.76183677304E+03  0.76183677304E+03  0.00000000000E+00 0.  1.
         21   -1    0    0  501  502 -0.00000000000E+00 -0.00000000000E+00 -0.68203127177E+02  0.68203127177E+02  0.00000000000E+00 0.  1.
      99926    2    1    2    0    0 -0.35527136788E-14 -0.71054273576E-14  0.69363364586E+03  0.83003990022E+03  0.45589319065E+03 0.  0.
      99925    2    3    3    0    0 -0.31477601113E+02 -0.58153498691E+02  0.26720646861E+03  0.38075122422E+03  0.26305803370E+03 0.  0.
         25    1    4    4    0    0 -0.34880389727E+02  0.71777641240E+01  0.12595834512E+03  0.18105572261E+03  0.12509000000E+03 0.  0.
         25    1    3    3    0    0  0.31477601113E+02  0.58153498691E+02  0.42642717725E+03  0.44928867600E+03  0.12509000000E+03 0.  0.
         25    1    4    4    0    0  0.34027886144E+01 -0.65331262815E+02  0.14124812349E+03  0.19969550160E+03  0.12509000000E+03 0.  0.
<mgrwt>
<rscale>  2 0.45589319E+03</rscale>
<asrwt>0</asrwt>
<pdfrwt beam="1">  1       21 0.11203481E+00 0.45589319E+03</pdfrwt>
<pdfrwt beam="2">  1       21 0.10029872E-01 0.45589319E+03</pdfrwt>
<totfact> 0.46022514E+04</totfact>
</mgrwt>
</event>
<event>
 7    0  0.4712189E-002  0.4416420E+03  0.7546771E-02  0.1030244E+00
         21   -1    0    0  502  501  0.00000000000E+00  0.00000000000E+00  0.17513306852E+03  0.17513306852E+03  0.00000000000E+00 0. -1.
         21   -1    0    0  501  502 -0.00000000000E+00 -0.00000000000E+00 -0.27842776271E+03  0.27842776271E+03  0.00000000000E+00 0. -1.
      99926    2    1    2    0    0 -0.71054273576E-14  0.14210854715E-13 -0.10329469419E+03  0.45356083123E+03  0.44164197466E+03 0.  0.
      99925    2    3    3    0    0  0.54981663306E+02 -0.83259845793E+02 -0.48936807540E+02  0.28457126599E+03  0.26197482526E+03 0.  0.
         25    1    4    4    0    0  0.32384497423E+02 -0.79734306261E+01 -0.17154398514E+01  0.12947116321E+03  0.12509000000E+03 0.  0.
         25    1    3    3    0    0 -0.54981663306E+02  0.83259845793E+02 -0.54357886650E+02  0.16898956525E+03  0.12509000000E+03 0.  0.
         25    1    4    4    0    0  0.22597165883E+02 -0.75286415167E+02 -0.47221367689E+02  0.15510010278E+03  0.12509000000E+03 0.  0.
<mgrwt>
<rscale>  2 0.44164197E+03</rscale>
<asrwt>0</asrwt>
<pdfrwt beam="1">  1       21 0.25754863E-01 0.44164197E+03</pdfrwt>
<pdfrwt beam="2">  1       21 0.40945259E-01 0.44164197E+03</pdfrwt>
<totfact> 0.76464485E+04</totfact>
</mgrwt>
</event>
<event>
 7    0  0.4712189E-002  0.4771503E+03  0.7546771E-02  0.1019921E+00
         21   -1    0    0  502  501  0.00000000000E+00  0.00000000000E+00  0.13078090743E+04  0.13078090743E+04  0.00000000000E+00 0.  1.
         21   -1    0    0  501  502 -0.00000000000E+00 -0.00000000000E+00 -0.43521727035E+02  0.43521727035E+02  0.00000000000E+00 0.  1.
      99926    2    1    2    0    0 -0.14210854715E-13  0.00000000000E+00  0.12642873473E+04  0.13513308014E+04  0.47715033081E+03 0.  0.
      99925    2    3    3    0    0 -0.10222292682E+03 -0.28189717431E+02  0.55857295936E+03  0.62681407114E+03  0.26390896520E+03 0.  0.
         25    1    3    3    0    0  0.10222292682E+03  0.28189717431E+02  0.70571438793E+03  0.72451673022E+03  0.12509000000E+03 0.  0.
         25    1    4    4    0    0 -0.93762266121E+02 -0.20663339088E+01  0.30869795531E+03  0.34603116623E+03  0.12509000000E+03 0.  0.
         25    1    4    4    0    0 -0.84606606999E+01 -0.26123383522E+02  0.24987500404E+03  0.28078290491E+03  0.12509000000E+03 0.  0.
<mgrwt>
<rscale>  2 0.47715033E+03</rscale>
<asrwt>0</asrwt>
<pdfrwt beam="1">  1       21 0.19232484E+00 0.47715033E+03</pdfrwt>
<pdfrwt beam="2">  1       21 0.64002548E-02 0.47715033E+03</pdfrwt>
<totfact> 0.23367241E+04</totfact>
</mgrwt>
</event>
<event>
 7    0  0.4712189E-002  0.4619634E+03  0.7546771E-02  0.1024213E+00
         21   -1    0    0  502  501  0.00000000000E+00  0.00000000000E+00  0.47005117051E+03  0.47005117051E+03  0.00000000000E+00 0.  1.
         21   -1    0    0  501  502 -0.00000000000E+00 -0.00000000000E+00 -0.11350370887E+03  0.11350370887E+03  0.00000000000E+00 0.  1.
      99926    2    1    2    0    0 -0.14210854715E-13  0.14210854715E-13  0.35654746164E+03  0.58355487938E+03  0.46196342371E+03 0.  0.
      99925    2    3    3    0    0 -0.64586159619E+02  0.82312609801E+02  0.14998163657E+03  0.32037492966E+03  0.26305677429E+03 0.  0.
         25    1    3    3    0    0  0.64586159619E+02 -0.82312609801E+02  0.20656582508E+03  0.26317994972E+03  0.12509000000E+03 0.  0.
         25    1    4    4    0    0 -0.18695855790E+02  0.76757990895E+02  0.60852597305E+02  0.15997459451E+03  0.12509000000E+03 0.  0.
         25    1    4    4    0    0 -0.45890303829E+02  0.55546189062E+01  0.89129039261E+02  0.16040033515E+03  0.12509000000E+03 0.  0.
<mgrwt>
<rscale>  2 0.46196342E+03</rscale>
<asrwt>0</asrwt>
<pdfrwt beam="1">  1       21 0.69125172E-01 0.46196342E+03</pdfrwt>
<pdfrwt beam="2">  1       21 0.16691722E-01 0.46196342E+03</pdfrwt>
<totfact> 0.56525682E+04</totfact>
</mgrwt>
</event>
<event>
 7    0  0.4712189E-002  0.4505446E+03  0.7546771E-02  0.1027560E+00
         21   -1    0    0  502  501  0.00000000000E+00  0.00000000000E+00  0.11002589860E+03  0.11002589860E+03  0.00000000000E+00 0. -1.
         21   -1    0    0  501  502 -0.00000000000E+00 -0.00000000000E+00 -0.46123338177E+03  0.46123338177E+03  0.00000000000E+00 0. -1.
      99926    2    1    2    0    0  0.00000000000E+00  0.00000000000E+00 -0.35120748317E+03  0.57125928038E+03  0.45054463617E+03 0.  0.
      99925    2    3    3    0    0 -0.41167443916E+02 -0.58617988347E+02 -0.32601478930E+03  0.42492744200E+03  0.26295790753E+03 0.  0.
         25    1    4    4    0    0  0.35086406303E+01 -0.58410195127E+02 -0.14308139794E+03  0.19885637025E+03  0.12509000000E+03 0.  0.
         25    1    3    3    0    0  0.41167443916E+02  0.58617988347E+02 -0.25192693873E+02  0.14633183837E+03  0.12509000000E+03 0.  0.
         25    1    4    4    0    0 -0.44676084546E+02 -0.20779321977E+00 -0.18293339136E+03  0.22607107175E+03  0.12509000000E+03 0.  0.
<mgrwt>
<rscale>  2 0.45054464E+03</rscale>
<asrwt>0</asrwt>
<pdfrwt beam="1">  1       21 0.16180279E-01 0.45054464E+03</pdfrwt>
<pdfrwt beam="2">  1       21 0.67828439E-01 0.45054464E+03</pdfrwt>
<totfact> 0.62661761E+04</totfact>
</mgrwt>
</event>
<event>
 7    0  0.4712189E-002  0.4065899E+03  0.7546771E-02  0.1041521E+00
         21   -1    0    0  502  501  0.00000000000E+00  0.00000000000E+00  0.34203066853E+03  0.34203066853E+03  0.00000000000E+00 0.  1.
         21   -1    0    0  501  502 -0.00000000000E+00 -0.00000000000E+00 -0.12083369660E+03  0.12083369660E+03  0.00000000000E+00 0.  1.
      99926    2    1    2    0    0  0.00000000000E+00  0.00000000000E+00  0.22119697193E+03  0.46286436512E+03  0.40658986720E+03 0.  0.
      99925    2    3    3    0    0  0.16205527085E+02  0.54587584862E+02  0.14740948875E+03  0.30686909499E+03  0.26305258136E+03 0.  0.
         25    1    4    4    0    0  0.54278763675E+01  0.50627693062E+02  0.38035565385E+02  0.14030979111E+03  0.12509000000E+03 0.  0.
         25    1    3    3    0    0 -0.16205527085E+02 -0.54587584862E+02  0.73787483184E+02  0.15599527013E+03  0.12509000000E+03 0.  0.
         25    1    4    4    0    0  0.10777650718E+02  0.39598918000E+01  0.10937392336E+03  0.16655930388E+03  0.12509000000E+03 0.  0.
<mgrwt>
<rscale>  2 0.40658987E+03</rscale>
<asrwt>0</asrwt>
<pdfrwt beam="1">  1       21 0.50298627E-01 0.40658987E+03</pdfrwt>
<pdfrwt beam="2">  1       21 0.17769661E-01 0.40658987E+03</pdfrwt>
<totfact> 0.10181357E+05</totfact>
</mgrwt>
</event>
<event>
 7    0  0.4712189E-002  0.4232901E+03  0.7546771E-02  0.1036001E+00
         21   -1    0    0  502  501  0.00000000000E+00  0.00000000000E+00  0.27467127892E+03  0.27467127892E+03  0.00000000000E+00 0.  1.
         21   -1    0    0  501  502 -0.00000000000E+00 -0.00000000000E+00 -0.16308086982E+03  0.16308086982E+03  0.00000000000E+00 0.  1.
      99926    2    1    2    0    0  0.00000000000E+00  0.00000000000E+00  0.11159040911E+03  0.43775214874E+03  0.42329011838E+03 0.  0.
      99925    2    3    3    0    0 -0.53894887155E+02  0.37075161054E+02  0.12039305914E+03  0.29631586918E+03  0.26273442715E+03 0.  0.
         25    1    4    4    0    0  0.47839354219E+01  0.37161160236E+02  0.40528986786E+02  0.13672580129E+03  0.12509000000E+03 0.  0.
         25    1    3    3    0    0  0.53894887155E+02 -0.37075161054E+02 -0.88026500352E+01  0.14143627956E+03  0.12509000000E+03 0.  0.
         25    1    4    4    0    0 -0.58678822577E+02 -0.85999181966E-01  0.79864072357E+02  0.15959006789E+03  0.12509000000E+03 0.  0.
<mgrwt>
<rscale>  2 0.42329012E+03</rscale>
<asrwt>0</asrwt>
<pdfrwt beam="1">  1       21 0.40392835E-01 0.42329012E+03</pdfrwt>
<pdfrwt beam="2">  1       21 0.23982481E-01 0.42329012E+03</pdfrwt>
<totfact> 0.90655508E+04</totfact>
</mgrwt>
</event>
<event>
 7    0  0.4712189E-002  0.4455178E+03  0.7546771E-02  0.1029067E+00
         21   -1    0    0  502  501  0.00000000000E+00  0.00000000000E+00  0.22741052896E+02  0.22741052896E+02  0.00000000000E+00 0.  1.
         21   -1    0    0  501  502 -0.00000000000E+00 -0.00000000000E+00 -0.21820244868E+04  0.21820244868E+04  0.00000000000E+00 0.  1.
      99926    2    1    2    0    0 -0.14210854715E-13  0.35527136788E-14 -0.21592834339E+04  0.22047655397E+04  0.44551783028E+03 0.  0.
      99925    2    3    3    0    0 -0.10080642464E+03  0.23522193286E+02 -0.13130793344E+04  0.13431251768E+04  0.26285485224E+03 0.  0.
         25    1    4    4    0    0 -0.77388294422E+02  0.21182129960E+02 -0.56095824777E+03  0.58030965405E+03  0.12509000000E+03 0.  0.
         25    1    4    4    0    0 -0.23418130216E+02  0.23400633258E+01 -0.75212108660E+03  0.76281552274E+03  0.12509000000E+03 0.  0.
         25    1    3    3    0    0  0.10080642464E+03 -0.23522193286E+02 -0.84620409956E+03  0.86164036293E+03  0.12509000000E+03 0.  0.
<mgrwt>
<rscale>  2 0.44551783E+03</rscale>
<asrwt>0</asrwt>
<pdfrwt beam="1">  1       21 0.33442717E-02 0.44551783E+03</pdfrwt>
<pdfrwt beam="2">  1       21 0.32088602E+00 0.44551783E+03</pdfrwt>
<totfact> 0.11467303E+04</totfact>
</mgrwt>
</event>
<event>
 7    0  0.4712189E-002  0.4234547E+03  0.7546771E-02  0.1035948E+00
         21   -1    0    0  502  501  0.00000000000E+00  0.00000000000E+00  0.23321413571E+04  0.23321413571E+04  0.00000000000E+00 0. -1.
         21   -1    0    0  501  502 -0.00000000000E+00 -0.00000000000E+00 -0.19222023742E+02  0.19222023742E+02  0.00000000000E+00 0. -1.
      99926    2    1    2    0    0  0.11102230246E-15  0.00000000000E+00  0.23129193334E+04  0.23513633808E+04  0.42345472738E+03 0.  0.
      99925    2    3    3    0    0  0.97990058819E+00 -0.80031887371E+02  0.15193809540E+04  0.15440488629E+04  0.26298734678E+03 0.  0.
         25    1    4    4    0    0  0.17837783311E+02 -0.24992939667E+02  0.92509057794E+03  0.93401441051E+03  0.12509000000E+03 0.  0.
         25    1    3    3    0    0 -0.97990058819E+00  0.80031887371E+02  0.79353837938E+03  0.80731451793E+03  0.12509000000E+03 0.  0.
         25    1    4    4    0    0 -0.16857882722E+02 -0.55038947704E+02  0.59429037604E+03  0.61003445241E+03  0.12509000000E+03 0.  0.
<mgrwt>
<rscale>  2 0.42345473E+03</rscale>
<asrwt>0</asrwt>
<pdfrwt beam="1">  1       21 0.34296177E+00 0.42345473E+03</pdfrwt>
<pdfrwt beam="2">  1       21 0.28267698E-02 0.42345473E+03</pdfrwt>
<totfact> 0.11301524E+04</totfact>
</mgrwt>
</event>
<event>
 7    0  0.4712189E-002  0.4568386E+03  0.7546771E-02  0.1025702E+00
         21   -1    0    0  502  501  0.00000000000E+00  0.00000000000E+00  0.77859538986E+02  0.77859538986E+02  0.00000000000E+00 0. -1.
         21   -1    0    0  501  502 -0.00000000000E+00 -0.00000000000E+00 -0.67012187374E+03  0.67012187374E+03  0.00000000000E+00 0. -1.
      99926    2    1    2    0    0 -0.35527136788E-14  0.71054273576E-14 -0.59226233475E+03  0.74798141272E+03  0.45683861550E+03 0.  0.
      99925    2    3    3    0    0  0.26670973829E+02 -0.39906800420E+02 -0.54295103975E+03  0.60521234927E+03  0.26302521282E+03 0.  0.
         25    1    3    3    0    0 -0.26670973829E+02  0.39906800420E+02 -0.49311295001E+02  0.14276906345E+03  0.12509000000E+03 0.  0.
         25    1    4    4    0    0  0.22483540491E+02 -0.59972273011E+02 -0.29271344255E+03  0.32470117135E+03  0.12509000000E+03 0.  0.
         25    1    4    4    0    0  0.41874333378E+01  0.20065472590E+02 -0.25023759720E+03  0.28051117793E+03  0.12509000000E+03 0.  0.
<mgrwt>
<rscale>  2 0.45683862E+03</rscale>
<asrwt>0</asrwt>
<pdfrwt beam="1">  1       21 0.11449931E-01 0.45683862E+03</pdfrwt>
<pdfrwt beam="2">  1       21 0.98547345E-01 0.45683862E+03</pdfrwt>
<totfact> 0.49652633E+04</totfact>
</mgrwt>
</event>
<event>
 7    0  0.4712189E-002  0.4571057E+03  0.7546771E-02  0.1025624E+00
         21   -1    0    0  502  501  0.00000000000E+00  0.00000000000E+00  0.83338980317E+02  0.83338980317E+02  0.00000000000E+00 0.  1.
         21   -1    0    0  501  502 -0.00000000000E+00 -0.00000000000E+00 -0.62679449094E+03  0.62679449094E+03  0.00000000000E+00 0.  1.
      99926    2    1    2    0    0  0.00000000000E+00 -0.14210854715E-13 -0.54345551062E+03  0.71013347126E+03  0.45710573719E+03 0.  0.
      99925    2    3    3    0    0  0.64400770589E+02 -0.90761040822E+02 -0.29488440756E+03  0.41043340925E+03  0.26289492926E+03 0.  0.
         25    1    3    3    0    0 -0.64400770589E+02  0.90761040822E+02 -0.24857110307E+03  0.29970006200E+03  0.12509000000E+03 0.  0.
         25    1    4    4    0    0  0.71182876617E+02 -0.49914005398E+02 -0.13791251576E+03  0.20548912371E+03  0.12509000000E+03 0.  0.
         25    1    4    4    0    0 -0.67821060281E+01 -0.40847035424E+02 -0.15697189179E+03  0.20494428555E+03  0.12509000000E+03 0.  0.
<mgrwt>
<rscale>  2 0.45710574E+03</rscale>
<asrwt>0</asrwt>
<pdfrwt beam="1">  1       21 0.12255733E-01 0.45710574E+03</pdfrwt>
<pdfrwt beam="2">  1       21 0.92175656E-01 0.45710574E+03</pdfrwt>
<totfact> 0.51497744E+04</totfact>
</mgrwt>
</event>
<event>
 7    0  0.4712189E-002  0.4594829E+03  0.7546771E-02  0.1024931E+00
         21   -1    0    0  502  501  0.00000000000E+00  0.00000000000E+00  0.14736005644E+03  0.14736005644E+03  0.00000000000E+00 0. -1.
         21   -1    0    0  501  502 -0.00000000000E+00 -0.00000000000E+00 -0.35817805568E+03  0.35817805568E+03  0.00000000000E+00 0. -1.
      99926    2    1    2    0    0 -0.71054273576E-14  0.00000000000E+00 -0.21081799923E+03  0.50553811212E+03  0.45948292025E+03 0.  0.
      99925    2    3    3    0    0  0.62452287897E+02  0.78291569955E+02 -0.64800431133E+02  0.28874674586E+03  0.26295575518E+03 0.  0.
         25    1    4    4    0    0  0.60034584975E+01  0.40574225148E+01 -0.26050229687E+02  0.12797900905E+03  0.12509000000E+03 0.  0.
         25    1    3    3    0    0 -0.62452287897E+02 -0.78291569955E+02 -0.14601756810E+03  0.21679136626E+03  0.12509000000E+03 0.  0.
         25    1    4    4    0    0  0.56448829399E+02  0.74234147440E+02 -0.38750201446E+02  0.16076773681E+03  0.12509000000E+03 0.  0.
<mgrwt>
<rscale>  2 0.45948292E+03</rscale>
<asrwt>0</asrwt>
<pdfrwt beam="1">  1       21 0.21670597E-01 0.45948292E+03</pdfrwt>
<pdfrwt beam="2">  1       21 0.52673243E-01 0.45948292E+03</pdfrwt>
<totfact> 0.62625042E+04</totfact>
</mgrwt>
</event>
<event>
 7    0  0.4712189E-002  0.5638063E+03  0.7546771E-02  0.9983479E-01
         21   -1    0    0  502  501  0.00000000000E+00  0.00000000000E+00  0.70259077672E+03  0.70259077672E+03  0.00000000000E+00 0. -1.
         21   -1    0    0  501  502 -0.00000000000E+00 -0.00000000000E+00 -0.11310907424E+03  0.11310907424E+03  0.00000000000E+00 0. -1.
      99926    2    1    2    0    0 -0.28421709430E-13  0.00000000000E+00  0.58948170249E+03  0.81569985096E+03  0.56380632251E+03 0.  0.
      99925    2    3    3    0    0 -0.16950003875E+03  0.96310738357E+02  0.39765506712E+03  0.51494914424E+03  0.26274901958E+03 0.  0.
         25    1    4    4    0    0 -0.54641069093E+02  0.67275865366E+02  0.15373165427E+03  0.21631601448E+03  0.12509000000E+03 0.  0.
         25    1    3    3    0    0  0.16950003875E+03 -0.96310738357E+02  0.19182663536E+03  0.30075070672E+03  0.12509000000E+03 0.  0.
         25    1    4    4    0    0 -0.11485896965E+03  0.29034872991E+02  0.24392341285E+03  0.29863312977E+03  0.12509000000E+03 0.  0.
<mgrwt>
<rscale>  2 0.56380632E+03</rscale>
<asrwt>0</asrwt>
<pdfrwt beam="1">  1       21 0.10332217E+00 0.56380632E+03</pdfrwt>
<pdfrwt beam="2">  1       21 0.16633688E-01 0.56380632E+03</pdfrwt>
<totfact> 0.21675019E+04</totfact>
</mgrwt>
</event>
<event>
 7    0  0.4712189E-002  0.4536147E+03  0.7546771E-02  0.1026650E+00
         21   -1    0    0  502  501  0.00000000000E+00  0.00000000000E+00  0.41000958385E+03  0.41000958385E+03  0.00000000000E+00 0. -1.
         21   -1    0    0  501  502 -0.00000000000E+00 -0.00000000000E+00 -0.12546430877E+03  0.12546430877E+03  0.00000000000E+00 0. -1.
      99926    2    1    2    0    0  0.00000000000E+00  0.00000000000E+00  0.28454527509E+03  0.53547389262E+03  0.45361467801E+03 0.  0.
      99925    2    3    3    0    0  0.28991452707E+01 -0.93827602910E+02  0.25146153574E+03  0.37561750075E+03  0.26276144848E+03 0.  0.
         25    1    3    3    0    0 -0.28991452707E+01  0.93827602910E+02  0.33083739346E+02  0.15985639187E+03  0.12509000000E+03 0.  0.
         25    1    4    4    0    0  0.55112271187E+01 -0.68503963860E+02  0.85989274442E+02  0.16662781913E+03  0.12509000000E+03 0.  0.
         25    1    4    4    0    0 -0.26120818481E+01 -0.25323639050E+02  0.16547226130E+03  0.20898968163E+03  0.12509000000E+03 0.  0.
<mgrwt>
<rscale>  2 0.45361468E+03</rscale>
<asrwt>0</asrwt>
<pdfrwt beam="1">  1       21 0.60295527E-01 0.45361468E+03</pdfrwt>
<pdfrwt beam="2">  1       21 0.18450634E-01 0.45361468E+03</pdfrwt>
<totfact> 0.63530459E+04</totfact>
</mgrwt>
</event>
<event>
 7    0  0.4712189E-002  0.3964586E+03  0.7546771E-02  0.1045013E+00
         21   -1    0    0  502  501  0.00000000000E+00  0.00000000000E+00  0.19227104665E+03  0.19227104665E+03  0.00000000000E+00 0.  1.
         21   -1    0    0  501  502 -0.00000000000E+00 -0.00000000000E+00 -0.20437222282E+03  0.20437222282E+03  0.00000000000E+00 0.  1.
      99926    2    1    2    0    0  0.00000000000E+00  0.00000000000E+00 -0.12101176175E+02  0.39664326947E+03  0.39645862931E+03 0.  0.
      99925    2    3    3    0    0 -0.30630075747E+02  0.20537112758E+02  0.11218483909E+01  0.26556187865E+03  0.26298646032E+03 0.  0.
         25    1    4    4    0    0 -0.75597742743E+01  0.21995419181E+02 -0.37456440496E+02  0.13263273234E+03  0.12509000000E+03 0.  0.
         25    1    3    3    0    0  0.30630075747E+02 -0.20537112758E+02 -0.13223024566E+02  0.13108139082E+03  0.12509000000E+03 0.  0.
         25    1    4    4    0    0 -0.23070301472E+02 -0.14583064231E+01  0.38578288887E+02  0.13292914632E+03  0.12509000000E+03 0.  0.
<mgrwt>
<rscale>  2 0.39645863E+03</rscale>
<asrwt>0</asrwt>
<pdfrwt beam="1">  1       21 0.28275154E-01 0.39645863E+03</pdfrwt>
<pdfrwt beam="2">  1       21 0.30054739E-01 0.39645863E+03</pdfrwt>
<totfact> 0.12007994E+05</totfact>
</mgrwt>
</event>
<event>
 7    0  0.4712189E-002  0.4547788E+03  0.7546771E-02  0.1026306E+00
         21   -1    0    0  502  501  0.00000000000E+00  0.00000000000E+00  0.50410938723E+02  0.50410938723E+02  0.00000000000E+00 0.  1.
         21   -1    0    0  501  502 -0.00000000000E+00 -0.00000000000E+00 -0.10256887429E+04  0.10256887429E+04  0.00000000000E+00 0.  1.
      99926    2    1    2    0    0 -0.71054273576E-14  0.00000000000E+00 -0.97527780414E+03  0.10760996816E+04  0.45477876980E+03 0.  0.
      99925    2    3    3    0    0  0.49803416973E+02 -0.89314992722E+02 -0.72740877078E+03  0.78022113545E+03  0.26299040310E+03 0.  0.
         25    1    3    3    0    0 -0.49803416973E+02  0.89314992722E+02 -0.24786903336E+03  0.29587854614E+03  0.12509000000E+03 0.  0.
         25    1    4    4    0    0  0.46874562723E+02 -0.78441984735E+02 -0.35918741544E+03  0.39116937139E+03  0.12509000000E+03 0.  0.
         25    1    4    4    0    0  0.29288542504E+01 -0.10873007987E+02 -0.36822135534E+03  0.38905176406E+03  0.12509000000E+03 0.  0.
<mgrwt>
<rscale>  2 0.45477877E+03</rscale>
<asrwt>0</asrwt>
<pdfrwt beam="1">  1       21 0.74133731E-02 0.45477877E+03</pdfrwt>
<pdfrwt beam="2">  1       21 0.15083658E+00 0.45477877E+03</pdfrwt>
<totfact> 0.36396840E+04</totfact>
</mgrwt>
</event>
<event>
 7    0  0.4712189E-002  0.4576232E+03  0.7546771E-02  0.1025473E+00
         21   -1    0    0  502  501  0.00000000000E+00  0.00000000000E+00  0.12965285399E+03  0.12965285399E+03  0.00000000000E+00 0. -1.
         21   -1    0    0  501  502 -0.00000000000E+00 -0.00000000000E+00 -0.40380707722E+03  0.40380707722E+03  0.00000000000E+00 0. -1.
      99926    2    1    2    0    0  0.00000000000E+00  0.71054273576E-14 -0.27415422323E+03  0.53345993121E+03  0.45762316386E+03 0.  0.
      99925    2    3    3    0    0  0.63627940750E+02  0.45460897580E+02 -0.73230685074E+02  0.28419504332E+03  0.26322781266E+03 0.  0.
         25    1    3    3    0    0 -0.63627940750E+02 -0.45460897580E+02 -0.20092353815E+03  0.24926488789E+03  0.12509000000E+03 0.  0.
         25    1    4    4    0    0  0.45073734262E+02 -0.15979944775E+02 -0.39239378772E+02  0.13955012398E+03  0.12509000000E+03 0.  0.
         25    1    4    4    0    0  0.18554206487E+02  0.61440842356E+02 -0.33991306302E+02  0.14464491934E+03  0.12509000000E+03 0.  0.
<mgrwt>
<rscale>  2 0.45762316E+03</rscale>
<asrwt>0</asrwt>
<pdfrwt beam="1">  1       21 0.19066596E-01 0.45762316E+03</pdfrwt>
<pdfrwt beam="2">  1       21 0.59383394E-01 0.45762316E+03</pdfrwt>
<totfact> 0.61680541E+04</totfact>
</mgrwt>
</event>
<event>
 7    0  0.4712189E-002  0.4547439E+03  0.7546771E-02  0.1026317E+00
         21   -1    0    0  502  501  0.00000000000E+00  0.00000000000E+00  0.37702369457E+03  0.37702369457E+03  0.00000000000E+00 0. -1.
         21   -1    0    0  501  502 -0.00000000000E+00 -0.00000000000E+00 -0.13712134736E+03  0.13712134736E+03  0.00000000000E+00 0. -1.
      99926    2    1    2    0    0  0.00000000000E+00  0.00000000000E+00  0.23990234721E+03  0.51414504193E+03  0.45474387070E+03 0.  0.
      99925    2    3    3    0    0 -0.61685393900E+02  0.70470826714E+02  0.22236625381E+03  0.35689922192E+03  0.26298113722E+03 0.  0.
         25    1    4    4    0    0 -0.29139566715E+02  0.41358737720E+02  0.60923973788E+02  0.14805032326E+03  0.12509000000E+03 0.  0.
         25    1    3    3    0    0  0.61685393900E+02 -0.70470826714E+02  0.17536093393E+02  0.15724582001E+03  0.12509000000E+03 0.  0.
         25    1    4    4    0    0 -0.32545827185E+02  0.29112088994E+02  0.16144228003E+03  0.20884889866E+03  0.12509000000E+03 0.  0.
<mgrwt>
<rscale>  2 0.45474387E+03</rscale>
<asrwt>0</asrwt>
<pdfrwt beam="1">  1       21 0.55444661E-01 0.45474387E+03</pdfrwt>
<pdfrwt beam="2">  1       21 0.20164904E-01 0.45474387E+03</pdfrwt>
<totfact> 0.64418752E+04</totfact>
</mgrwt>
</event>
<event>
 7    0  0.4712189E-002  0.4558419E+03  0.7546771E-02  0.1025994E+00
         21   -1    0    0  502  501  0.00000000000E+00  0.00000000000E+00  0.89965098589E+03  0.89965098589E+03  0.00000000000E+00 0. -1.
         21   -1    0    0  501  502 -0.00000000000E+00 -0.00000000000E+00 -0.57742337567E+02  0.57742337567E+02  0.00000000000E+00 0. -1.
      99926    2    1    2    0    0 -0.35527136788E-14  0.00000000000E+00  0.84190864833E+03  0.95739332346E+03  0.45584186258E+03 0.  0.
      99925    2    3    3    0    0  0.17662419979E+02  0.73596304214E+02  0.35026464659E+03  0.44447061036E+03  0.26294566691E+03 0.  0.
         25    1    4    4    0    0 -0.16759366940E+02  0.37513856782E+01  0.16377824713E+03  0.20679886752E+03  0.12509000000E+03 0.  0.
         25    1    3    3    0    0 -0.17662419979E+02 -0.73596304214E+02  0.49164400174E+03  0.51292271311E+03  0.12509000000E+03 0.  0.
         25    1    4    4    0    0  0.34421786918E+02  0.69844918536E+02  0.18648639945E+03  0.23767174283E+03  0.12509000000E+03 0.  0.
<mgrwt>
<rscale>  2 0.45584186E+03</rscale>
<asrwt>0</asrwt>
<pdfrwt beam="1">  1       21 0.13230161E+00 0.45584186E+03</pdfrwt>
<pdfrwt beam="2">  1       21 0.84915208E-02 0.45584186E+03</pdfrwt>
<totfact> 0.40575142E+04</totfact>
</mgrwt>
</event>
<event>
 7    0  0.4712189E-002  0.4602759E+03  0.7546771E-02  0.1024701E+00
         21   -1    0    0  502  501  0.00000000000E+00  0.00000000000E+00  0.79262015717E+03  0.79262015717E+03  0.00000000000E+00 0.  1.
         21   -1    0    0  501  502 -0.00000000000E+00 -0.00000000000E+00 -0.66820744845E+02  0.66820744845E+02  0.00000000000E+00 0.  1.
      99926    2    1    2    0    0 -0.88817841970E-15  0.71054273576E-14  0.72579941233E+03  0.85944090202E+03  0.46027587068E+03 0.  0.
      99925    2    3    3    0    0  0.69121480119E+01 -0.39447162017E+02  0.24720480608E+03  0.36315050154E+03  0.26299090143E+03 0.  0.
         25    1    4    4    0    0 -0.61938565659E+01  0.16013658355E+02  0.14224950173E+03  0.19020312814E+03  0.12509000000E+03 0.  0.
         25    1    4    4    0    0  0.13106004578E+02 -0.55460820372E+02  0.10495530435E+03  0.17294737339E+03  0.12509000000E+03 0.  0.
         25    1    3    3    0    0 -0.69121480119E+01  0.39447162017E+02  0.47859460625E+03  0.49629040048E+03  0.12509000000E+03 0.  0.
<mgrwt>
<rscale>  2 0.46027587E+03</rscale>
<asrwt>0</asrwt>
<pdfrwt beam="1">  1       21 0.11656178E+00 0.46027587E+03</pdfrwt>
<pdfrwt beam="2">  1       21 0.98265806E-02 0.46027587E+03</pdfrwt>
<totfact> 0.43204096E+04</totfact>
</mgrwt>
</event>
<event>
 7    0  0.4712189E-002  0.4525092E+03  0.7546771E-02  0.1026976E+00
         21   -1    0    0  502  501  0.00000000000E+00  0.00000000000E+00  0.60698330794E+03  0.60698330794E+03  0.00000000000E+00 0.  1.
         21   -1    0    0  501  502 -0.00000000000E+00 -0.00000000000E+00 -0.84337001610E+02  0.84337001610E+02  0.00000000000E+00 0.  1.
      99926    2    1    2    0    0  0.71054273576E-14 -0.35527136788E-14  0.52264630633E+03  0.69132030955E+03  0.45250923623E+03 0.  0.
      99925    2    3    3    0    0  0.44756023479E+02  0.17463760894E+02  0.48212199614E+03  0.55132812263E+03  0.26308362750E+03 0.  0.
         25    1    4    4    0    0  0.49677674402E+02  0.38696821759E+02  0.23751480241E+03  0.27572831703E+03  0.12509000000E+03 0.  0.
         25    1    3    3    0    0 -0.44756023479E+02 -0.17463760894E+02  0.40524310186E+02  0.13999218692E+03  0.12509000000E+03 0.  0.
         25    1    4    4    0    0 -0.49216509225E+01 -0.21233060865E+02  0.24460719373E+03  0.27559980560E+03  0.12509000000E+03 0.  0.
<mgrwt>
<rscale>  2 0.45250924E+03</rscale>
<asrwt>0</asrwt>
<pdfrwt beam="1">  1       21 0.89262249E-01 0.45250924E+03</pdfrwt>
<pdfrwt beam="2">  1       21 0.12402501E-01 0.45250924E+03</pdfrwt>
<totfact> 0.54436298E+04</totfact>
</mgrwt>
</event>
<event>
 7    0  0.4712189E-002  0.4388059E+03  0.7546771E-02  0.1031114E+00
         21   -1    0    0  502  501  0.00000000000E+00  0.00000000000E+00  0.12515101306E+04  0.12515101306E+04  0.00000000000E+00 0.  1.
         21   -1    0    0  501  502 -0.00000000000E+00 -0.00000000000E+00 -0.38463655265E+02  0.38463655265E+02  0.00000000000E+00 0.  1.
      99926    2    1    2    0    0  0.00000000000E+00  0.14210854715E-13  0.12130464753E+04  0.12899737859E+04  0.43880589889E+03 0.  0.
      99925    2    3    3    0    0 -0.12176307622E+02 -0.77777380296E+02  0.60725534580E+03  0.66641305580E+03  0.26296334837E+03 0.  0.
         25    1    3    3    0    0  0.12176307622E+02  0.77777380296E+02  0.60579112954E+03  0.62356073007E+03  0.12509000000E+03 0.  0.
         25    1    4    4    0    0 -0.27061743373E+02 -0.28238186600E+02  0.21882104343E+03  0.25506840315E+03  0.12509000000E+03 0.  0.
         25    1    4    4    0    0  0.14885435752E+02 -0.49539193696E+02  0.38843430237E+03  0.41134465265E+03  0.12509000000E+03 0.  0.
<mgrwt>
<rscale>  2 0.43880590E+03</rscale>
<asrwt>0</asrwt>
<pdfrwt beam="1">  1       21 0.18404558E+00 0.43880590E+03</pdfrwt>
<pdfrwt beam="2">  1       21 0.56564207E-02 0.43880590E+03</pdfrwt>
<totfact> 0.33422892E+04</totfact>
</mgrwt>
</event>
<event>
 7    0  0.4712189E-002  0.4556698E+03  0.7546771E-02  0.1026045E+00
         21   -1    0    0  502  501  0.00000000000E+00  0.00000000000E+00  0.59357730652E+02  0.59357730652E+02  0.00000000000E+00 0. -1.
         21   -1    0    0  501  502 -0.00000000000E+00 -0.00000000000E+00 -0.87450700967E+03  0.87450700967E+03  0.00000000000E+00 0. -1.
      99926    2    1    2    0    0  0.71054273576E-14  0.00000000000E+00 -0.81514927902E+03  0.93386474032E+03  0.45566984334E+03 0.  0.
      99925    2    3    3    0    0 -0.36206717616E+02 -0.10622852157E+03 -0.47622694991E+03  0.55556422689E+03  0.26318069303E+03 0.  0.
         25    1    3    3    0    0  0.36206717616E+02  0.10622852157E+03 -0.33892232911E+03  0.37830051344E+03  0.12509000000E+03 0.  0.
         25    1    4    4    0    0  0.69592188597E+01 -0.42329662329E+02 -0.16552002740E+03  0.21185990326E+03  0.12509000000E+03 0.  0.
         25    1    4    4    0    0 -0.43165936476E+02 -0.63898859238E+02 -0.31070692251E+03  0.34370432363E+03  0.12509000000E+03 0.  0.
<mgrwt>
<rscale>  2 0.45566984E+03</rscale>
<asrwt>0</asrwt>
<pdfrwt beam="1">  1       21 0.87290781E-02 0.45566984E+03</pdfrwt>
<pdfrwt beam="2">  1       21 0.12860397E+00 0.45566984E+03</pdfrwt>
<totfact> 0.41582900E+04</totfact>
</mgrwt>
</event>
<event>
 7    0  0.4712189E-002  0.4600981E+03  0.7546771E-02  0.1024753E+00
         21   -1    0    0  502  501  0.00000000000E+00  0.00000000000E+00  0.52970125803E+02  0.52970125803E+02  0.00000000000E+00 0. -1.
         21   -1    0    0  501  502 -0.00000000000E+00 -0.00000000000E+00 -0.99910234203E+03  0.99910234203E+03  0.00000000000E+00 0. -1.
      99926    2    1    2    0    0  0.14210854715E-13 -0.71054273576E-14 -0.94613221623E+03  0.10520724678E+04  0.46009814930E+03 0.  0.
      99925    2    3    3    0    0 -0.10244506419E+03  0.55202519505E+02 -0.55996289046E+03  0.62979700608E+03  0.26371105558E+03 0.  0.
         25    1    4    4    0    0 -0.91731125935E+02  0.28046314897E+02 -0.26983472716E+03  0.31250517328E+03  0.12509000000E+03 0.  0.
         25    1    4    4    0    0 -0.10713938256E+02  0.27156204608E+02 -0.29012816330E+03  0.31729183280E+03  0.12509000000E+03 0.  0.
         25    1    3    3    0    0  0.10244506419E+03 -0.55202519505E+02 -0.38616932577E+03  0.42227546176E+03  0.12509000000E+03 0.  0.
<mgrwt>
<rscale>  2 0.46009815E+03</rscale>
<asrwt>0</asrwt>
<pdfrwt beam="1">  1       21 0.77897245E-02 0.46009815E+03</pdfrwt>
<pdfrwt beam="2">  1       21 0.14692681E+00 0.46009815E+03</pdfrwt>
<totfact> 0.35757260E+04</totfact>
</mgrwt>
</event>
<event>
 7    0  0.4712189E-002  0.4569583E+03  0.7546771E-02  0.1025667E+00
         21   -1    0    0  502  501  0.00000000000E+00  0.00000000000E+00  0.14748839125E+03  0.14748839125E+03  0.00000000000E+00 0.  1.
         21   -1    0    0  501  502 -0.00000000000E+00 -0.00000000000E+00 -0.35394459551E+03  0.35394459551E+03  0.00000000000E+00 0.  1.
      99926    2    1    2    0    0  0.00000000000E+00  0.00000000000E+00 -0.20645620426E+03  0.50143298676E+03  0.45695828686E+03 0.  0.
      99925    2    3    3    0    0  0.81035074609E+02 -0.39430002933E+02 -0.20797624161E+03  0.34725378238E+03  0.26307729635E+03 0.  0.
         25    1    4    4    0    0  0.31961736834E+02 -0.88117646679E+01 -0.14899307316E+03  0.19734650686E+03  0.12509000000E+03 0.  0.
         25    1    3    3    0    0 -0.81035074609E+02  0.39430002933E+02  0.15200373558E+01  0.15417920438E+03  0.12509000000E+03 0.  0.
         25    1    4    4    0    0  0.49073337775E+02 -0.30618238265E+02 -0.58983168453E+02  0.14990727553E+03  0.12509000000E+03 0.  0.
<mgrwt>
<rscale>  2 0.45695829E+03</rscale>
<asrwt>0</asrwt>
<pdfrwt beam="1">  1       21 0.21689470E-01 0.45695829E+03</pdfrwt>
<pdfrwt beam="2">  1       21 0.52050674E-01 0.45695829E+03</pdfrwt>
<totfact> 0.64166824E+04</totfact>
</mgrwt>
</event>
<event>
 7    0  0.4712189E-002  0.4667953E+03  0.7546771E-02  0.1022829E+00
         21   -1    0    0  502  501  0.00000000000E+00  0.00000000000E+00  0.17809283955E+03  0.17809283955E+03  0.00000000000E+00 0. -1.
         21   -1    0    0  501  502 -0.00000000000E+00 -0.00000000000E+00 -0.30587675268E+03  0.30587675268E+03  0.00000000000E+00 0. -1.
      99926    2    1    2    0    0  0.00000000000E+00  0.00000000000E+00 -0.12778391314E+03  0.48396959223E+03  0.46679528462E+03 0.  0.
      99925    2    3    3    0    0  0.45964201139E+02  0.11035247900E+03 -0.11363147529E+03  0.31036608707E+03  0.26291561083E+03 0.  0.
         25    1    3    3    0    0 -0.45964201139E+02 -0.11035247900E+03 -0.14152437846E+02  0.17360350516E+03  0.12509000000E+03 0.  0.
         25    1    4    4    0    0 -0.61735371245E+00  0.73952233738E+02 -0.29009879244E+02  0.14818365360E+03  0.12509000000E+03 0.  0.
         25    1    4    4    0    0  0.46581554851E+02  0.36400245263E+02 -0.84621596049E+02  0.16218243347E+03  0.12509000000E+03 0.  0.
<mgrwt>
<rscale>  2 0.46679528E+03</rscale>
<asrwt>0</asrwt>
<pdfrwt beam="1">  1       21 0.26190124E-01 0.46679528E+03</pdfrwt>
<pdfrwt beam="2">  1       21 0.44981875E-01 0.46679528E+03</pdfrwt>
<totfact> 0.60543031E+04</totfact>
</mgrwt>
</event>
<event>
 7    0  0.4712189E-002  0.4374202E+03  0.7546771E-02  0.1031541E+00
         21   -1    0    0  502  501  0.00000000000E+00  0.00000000000E+00  0.13954400542E+03  0.13954400542E+03  0.00000000000E+00 0.  1.
         21   -1    0    0  501  502 -0.00000000000E+00 -0.00000000000E+00 -0.34278876666E+03  0.34278876666E+03  0.00000000000E+00 0.  1.
      99926    2    1    2    0    0 -0.17763568394E-14  0.00000000000E+00 -0.20324476123E+03  0.48233277208E+03  0.43742024422E+03 0.  0.
      99925    2    3    3    0    0 -0.14965255728E+02  0.84503446954E+02 -0.17730571405E+03  0.32843301998E+03  0.26280437773E+03 0.  0.
         25    1    4    4    0    0  0.46324225714E+01  0.76659300542E+02 -0.71648622871E+02  0.16333750628E+03  0.12509000000E+03 0.  0.
         25    1    4    4    0    0 -0.19597678299E+02  0.78441464114E+01 -0.10565709118E+03  0.16509551370E+03  0.12509000000E+03 0.  0.
         25    1    3    3    0    0  0.14965255728E+02 -0.84503446954E+02 -0.25939047181E+02  0.15389975209E+03  0.12509000000E+03 0.  0.
<mgrwt>
<rscale>  2 0.43742024E+03</rscale>
<asrwt>0</asrwt>
<pdfrwt beam="1">  1       21 0.20521177E-01 0.43742024E+03</pdfrwt>
<pdfrwt beam="2">  1       21 0.50410113E-01 0.43742024E+03</pdfrwt>
<totfact> 0.76686979E+04</totfact>
</mgrwt>
</event>
<event>
 7    0  0.4712189E-002  0.4626684E+03  0.7546771E-02  0.1024010E+00
         21   -1    0    0  502  501  0.00000000000E+00  0.00000000000E+00  0.47488711113E+02  0.47488711113E+02  0.00000000000E+00 0.  1.
         21   -1    0    0  501  502 -0.00000000000E+00 -0.00000000000E+00 -0.11269102947E+04  0.11269102947E+04  0.00000000000E+00 0.  1.
      99926    2    1    2    0    0  0.17763568394E-14 -0.71054273576E-14 -0.10794215835E+04  0.11743990058E+04  0.46266842310E+03 0.  0.
      99925    2    3    3    0    0  0.81809422076E+01 -0.47608446775E+02 -0.39518744496E+03  0.47714915348E+03  0.26299183636E+03 0.  0.
         25    1    3    3    0    0 -0.81809422076E+01  0.47608446775E+02 -0.68423413858E+03  0.69724985229E+03  0.12509000000E+03 0.  0.
         25    1    4    4    0    0  0.17157859434E+02 -0.62829168796E+02 -0.20490270264E+03  0.24874589895E+03  0.12509000000E+03 0.  0.
         25    1    4    4    0    0 -0.89769172264E+01  0.15220722021E+02 -0.19028474231E+03  0.22840325453E+03  0.12509000000E+03 0.  0.
<mgrwt>
<rscale>  2 0.46266842E+03</rscale>
<asrwt>0</asrwt>
<pdfrwt beam="1">  1       21 0.69836352E-02 0.46266842E+03</pdfrwt>
<pdfrwt beam="2">  1       21 0.16572207E+00 0.46266842E+03</pdfrwt>
<totfact> 0.31079140E+04</totfact>
</mgrwt>
</event>
<event>
 7    0  0.4712189E-002  0.4533830E+03  0.7546771E-02  0.1026718E+00
         21   -1    0    0  502  501  0.00000000000E+00  0.00000000000E+00  0.74416940563E+02  0.74416940563E+02  0.00000000000E+00 0. -1.
         21   -1    0    0  501  502 -0.00000000000E+00 -0.00000000000E+00 -0.69055564544E+03  0.69055564544E+03  0.00000000000E+00 0. -1.
      99926    2    1    2    0    0 -0.14210854715E-13  0.00000000000E+00 -0.61613870488E+03  0.76497258601E+03  0.45338300993E+03 0.  0.
      99925    2    3    3    0    0 -0.81967061328E+02  0.70638927206E+02 -0.43589217382E+03  0.52034066405E+03  0.26276217820E+03 0.  0.
         25    1    4    4    0    0 -0.74511992441E+02  0.13583736405E+02 -0.21364469243E+03  0.25889789033E+03  0.12509000000E+03 0.  0.
         25    1    4    4    0    0 -0.74550688868E+01  0.57055190801E+02 -0.22224748138E+03  0.26144277372E+03  0.12509000000E+03 0.  0.
         25    1    3    3    0    0  0.81967061328E+02 -0.70638927206E+02 -0.18024653106E+03  0.24463192196E+03  0.12509000000E+03 0.  0.
<mgrwt>
<rscale>  2 0.45338301E+03</rscale>
<asrwt>0</asrwt>
<pdfrwt beam="1">  1       21 0.10943668E-01 0.45338301E+03</pdfrwt>
<pdfrwt beam="2">  1       21 0.10155230E+00 0.45338301E+03</pdfrwt>
<totfact> 0.50138975E+04</totfact>
</mgrwt>
</event>
<event>
 7    0  0.4712189E-002  0.4581675E+03  0.7546771E-02  0.1025314E+00
         21   -1    0    0  502  501  0.00000000000E+00  0.00000000000E+00  0.26481503263E+03  0.26481503263E+03  0.00000000000E+00 0.  1.
         21   -1    0    0  501  502 -0.00000000000E+00 -0.00000000000E+00 -0.19817367535E+03  0.19817367535E+03  0.00000000000E+00 0.  1.
      99926    2    1    2    0    0  0.00000000000E+00  0.00000000000E+00  0.66641357277E+02  0.46298870799E+03  0.45816751655E+03 0.  0.
      99925    2    3    3    0    0 -0.46382530407E+02 -0.39866081037E+02 -0.57860995976E+02  0.27620276738E+03  0.26305784593E+03 0.  0.
         25    1    3    3    0    0  0.46382530407E+02  0.39866081037E+02  0.12450235325E+03  0.18678594061E+03  0.12509000000E+03 0.  0.
         25    1    4    4    0    0 -0.24985646684E+02 -0.56471964660E+02 -0.49190234865E+02  0.14792076473E+03  0.12509000000E+03 0.  0.
         25    1    4    4    0    0 -0.21396883723E+02  0.16605883623E+02 -0.86707611109E+01  0.12828200264E+03  0.12509000000E+03 0.  0.
<mgrwt>
<rscale>  2 0.45816752E+03</rscale>
<asrwt>0</asrwt>
<pdfrwt beam="1">  1       21 0.38943387E-01 0.45816752E+03</pdfrwt>
<pdfrwt beam="2">  1       21 0.29143187E-01 0.45816752E+03</pdfrwt>
<totfact> 0.66273358E+04</totfact>
</mgrwt>
</event>
<event>
 7    0  0.4712189E-002  0.4575724E+03  0.7546771E-02  0.1025488E+00
         21   -1    0    0  502  501  0.00000000000E+00  0.00000000000E+00  0.90302674100E+02  0.90302674100E+02  0.00000000000E+00 0. -1.
         21   -1    0    0  501  502 -0.00000000000E+00 -0.00000000000E+00 -0.57964091922E+03  0.57964091922E+03  0.00000000000E+00 0. -1.
      99926    2    1    2    0    0  0.14210854715E-13 -0.14210854715E-13 -0.48933824511E+03  0.66994359332E+03  0.45757239874E+03 0.  0.
      99925    2    3    3    0    0  0.74876849462E+02 -0.84786031832E+02 -0.27048711220E+03  0.39364929323E+03  0.26268093653E+03 0.  0.
         25    1    4    4    0    0  0.14020733728E+02 -0.19921193387E+02 -0.86389797779E+02  0.15396148928E+03  0.12509000000E+03 0.  0.
         25    1    4    4    0    0  0.60856115734E+02 -0.64864838445E+02 -0.18409731442E+03  0.23968780395E+03  0.12509000000E+03 0.  0.
         25    1    3    3    0    0 -0.74876849462E+02  0.84786031832E+02 -0.21885113292E+03  0.27629430008E+03  0.12509000000E+03 0.  0.
<mgrwt>
<rscale>  2 0.45757240E+03</rscale>
<asrwt>0</asrwt>
<pdfrwt beam="1">  1       21 0.13279805E-01 0.45757240E+03</pdfrwt>
<pdfrwt beam="2">  1       21 0.85241312E-01 0.45757240E+03</pdfrwt>
<totfact> 0.53472832E+04</totfact>
</mgrwt>
</event>
<event>
 7    0  0.4712189E-002  0.4580534E+03  0.7546771E-02  0.1025347E+00
         21   -1    0    0  502  501  0.00000000000E+00  0.00000000000E+00  0.10378947413E+03  0.10378947413E+03  0.00000000000E+00 0. -1.
         21   -1    0    0  501  502 -0.00000000000E+00 -0.00000000000E+00 -0.50538106732E+03  0.50538106732E+03  0.00000000000E+00 0. -1.
      99926    2    1    2    0    0  0.00000000000E+00  0.00000000000E+00 -0.40159159320E+03  0.60917054145E+03  0.45805342576E+03 0.  0.
      99925    2    3    3    0    0 -0.80267837870E+02  0.35754236839E+01 -0.36329311856E+03  0.45564532948E+03  0.26301153365E+03 0.  0.
         25    1    3    3    0    0  0.80267837870E+02 -0.35754236839E+01 -0.38298474634E+02  0.15352521197E+03  0.12509000000E+03 0.  0.
         25    1    4    4    0    0 -0.42790237012E+02  0.32764301966E+01 -0.11564861173E+03  0.17568109993E+03  0.12509000000E+03 0.  0.
         25    1    4    4    0    0 -0.37477600858E+02  0.29899348731E+00 -0.24764450683E+03  0.27996422955E+03  0.12509000000E+03 0.  0.
<mgrwt>
<rscale>  2 0.45805343E+03</rscale>
<asrwt>0</asrwt>
<pdfrwt beam="1">  1       21 0.15263158E-01 0.45805343E+03</pdfrwt>
<pdfrwt beam="2">  1       21 0.74320745E-01 0.45805343E+03</pdfrwt>
<totfact> 0.56736416E+04</totfact>
</mgrwt>
</event>
<event>
 7    0  0.4712189E-002  0.4535253E+03  0.7546771E-02  0.1026676E+00
         21   -1    0    0  502  501  0.00000000000E+00  0.00000000000E+00  0.50235359222E+02  0.50235359222E+02  0.00000000000E+00 0.  1.
         21   -1    0    0  501  502 -0.00000000000E+00 -0.00000000000E+00 -0.10236074555E+04  0.10236074555E+04  0.00000000000E+00 0.  1.
      99926    2    1    2    0    0  0.00000000000E+00  0.00000000000E+00 -0.97337209624E+03  0.10738428147E+04  0.45352525057E+03 0.  0.
      99925    2    3    3    0    0 -0.50482887121E+02  0.40196913422E+02 -0.39716704283E+03  0.48069520623E+03  0.26298651608E+03 0.  0.
         25    1    4    4    0    0 -0.10693790767E+02  0.49610411939E+02 -0.15890440352E+03  0.20850339971E+03  0.12509000000E+03 0.  0.
         25    1    3    3    0    0  0.50482887121E+02 -0.40196913422E+02 -0.57620505341E+03  0.59314760846E+03  0.12509000000E+03 0.  0.
         25    1    4    4    0    0 -0.39789096353E+02 -0.94134985170E+01 -0.23826263931E+03  0.27219180652E+03  0.12509000000E+03 0.  0.
<mgrwt>
<rscale>  2 0.45352525E+03</rscale>
<asrwt>0</asrwt>
<pdfrwt beam="1">  1       21 0.73875527E-02 0.45352525E+03</pdfrwt>
<pdfrwt beam="2">  1       21 0.15053051E+00 0.45352525E+03</pdfrwt>
<totfact> 0.36836597E+04</totfact>
</mgrwt>
</event>
<event>
 7    0  0.4712189E-002  0.3974537E+03  0.7546771E-02  0.1044665E+00
         21   -1    0    0  502  501  0.00000000000E+00  0.00000000000E+00  0.45254314450E+02  0.45254314450E+02  0.00000000000E+00 0.  1.
         21   -1    0    0  501  502 -0.00000000000E+00 -0.00000000000E+00 -0.87267617728E+03  0.87267617728E+03  0.00000000000E+00 0.  1.
      99926    2    1    2    0    0  0.00000000000E+00  0.00000000000E+00 -0.82742186283E+03  0.91793049173E+03  0.39745370618E+03 0.  0.
      99925    2    3    3    0    0  0.19741902867E+02 -0.33178080305E+02 -0.52704709264E+03  0.59026749656E+03  0.26295731951E+03 0.  0.
         25    1    4    4    0    0  0.86409131712E+01  0.14135655322E+02 -0.19659861107E+03  0.23360865589E+03  0.12509000000E+03 0.  0.
         25    1    4    4    0    0  0.11100989696E+02 -0.47313735626E+02 -0.33044848158E+03  0.35665884067E+03  0.12509000000E+03 0.  0.
         25    1    3    3    0    0 -0.19741902867E+02  0.33178080305E+02 -0.30037477019E+03  0.32766299518E+03  0.12509000000E+03 0.  0.
<mgrwt>
<rscale>  2 0.39745371E+03</rscale>
<asrwt>0</asrwt>
<pdfrwt beam="1">  1       21 0.66550468E-02 0.39745371E+03</pdfrwt>
<pdfrwt beam="2">  1       21 0.12833472E+00 0.39745371E+03</pdfrwt>
<totfact> 0.68484015E+04</totfact>
</mgrwt>
</event>
<event>
 7    0  0.4712189E-002  0.4555551E+03  0.7546771E-02  0.1026078E+00
         21   -1    0    0  502  501  0.00000000000E+00  0.00000000000E+00  0.17224170987E+03  0.17224170987E+03  0.00000000000E+00 0. -1.
         21   -1    0    0  501  502 -0.00000000000E+00 -0.00000000000E+00 -0.30121972912E+03  0.30121972912E+03  0.00000000000E+00 0. -1.
      99926    2    1    2    0    0  0.14210854715E-13  0.35527136788E-14 -0.12897801925E+03  0.47346143899E+03  0.45555505130E+03 0.  0.
      99925    2    3    3    0    0 -0.10686128013E+03  0.31966760601E+02 -0.10402809038E+03  0.30401760161E+03  0.26298983160E+03 0.  0.
         25    1    4    4    0    0 -0.38620649924E+02 -0.16946114699E+02 -0.26719443369E+02  0.13468541925E+03  0.12509000000E+03 0.  0.
         25    1    3    3    0    0  0.10686128013E+03 -0.31966760601E+02 -0.24949928870E+02  0.16944383738E+03  0.12509000000E+03 0.  0.
         25    1    4    4    0    0 -0.68240630211E+02  0.48912875300E+02 -0.77308647010E+02  0.16933218236E+03  0.12509000000E+03 0.  0.
<mgrwt>
<rscale>  2 0.45555505E+03</rscale>
<asrwt>0</asrwt>
<pdfrwt beam="1">  1       21 0.25329664E-01 0.45555505E+03</pdfrwt>
<pdfrwt beam="2">  1       21 0.44297018E-01 0.45555505E+03</pdfrwt>
<totfact> 0.66884197E+04</totfact>
</mgrwt>
</event>
<event>
 7    0  0.4712189E-002  0.4541817E+03  0.7546771E-02  0.1026482E+00
         21   -1    0    0  502  501  0.00000000000E+00  0.00000000000E+00  0.12472224105E+03  0.12472224105E+03  0.00000000000E+00 0.  1.
         21   -1    0    0  501  502 -0.00000000000E+00 -0.00000000000E+00 -0.41348088677E+03  0.41348088677E+03  0.00000000000E+00 0.  1.
      99926    2    1    2    0    0  0.00000000000E+00  0.14210854715E-13 -0.28875864572E+03  0.53820312782E+03  0.45418173820E+03 0.  0.
      99925    2    3    3    0    0 -0.79797713747E+02  0.72295039751E+02 -0.14371713875E+03  0.31847876700E+03  0.26302064780E+03 0.  0.
         25    1    4    4    0    0 -0.26518038973E+02  0.73395241854E+02 -0.62800511180E+02  0.16025442341E+03  0.12509000000E+03 0.  0.
         25    1    3    3    0    0  0.79797713747E+02 -0.72295039751E+02 -0.14504150698E+03  0.21972436082E+03  0.12509000000E+03 0.  0.
         25    1    4    4    0    0 -0.53279674774E+02 -0.11002021026E+01 -0.80916627566E+02  0.15822434359E+03  0.12509000000E+03 0.  0.
<mgrwt>
<rscale>  2 0.45418174E+03</rscale>
<asrwt>0</asrwt>
<pdfrwt beam="1">  1       21 0.18341506E-01 0.45418174E+03</pdfrwt>
<pdfrwt beam="2">  1       21 0.60806014E-01 0.45418174E+03</pdfrwt>
<totfact> 0.63060238E+04</totfact>
</mgrwt>
</event>
<event>
 7    0  0.4712189E-002  0.4558015E+03  0.7546771E-02  0.1026006E+00
         21   -1    0    0  502  501  0.00000000000E+00  0.00000000000E+00  0.13316715762E+03  0.13316715762E+03  0.00000000000E+00 0.  1.
         21   -1    0    0  501  502 -0.00000000000E+00 -0.00000000000E+00 -0.39002667605E+03  0.39002667605E+03  0.00000000000E+00 0.  1.
      99926    2    1    2    0    0  0.00000000000E+00  0.00000000000E+00 -0.25685951843E+03  0.52319383368E+03  0.45580146489E+03 0.  0.
      99925    2    3    3    0    0 -0.96597103701E+02  0.39274146380E+02 -0.11238787606E+03  0.30549444791E+03  0.26423921738E+03 0.  0.
         25    1    3    3    0    0  0.96597103701E+02 -0.39274146380E+02 -0.14447164236E+03  0.21769938577E+03  0.12509000000E+03 0.  0.
         25    1    4    4    0    0 -0.11851551199E+02  0.44911125147E+01 -0.73532098468E+02  0.14565406607E+03  0.12509000000E+03 0.  0.
         25    1    4    4    0    0 -0.84745552502E+02  0.34783033865E+02 -0.38855777596E+02  0.15984038184E+03  0.12509000000E+03 0.  0.
<mgrwt>
<rscale>  2 0.45580146E+03</rscale>
<asrwt>0</asrwt>
<pdfrwt beam="1">  1       21 0.19583406E-01 0.45580146E+03</pdfrwt>
<pdfrwt beam="2">  1       21 0.57356863E-01 0.45580146E+03</pdfrwt>
<totfact> 0.63266619E+04</totfact>
</mgrwt>
</event>
<event>
 7    0  0.4712189E-002  0.4465159E+03  0.7546771E-02  0.1028766E+00
         21   -1    0    0  502  501  0.00000000000E+00  0.00000000000E+00  0.70316114108E+03  0.70316114108E+03  0.00000000000E+00 0. -1.
         21   -1    0    0  501  502 -0.00000000000E+00 -0.00000000000E+00 -0.70885746545E+02  0.70885746545E+02  0.00000000000E+00 0. -1.
      99926    2    1    2    0    0  0.00000000000E+00  0.00000000000E+00  0.63227539454E+03  0.77404688763E+03  0.44651585606E+03 0.  0.
      99925    2    3    3    0    0  0.82497065297E+02 -0.52013800230E+01  0.51298998361E+03  0.58245007791E+03  0.26316639190E+03 0.  0.
         25    1    4    4    0    0  0.81406610412E+02 -0.19075881601E+01  0.30847361879E+03  0.34268667424E+03  0.12509000000E+03 0.  0.
         25    1    4    4    0    0  0.10904548851E+01 -0.32937918629E+01  0.20451636483E+03  0.23976340367E+03  0.12509000000E+03 0.  0.
         25    1    3    3    0    0 -0.82497065297E+02  0.52013800230E+01  0.11928541092E+03  0.19159680972E+03  0.12509000000E+03 0.  0.
<mgrwt>
<rscale>  2 0.44651586E+03</rscale>
<asrwt>0</asrwt>
<pdfrwt beam="1">  1       21 0.10340605E+00 0.44651586E+03</pdfrwt>
<pdfrwt beam="2">  1       21 0.10424375E-01 0.44651586E+03</pdfrwt>
<totfact> 0.52452802E+04</totfact>
</mgrwt>
</event>
<event>
 7    0  0.4712189E-002  0.4558089E+03  0.7546771E-02  0.1026004E+00
         21   -1    0    0  502  501  0.00000000000E+00  0.00000000000E+00  0.12288752042E+03  0.12288752042E+03  0.00000000000E+00 0.  1.
         21   -1    0    0  501  502 -0.00000000000E+00 -0.00000000000E+00 -0.42266651519E+03  0.42266651519E+03  0.00000000000E+00 0.  1.
      99926    2    1    2    0    0  0.00000000000E+00  0.00000000000E+00 -0.29977899477E+03  0.54555403561E+03  0.45580890740E+03 0.  0.
      99925    2    3    3    0    0  0.92031021404E+02 -0.62491410018E+02 -0.21748152579E+03  0.35901914148E+03  0.26310006588E+03 0.  0.
         25    1    3    3    0    0 -0.92031021404E+02  0.62491410018E+02 -0.82297468981E+02  0.18653489413E+03  0.12509000000E+03 0.  0.
         25    1    4    4    0    0  0.20794962391E+02 -0.55446723730E+02 -0.80097333241E+02  0.15990578640E+03  0.12509000000E+03 0.  0.
         25    1    4    4    0    0  0.71236059013E+02 -0.70446862873E+01 -0.13738419255E+03  0.19911335508E+03  0.12509000000E+03 0.  0.
<mgrwt>
<rscale>  2 0.45580891E+03</rscale>
<asrwt>0</asrwt>
<pdfrwt beam="1">  1       21 0.18071694E-01 0.45580891E+03</pdfrwt>
<pdfrwt beam="2">  1       21 0.62156841E-01 0.45580891E+03</pdfrwt>
<totfact> 0.61764973E+04</totfact>
</mgrwt>
</event>
<event>
 7    0  0.4712189E-002  0.4525009E+03  0.7546771E-02  0.1026979E+00
         21   -1    0    0  502  501  0.00000000000E+00  0.00000000000E+00  0.93470927500E+02  0.93470927500E+02  0.00000000000E+00 0. -1.
         21   -1    0    0  501  502 -0.00000000000E+00 -0.00000000000E+00 -0.54764906083E+03  0.54764906083E+03  0.00000000000E+00 0. -1.
      99926    2    1    2    0    0  0.14210854715E-13  0.71054273576E-14 -0.45417813333E+03  0.64111998833E+03  0.45250089795E+03 0.  0.
      99925    2    3    3    0    0  0.89330342721E+02  0.61752371108E+02 -0.25569344306E+03  0.38259156467E+03  0.26306634727E+03 0.  0.
         25    1    4    4    0    0  0.74058305665E+02  0.30555249860E+01 -0.12389789650E+03  0.19102922742E+03  0.12509000000E+03 0.  0.
         25    1    3    3    0    0 -0.89330342721E+02 -0.61752371108E+02 -0.19848469028E+03  0.25852842366E+03  0.12509000000E+03 0.  0.
         25    1    4    4    0    0  0.15272037056E+02  0.58696846122E+02 -0.13179554655E+03  0.19156233725E+03  0.12509000000E+03 0.  0.
<mgrwt>
<rscale>  2 0.45250090E+03</rscale>
<asrwt>0</asrwt>
<pdfrwt beam="1">  1       21 0.13745725E-01 0.45250090E+03</pdfrwt>
<pdfrwt beam="2">  1       21 0.80536624E-01 0.45250090E+03</pdfrwt>
<totfact> 0.57338398E+04</totfact>
</mgrwt>
</event>
<event>
 7    0  0.4712189E-002  0.4581808E+03  0.7546771E-02  0.1025310E+00
         21   -1    0    0  502  501  0.00000000000E+00  0.00000000000E+00  0.19977261828E+03  0.19977261828E+03  0.00000000000E+00 0. -1.
         21   -1    0    0  501  502 -0.00000000000E+00 -0.00000000000E+00 -0.26271070105E+03  0.26271070105E+03  0.00000000000E+00 0. -1.
      99926    2    1    2    0    0  0.14210854715E-13  0.00000000000E+00 -0.62938082769E+02  0.46248331933E+03  0.45818077043E+03 0.  0.
      99925    2    3    3    0    0 -0.89841385125E+02  0.36250312366E+02  0.25440039836E+02  0.28125484396E+03  0.26281463429E+03 0.  0.
         25    1    3    3    0    0  0.89841385125E+02 -0.36250312366E+02 -0.88378122606E+02  0.18122847537E+03  0.12509000000E+03 0.  0.
         25    1    4    4    0    0 -0.84338870733E+02  0.33389694224E+02  0.20952289603E+02  0.15593082869E+03  0.12509000000E+03 0.  0.
         25    1    4    4    0    0 -0.55025143919E+01  0.28606181416E+01  0.44877502333E+01  0.12532401527E+03  0.12509000000E+03 0.  0.
<mgrwt>
<rscale>  2 0.45818077E+03</rscale>
<asrwt>0</asrwt>
<pdfrwt beam="1">  1       21 0.29378326E-01 0.45818077E+03</pdfrwt>
<pdfrwt beam="2">  1       21 0.38633926E-01 0.45818077E+03</pdfrwt>
<totfact> 0.66302126E+04</totfact>
</mgrwt>
</event>
<event>
 7    0  0.4712189E-002  0.4692278E+03  0.7546771E-02  0.1022138E+00
         21   -1    0    0  502  501  0.00000000000E+00  0.00000000000E+00  0.33534877683E+03  0.33534877683E+03  0.00000000000E+00 0. -1.
         21   -1    0    0  501  502 -0.00000000000E+00 -0.00000000000E+00 -0.16413857905E+03  0.16413857905E+03  0.00000000000E+00 0. -1.
      99926    2    1    2    0    0  0.00000000000E+00  0.00000000000E+00  0.17121019778E+03  0.49948735588E+03  0.46922775585E+03 0.  0.
      99925    2    3    3    0    0  0.70672862915E+02 -0.95569485120E+02  0.61716263066E+02  0.29512344058E+03  0.26298434937E+03 0.  0.
         25    1    3    3    0    0 -0.70672862915E+02  0.95569485120E+02  0.10949393471E+03  0.20436391530E+03  0.12509000000E+03 0.  0.
         25    1    4    4    0    0  0.51752473146E+02 -0.40373263691E+02 -0.59704268499E+01  0.14139120551E+03  0.12509000000E+03 0.  0.
         25    1    4    4    0    0  0.18920389769E+02 -0.55196221429E+02  0.67686689915E+02  0.15373223507E+03  0.12509000000E+03 0.  0.
<mgrwt>
<rscale>  2 0.46922776E+03</rscale>
<asrwt>0</asrwt>
<pdfrwt beam="1">  1       21 0.49315997E-01 0.46922776E+03</pdfrwt>
<pdfrwt beam="2">  1       21 0.24138026E-01 0.46922776E+03</pdfrwt>
<totfact> 0.58423738E+04</totfact>
</mgrwt>
</event>
<event>
 7    0  0.4712189E-002  0.4207098E+03  0.7546771E-02  0.1036836E+00
         21   -1    0    0  502  501  0.00000000000E+00  0.00000000000E+00  0.42540150325E+02  0.42540150325E+02  0.00000000000E+00 0. -1.
         21   -1    0    0  501  502 -0.00000000000E+00 -0.00000000000E+00 -0.10401746142E+04  0.10401746142E+04  0.00000000000E+00 0. -1.
      99926    2    1    2    0    0 -0.17763568394E-14 -0.35527136788E-14 -0.99763446390E+03  0.10827147645E+04  0.42070980237E+03 0.  0.
      99925    2    3    3    0    0  0.11459999635E+02 -0.30729002200E+02 -0.82807018469E+03  0.86946571754E+03  0.26304904491E+03 0.  0.
         25    1    3    3    0    0 -0.11459999635E+02  0.30729002200E+02 -0.16956427920E+03  0.21324904701E+03  0.12509000000E+03 0.  0.
         25    1    4    4    0    0 -0.25913435899E+02  0.81801919966E+01 -0.43599722123E+03  0.45440016144E+03  0.12509000000E+03 0.  0.
         25    1    4    4    0    0  0.37373435534E+02 -0.38909194197E+02 -0.39207296347E+03  0.41506555610E+03  0.12509000000E+03 0.  0.
<mgrwt>
<rscale>  2 0.42070980E+03</rscale>
<asrwt>0</asrwt>
<pdfrwt beam="1">  1       21 0.62559043E-02 0.42070980E+03</pdfrwt>
<pdfrwt beam="2">  1       21 0.15296686E+00 0.42070980E+03</pdfrwt>
<totfact> 0.47620346E+04</totfact>
</mgrwt>
</event>
<event>
 7    0  0.4712189E-002  0.4558146E+03  0.7546771E-02  0.1026002E+00
         21   -1    0    0  502  501  0.00000000000E+00  0.00000000000E+00  0.10915875699E+03  0.10915875699E+03  0.00000000000E+00 0. -1.
         21   -1    0    0  501  502 -0.00000000000E+00 -0.00000000000E+00 -0.47583666938E+03  0.47583666938E+03  0.00000000000E+00 0. -1.
      99926    2    1    2    0    0  0.00000000000E+00  0.00000000000E+00 -0.36667791239E+03  0.58499542637E+03  0.45581460863E+03 0.  0.
      99925    2    3    3    0    0 -0.35317680915E+02  0.13502018723E+02 -0.36845331437E+03  0.45430379218E+03  0.26306738230E+03 0.  0.
         25    1    3    3    0    0  0.35317680915E+02 -0.13502018723E+02  0.17754019756E+01  0.13069163419E+03  0.12509000000E+03 0.  0.
         25    1    4    4    0    0 -0.51097056959E+02  0.74485392609E+01 -0.23070880667E+03  0.26747046854E+03  0.12509000000E+03 0.  0.
         25    1    4    4    0    0  0.15779376044E+02  0.60534794625E+01 -0.13774450770E+03  0.18683332365E+03  0.12509000000E+03 0.  0.
<mgrwt>
<rscale>  2 0.45581461E+03</rscale>
<asrwt>0</asrwt>
<pdfrwt beam="1">  1       21 0.16052758E-01 0.45581461E+03</pdfrwt>
<pdfrwt beam="2">  1       21 0.69975983E-01 0.45581461E+03</pdfrwt>
<totfact> 0.59229162E+04</totfact>
</mgrwt>
</event>
<event>
 7    0  0.4712189E-002  0.4545359E+03  0.7546771E-02  0.1026378E+00
         21   -1    0    0  502  501  0.00000000000E+00  0.00000000000E+00  0.13200064651E+03  0.13200064651E+03  0.00000000000E+00 0. -1.
         21   -1    0    0  501  502 -0.00000000000E+00 -0.00000000000E+00 -0.39129138999E+03  0.39129138999E+03  0.00000000000E+00 0. -1.
      99926    2    1    2    0    0 -0.35527136788E-14 -0.14210854715E-13 -0.25929074349E+03  0.52329203650E+03  0.45453587956E+03 0.  0.
      99925    2    3    3    0    0  0.27188345921E+02  0.10963609227E+03 -0.16519570960E+03  0.33026182543E+03  0.26272413666E+03 0.  0.
         25    1    3    3    0    0 -0.27188345921E+02 -0.10963609227E+03 -0.94095033883E+02  0.19303021107E+03  0.12509000000E+03 0.  0.
         25    1    4    4    0    0  0.26256089562E+02  0.47594066732E+02 -0.38507132328E+02  0.14172115145E+03  0.12509000000E+03 0.  0.
         25    1    4    4    0    0  0.93225635892E+00  0.62042025542E+02 -0.12668857728E+03  0.18854067399E+03  0.12509000000E+03 0.  0.
<mgrwt>
<rscale>  2 0.45453588E+03</rscale>
<asrwt>0</asrwt>
<pdfrwt beam="1">  1       21 0.19411860E-01 0.45453588E+03</pdfrwt>
<pdfrwt beam="2">  1       21 0.57542851E-01 0.45453588E+03</pdfrwt>
<totfact> 0.63897644E+04</totfact>
</mgrwt>
</event>
<event>
 7    0  0.4712189E-002  0.4578181E+03  0.7546771E-02  0.1025416E+00
         21   -1    0    0  502  501  0.00000000000E+00  0.00000000000E+00  0.37917499402E+03  0.37917499402E+03  0.00000000000E+00 0.  1.
         21   -1    0    0  501  502 -0.00000000000E+00 -0.00000000000E+00 -0.13819307359E+03  0.13819307359E+03  0.00000000000E+00 0.  1.
      99926    2    1    2    0    0  0.00000000000E+00 -0.88817841970E-15  0.24098192043E+03  0.51736806762E+03  0.45781812045E+03 0.  0.
      99925    2    3    3    0    0 -0.64510172560E+02 -0.63930213210E+01  0.25971881528E+03  0.37523780196E+03  0.26295838440E+03 0.  0.
         25    1    4    4    0    0 -0.46354249849E+02 -0.31627677462E+02  0.16900328230E+03  0.21762041262E+03  0.12509000000E+03 0.  0.
         25    1    4    4    0    0 -0.18155922711E+02  0.25234656141E+02  0.90715532974E+02  0.15761738934E+03  0.12509000000E+03 0.  0.
         25    1    3    3    0    0  0.64510172560E+02  0.63930213210E+01 -0.18736894848E+02  0.14213026565E+03  0.12509000000E+03 0.  0.
<mgrwt>
<rscale>  2 0.45781812E+03</rscale>
<asrwt>0</asrwt>
<pdfrwt beam="1">  1       21 0.55761028E-01 0.45781812E+03</pdfrwt>
<pdfrwt beam="2">  1       21 0.20322511E-01 0.45781812E+03</pdfrwt>
<totfact> 0.62654137E+04</totfact>
</mgrwt>
</event>
<event>
 7    0  0.4712189E-002  0.4486201E+03  0.7546771E-02  0.1028134E+00
         21   -1    0    0  502  501  0.00000000000E+00  0.00000000000E+00  0.32215529074E+03  0.32215529074E+03  0.00000000000E+00 0.  1.
         21   -1    0    0  501  502 -0.00000000000E+00 -0.00000000000E+00 -0.15618241736E+03  0.15618241736E+03  0.00000000000E+00 0.  1.
      99926    2    1    2    0    0 -0.35527136788E-14  0.00000000000E+00  0.16597287338E+03  0.47833770810E+03  0.44862007121E+03 0.  0.
      99925    2    3    3    0    0  0.29698921670E+02 -0.56198009624E+02  0.19694417804E+03  0.33464716545E+03  0.26298569134E+03 0.  0.
         25    1    3    3    0    0 -0.29698921670E+02  0.56198009624E+02 -0.30971304658E+02  0.14369054265E+03  0.12509000000E+03 0.  0.
         25    1    4    4    0    0 -0.13605129964E+02 -0.45545054152E+02  0.12728665684E+03  0.18468582140E+03  0.12509000000E+03 0.  0.
         25    1    4    4    0    0  0.43304051634E+02 -0.10652955472E+02  0.69657521199E+02  0.14996134404E+03  0.12509000000E+03 0.  0.
<mgrwt>
<rscale>  2 0.44862007E+03</rscale>
<asrwt>0</asrwt>
<pdfrwt beam="1">  1       21 0.47375778E-01 0.44862007E+03</pdfrwt>
<pdfrwt beam="2">  1       21 0.22968002E-01 0.44862007E+03</pdfrwt>
<totfact> 0.70315379E+04</totfact>
</mgrwt>
</event>
<event>
 7    0  0.4712189E-002  0.4345863E+03  0.7546771E-02  0.1032421E+00
         21   -1    0    0  502  501  0.00000000000E+00  0.00000000000E+00  0.71320769198E+03  0.71320769198E+03  0.00000000000E+00 0. -1.
         21   -1    0    0  501  502 -0.00000000000E+00 -0.00000000000E+00 -0.66202741618E+02  0.66202741618E+02  0.00000000000E+00 0. -1.
      99926    2    1    2    0    0 -0.35527136788E-14  0.00000000000E+00  0.64700495036E+03  0.77941043359E+03  0.43458626095E+03 0.  0.
      99925    2    3    3    0    0 -0.10845463604E+02  0.35296170555E+02  0.26255430397E+03  0.37343845014E+03  0.26297921929E+03 0.  0.
         25    1    4    4    0    0  0.31065029853E+02  0.31208283145E+02  0.11574634934E+03  0.17602192620E+03  0.12509000000E+03 0.  0.
         25    1    4    4    0    0 -0.41910493457E+02  0.40878874103E+01  0.14680795463E+03  0.19741652395E+03  0.12509000000E+03 0.  0.
         25    1    3    3    0    0  0.10845463604E+02 -0.35296170555E+02  0.38445064639E+03  0.40597198345E+03  0.12509000000E+03 0.  0.
<mgrwt>
<rscale>  2 0.43458626E+03</rscale>
<asrwt>0</asrwt>
<pdfrwt beam="1">  1       21 0.10488348E+00 0.43458626E+03</pdfrwt>
<pdfrwt beam="2">  1       21 0.97356977E-02 0.43458626E+03</pdfrwt>
<totfact> 0.57443105E+04</totfact>
</mgrwt>
</event>
<event>
 7    0  0.4712189E-002  0.4588393E+03  0.7546771E-02  0.1025118E+00
         21   -1    0    0  502  501  0.00000000000E+00  0.00000000000E+00  0.92738695817E+03  0.92738695817E+03  0.00000000000E+00 0.  1.
         21   -1    0    0  501  502 -0.00000000000E+00 -0.00000000000E+00 -0.56754480504E+02  0.56754480504E+02  0.00000000000E+00 0.  1.
      99926    2    1    2    0    0  0.00000000000E+00  0.22204460493E-15  0.87063247767E+03  0.98414143868E+03  0.45883925306E+03 0.  0.
      99925    2    3    3    0    0 -0.60559603708E+02  0.18816983990E+01  0.75998781746E+03  0.80648796890E+03  0.26300257585E+03 0.  0.
         25    1    4    4    0    0 -0.17901246641E+02  0.38400038437E+02  0.34378368063E+03  0.36827943840E+03  0.12509000000E+03 0.  0.
         25    1    3    3    0    0  0.60559603708E+02 -0.18816983990E+01  0.11064466021E+03  0.17765346977E+03  0.12509000000E+03 0.  0.
         25    1    4    4    0    0 -0.42658357066E+02 -0.36518340038E+02  0.41620413683E+03  0.43820853050E+03  0.12509000000E+03 0.  0.
<mgrwt>
<rscale>  2 0.45883925E+03</rscale>
<asrwt>0</asrwt>
<pdfrwt beam="1">  1       21 0.13638043E+00 0.45883925E+03</pdfrwt>
<pdfrwt beam="2">  1       21 0.83462476E-02 0.45883925E+03</pdfrwt>
<totfact> 0.38616163E+04</totfact>
</mgrwt>
</event>
<event>
 7    0  0.4712189E-002  0.4523995E+03  0.7546771E-02  0.1027009E+00
         21   -1    0    0  502  501  0.00000000000E+00  0.00000000000E+00  0.55047481142E+03  0.55047481142E+03  0.00000000000E+00 0. -1.
         21   -1    0    0  501  502 -0.00000000000E+00 -0.00000000000E+00 -0.92949457153E+02  0.92949457153E+02  0.00000000000E+00 0. -1.
      99926    2    1    2    0    0  0.00000000000E+00  0.00000000000E+00  0.45752535427E+03  0.64342426857E+03  0.45239953536E+03 0.  0.
      99925    2    3    3    0    0 -0.83410397449E+02 -0.29256880066E+02  0.38267353156E+03  0.47294387997E+03  0.26348362837E+03 0.  0.
         25    1    3    3    0    0  0.83410397449E+02  0.29256880066E+02  0.74851822710E+02  0.17048038860E+03  0.12509000000E+03 0.  0.
         25    1    4    4    0    0 -0.28654203503E+02  0.15552634987E+02  0.22586312724E+03  0.26023952079E+03  0.12509000000E+03 0.  0.
         25    1    4    4    0    0 -0.54756193946E+02 -0.44809515052E+02  0.15681040432E+03  0.21270435919E+03  0.12509000000E+03 0.  0.
<mgrwt>
<rscale>  2 0.45239954E+03</rscale>
<asrwt>0</asrwt>
<pdfrwt beam="1">  1       21 0.80952177E-01 0.45239954E+03</pdfrwt>
<pdfrwt beam="2">  1       21 0.13669038E-01 0.45239954E+03</pdfrwt>
<totfact> 0.57247561E+04</totfact>
</mgrwt>
</event>
<event>
 6    0  0.4712189E-002  0.4556186E+03  0.7546771E-02  0.1026060E+00
         21   -1    0    0  502  501  0.00000000000E+00  0.00000000000E+00  0.59167911083E+02  0.59167911083E+02  0.00000000000E+00 0.  1.
         21   -1    0    0  501  502 -0.00000000000E+00 -0.00000000000E+00 -0.87711529489E+03  0.87711529489E+03  0.00000000000E+00 0.  1.
      99926    2    1    2    0    0  0.00000000000E+00  0.00000000000E+00 -0.81794738380E+03  0.93628320597E+03  0.45561861146E+03 0.  0.
         25    1    3    3    0    0 -0.46361776494E+02  0.19337545137E+02 -0.44463177279E+03  0.46461626795E+03  0.12509000000E+03 0.  0.
         25    1    3    3    0    0  0.74968201279E+02 -0.15453695230E+02 -0.12741035073E+03  0.19426773657E+03  0.12509000000E+03 0.  0.
         25    1    3    3    0    0 -0.28606424785E+02 -0.38838499071E+01 -0.24590526028E+03  0.27739920144E+03  0.12509000000E+03 0.  0.
<mgrwt>
<rscale>  2 0.45561861E+03</rscale>
<asrwt>0</asrwt>
<pdfrwt beam="1">  1       21 0.87011638E-02 0.45561861E+03</pdfrwt>
<pdfrwt beam="2">  1       21 0.12898754E+00 0.45561861E+03</pdfrwt>
<totfact> 0.41500143E+04</totfact>
</mgrwt>
</event>
<event>
 7    0  0.4712189E-002  0.4538163E+03  0.7546771E-02  0.1026590E+00
         21   -1    0    0  502  501  0.00000000000E+00  0.00000000000E+00  0.42813279463E+03  0.42813279463E+03  0.00000000000E+00 0.  1.
         21   -1    0    0  501  502 -0.00000000000E+00 -0.00000000000E+00 -0.12026012812E+03  0.12026012812E+03  0.00000000000E+00 0.  1.
      99926    2    1    2    0    0  0.14210854715E-13  0.14210854715E-13  0.30787266651E+03  0.54839292275E+03  0.45381628324E+03 0.  0.
      99925    2    3    3    0    0 -0.76650648189E+02 -0.69792767509E+02  0.24535778836E+03  0.37431831129E+03  0.26299696118E+03 0.  0.
         25    1    3    3    0    0  0.76650648189E+02  0.69792767509E+02  0.62514878154E+02  0.17407461146E+03  0.12509000000E+03 0.  0.
         25    1    4    4    0    0 -0.43640537962E+02  0.45331681927E+01  0.10037265963E+03  0.16627454727E+03  0.12509000000E+03 0.  0.
         25    1    4    4    0    0 -0.33010110227E+02 -0.74325935702E+02  0.14498512872E+03  0.20804376402E+03  0.12509000000E+03 0.  0.
<mgrwt>
<rscale>  2 0.45381628E+03</rscale>
<asrwt>0</asrwt>
<pdfrwt beam="1">  1       21 0.62960705E-01 0.45381628E+03</pdfrwt>
<pdfrwt beam="2">  1       21 0.17685313E-01 0.45381628E+03</pdfrwt>
<totfact> 0.62556673E+04</totfact>
</mgrwt>
</event>
<event>
 7    0  0.4712189E-002  0.4420458E+03  0.7546771E-02  0.1030121E+00
         21   -1    0    0  502  501  0.00000000000E+00  0.00000000000E+00  0.95142038236E+02  0.95142038236E+02  0.00000000000E+00 0.  1.
         21   -1    0    0  501  502 -0.00000000000E+00 -0.00000000000E+00 -0.51345458679E+03  0.51345458679E+03  0.00000000000E+00 0.  1.
      99926    2    1    2    0    0  0.00000000000E+00  0.00000000000E+00 -0.41831254855E+03  0.60859662503E+03  0.44204577106E+03 0.  0.
      99925    2    3    3    0    0  0.12975333848E+02  0.60752895916E+02 -0.15752101137E+03  0.31276050888E+03  0.26295815873E+03 0.  0.
         25    1    4    4    0    0  0.92927493092E+00  0.17947558452E+01 -0.41385254695E+02  0.13177379143E+03  0.12509000000E+03 0.  0.
         25    1    4    4    0    0  0.12046058917E+02  0.58958140070E+02 -0.11613575668E+03  0.18098671745E+03  0.12509000000E+03 0.  0.
         25    1    3    3    0    0 -0.12975333848E+02 -0.60752895916E+02 -0.26079153718E+03  0.29583611615E+03  0.12509000000E+03 0.  0.
<mgrwt>
<rscale>  2 0.44204577E+03</rscale>
<asrwt>0</asrwt>
<pdfrwt beam="1">  1       21 0.13991477E-01 0.44204577E+03</pdfrwt>
<pdfrwt beam="2">  1       21 0.75508026E-01 0.44204577E+03</pdfrwt>
<totfact> 0.64503231E+04</totfact>
</mgrwt>
</event>
<event>
 7    0  0.4712189E-002  0.4576207E+03  0.7546771E-02  0.1025474E+00
         21   -1    0    0  502  501  0.00000000000E+00  0.00000000000E+00  0.40992584081E+03  0.40992584081E+03  0.00000000000E+00 0.  1.
         21   -1    0    0  501  502 -0.00000000000E+00 -0.00000000000E+00 -0.12771623737E+03  0.12771623737E+03  0.00000000000E+00 0.  1.
      99926    2    1    2    0    0 -0.71054273576E-14 -0.14210854715E-13  0.28220960344E+03  0.53764207817E+03  0.45762074248E+03 0.  0.
      99925    2    3    3    0    0  0.59279379738E+02  0.86369110006E+02  0.11965002370E+03  0.30732318383E+03  0.26297859822E+03 0.  0.
         25    1    4    4    0    0 -0.61819992126E+00  0.37189170309E+02  0.86246403385E+02  0.15642687351E+03  0.12509000000E+03 0.  0.
         25    1    3    3    0    0 -0.59279379738E+02 -0.86369110006E+02  0.16255957974E+03  0.23031889434E+03  0.12509000000E+03 0.  0.
         25    1    4    4    0    0  0.59897579659E+02  0.49179939697E+02  0.33403620310E+02  0.15089631032E+03  0.12509000000E+03 0.  0.
<mgrwt>
<rscale>  2 0.45762074E+03</rscale>
<asrwt>0</asrwt>
<pdfrwt beam="1">  1       21 0.60283212E-01 0.45762074E+03</pdfrwt>
<pdfrwt beam="2">  1       21 0.18781800E-01 0.45762074E+03</pdfrwt>
<totfact> 0.61406744E+04</totfact>
</mgrwt>
</event>
<event>
 7    0  0.4712189E-002  0.4563338E+03  0.7546771E-02  0.1025850E+00
         21   -1    0    0  502  501  0.00000000000E+00  0.00000000000E+00  0.40948704845E+03  0.40948704845E+03  0.00000000000E+00 0.  1.
         21   -1    0    0  501  502 -0.00000000000E+00 -0.00000000000E+00 -0.12713496826E+03  0.12713496826E+03  0.00000000000E+00 0.  1.
      99926    2    1    2    0    0  0.00000000000E+00  0.00000000000E+00  0.28235208019E+03  0.53662201672E+03  0.45633375027E+03 0.  0.
      99925    2    3    3    0    0 -0.10597861367E+03  0.39966243867E+02  0.19495634248E+03  0.34658441445E+03  0.26321856634E+03 0.  0.
         25    1    4    4    0    0 -0.24955361926E+02  0.46123793655E+02  0.73802191637E+02  0.15441646940E+03  0.12509000000E+03 0.  0.
         25    1    3    3    0    0  0.10597861367E+03 -0.39966243867E+02  0.87395737714E+02  0.19003760226E+03  0.12509000000E+03 0.  0.
         25    1    4    4    0    0 -0.81023251741E+02 -0.61575497882E+01  0.12115415084E+03  0.19216794506E+03  0.12509000000E+03 0.  0.
<mgrwt>
<rscale>  2 0.45633375E+03</rscale>
<asrwt>0</asrwt>
<pdfrwt beam="1">  1       21 0.60218683E-01 0.45633375E+03</pdfrwt>
<pdfrwt beam="2">  1       21 0.18696319E-01 0.45633375E+03</pdfrwt>
<totfact> 0.62101139E+04</totfact>
</mgrwt>
</event>
<event>
 7    0  0.4712189E-002  0.4520966E+03  0.7546771E-02  0.1027099E+00
         21   -1    0    0  502  501  0.00000000000E+00  0.00000000000E+00  0.16229859298E+03  0.16229859298E+03  0.00000000000E+00 0. -1.
         21   -1    0    0  501  502 -0.00000000000E+00 -0.00000000000E+00 -0.31483842428E+03  0.31483842428E+03  0.00000000000E+00 0. -1.
      99926    2    1    2    0    0  0.00000000000E+00 -0.14210854715E-13 -0.15253983130E+03  0.47713701726E+03  0.45209659710E+03 0.  0.
      99925    2    3    3    0    0 -0.36036207245E+02  0.98757346598E+02 -0.13248224844E+03  0.31251187802E+03  0.26279365672E+03 0.  0.
         25    1    4    4    0    0 -0.35505217516E+01  0.10076307606E+02 -0.70306171412E+02  0.14389094488E+03  0.12509000000E+03 0.  0.
         25    1    3    3    0    0  0.36036207245E+02 -0.98757346598E+02 -0.20057582868E+02  0.16462513924E+03  0.12509000000E+03 0.  0.
         25    1    4    4    0    0 -0.32485685494E+02  0.88681038993E+02 -0.62176077024E+02  0.16862093314E+03  0.12509000000E+03 0.  0.
<mgrwt>
<rscale>  2 0.45209660E+03</rscale>
<asrwt>0</asrwt>
<pdfrwt beam="1">  1       21 0.23867440E-01 0.45209660E+03</pdfrwt>
<pdfrwt beam="2">  1       21 0.46299768E-01 0.45209660E+03</pdfrwt>
<totfact> 0.68473492E+04</totfact>
</mgrwt>
</event>
<event>
 7    0  0.4712189E-002  0.4774124E+03  0.7546771E-02  0.1019849E+00
         21   -1    0    0  502  501  0.00000000000E+00  0.00000000000E+00  0.11825208278E+03  0.11825208278E+03  0.00000000000E+00 0.  1.
         21   -1    0    0  501  502 -0.00000000000E+00 -0.00000000000E+00 -0.48185750806E+03  0.48185750806E+03  0.00000000000E+00 0.  1.
      99926    2    1    2    0    0  0.00000000000E+00  0.00000000000E+00 -0.36360542527E+03  0.60010959084E+03  0.47741241681E+03 0.  0.
      99925    2    3    3    0    0  0.92751308739E+02 -0.68197740171E+02 -0.30836561516E+03  0.42135646007E+03  0.26305546334E+03 0.  0.
         25    1    4    4    0    0  0.84023122761E+02 -0.16848831647E+02 -0.16500064899E+03  0.22409036248E+03  0.12509000000E+03 0.  0.
         25    1    4    4    0    0  0.87281859783E+01 -0.51348908523E+02 -0.14336496617E+03  0.19726609760E+03  0.12509000000E+03 0.  0.
         25    1    3    3    0    0 -0.92751308739E+02  0.68197740171E+02 -0.55239810113E+02  0.17875313077E+03  0.12509000000E+03 0.  0.
<mgrwt>
<rscale>  2 0.47741242E+03</rscale>
<asrwt>0</asrwt>
<pdfrwt beam="1">  1       21 0.17390012E-01 0.47741242E+03</pdfrwt>
<pdfrwt beam="2">  1       21 0.70861398E-01 0.47741242E+03</pdfrwt>
<totfact> 0.49335816E+04</totfact>
</mgrwt>
</event>
<event>
 7    0  0.4712189E-002  0.4467140E+03  0.7546771E-02  0.1028707E+00
         21   -1    0    0  502  501  0.00000000000E+00  0.00000000000E+00  0.56965783717E+03  0.56965783717E+03  0.00000000000E+00 0. -1.
         21   -1    0    0  501  502 -0.00000000000E+00 -0.00000000000E+00 -0.87575984458E+02  0.87575984458E+02  0.00000000000E+00 0. -1.
      99926    2    1    2    0    0  0.00000000000E+00  0.00000000000E+00  0.48208185272E+03  0.65723382163E+03  0.44671398409E+03 0.  0.
      99925    2    3    3    0    0 -0.82388805457E+02 -0.38974249745E+02  0.38300698523E+03  0.47346699961E+03  0.26300140984E+03 0.  0.
         25    1    4    4    0    0 -0.22018784014E+02 -0.14726465758E+02  0.24398352052E+03  0.27545809487E+03  0.12509000000E+03 0.  0.
         25    1    4    4    0    0 -0.60370021443E+02 -0.24247783987E+02  0.13902346472E+03  0.19800890475E+03  0.12509000000E+03 0.  0.
         25    1    3    3    0    0  0.82388805457E+02  0.38974249745E+02  0.99074867481E+02  0.18376682202E+03  0.12509000000E+03 0.  0.
<mgrwt>
<rscale>  2 0.44671398E+03</rscale>
<asrwt>0</asrwt>
<pdfrwt beam="1">  1       21 0.83773209E-01 0.44671398E+03</pdfrwt>
<pdfrwt beam="2">  1       21 0.12878822E-01 0.44671398E+03</pdfrwt>
<totfact> 0.59051261E+04</totfact>
</mgrwt>
</event>
<event>
 7    0  0.4712189E-002  0.4596474E+03  0.7546771E-02  0.1024884E+00
         21   -1    0    0  502  501  0.00000000000E+00  0.00000000000E+00  0.14577841418E+03  0.14577841418E+03  0.00000000000E+00 0. -1.
         21   -1    0    0  501  502 -0.00000000000E+00 -0.00000000000E+00 -0.36232339039E+03  0.36232339039E+03  0.00000000000E+00 0. -1.
      99926    2    1    2    0    0  0.14210854715E-13 -0.71054273576E-14 -0.21654497620E+03  0.50810180457E+03  0.45964738342E+03 0.  0.
      99925    2    3    3    0    0  0.98124447965E+02 -0.48028863018E+02 -0.87641084088E+02  0.29786645913E+03  0.26288455429E+03 0.  0.
         25    1    4    4    0    0  0.85518821309E+02 -0.13771047370E+02 -0.65668537188E+02  0.16571956861E+03  0.12509000000E+03 0.  0.
         25    1    4    4    0    0  0.12605626656E+02 -0.34257815648E+02 -0.21972546899E+02  0.13214689052E+03  0.12509000000E+03 0.  0.
         25    1    3    3    0    0 -0.98124447965E+02  0.48028863018E+02 -0.12890389212E+03  0.21023534544E+03  0.12509000000E+03 0.  0.
<mgrwt>
<rscale>  2 0.45964738E+03</rscale>
<asrwt>0</asrwt>
<pdfrwt beam="1">  1       21 0.21438002E-01 0.45964738E+03</pdfrwt>
<pdfrwt beam="2">  1       21 0.53282851E-01 0.45964738E+03</pdfrwt>
<totfact> 0.62372456E+04</totfact>
</mgrwt>
</event>
<event>
 7    0  0.4712189E-002  0.4529660E+03  0.7546771E-02  0.1026841E+00
         21   -1    0    0  502  501  0.00000000000E+00  0.00000000000E+00  0.82806705626E+02  0.82806705626E+02  0.00000000000E+00 0. -1.
         21   -1    0    0  501  502 -0.00000000000E+00 -0.00000000000E+00 -0.61944915534E+03  0.61944915534E+03  0.00000000000E+00 0. -1.
      99926    2    1    2    0    0  0.00000000000E+00  0.00000000000E+00 -0.53664244971E+03  0.70225586096E+03  0.45296597601E+03 0.  0.
      99925    2    3    3    0    0 -0.70690974611E+02 -0.85614095230E+02 -0.34916526904E+03  0.45101456546E+03  0.26300335732E+03 0.  0.
         25    1    3    3    0    0  0.70690974611E+02  0.85614095230E+02 -0.18747718068E+03  0.25124129551E+03  0.12509000000E+03 0.  0.
         25    1    4    4    0    0 -0.60835681102E+02 -0.45239906125E+02 -0.23412186457E+03  0.27605829959E+03  0.12509000000E+03 0.  0.
         25    1    4    4    0    0 -0.98552935091E+01 -0.40374189105E+02 -0.11504340446E+03  0.17495626587E+03  0.12509000000E+03 0.  0.
<mgrwt>
<rscale>  2 0.45296598E+03</rscale>
<asrwt>0</asrwt>
<pdfrwt beam="1">  1       21 0.12177456E-01 0.45296598E+03</pdfrwt>
<pdfrwt beam="2">  1       21 0.91095468E-01 0.45296598E+03</pdfrwt>
<totfact> 0.53633983E+04</totfact>
</mgrwt>
</event>
<event>
 7    0  0.4712189E-002  0.4454234E+03  0.7546771E-02  0.1029096E+00
         21   -1    0    0  502  501  0.00000000000E+00  0.00000000000E+00  0.48084496045E+03  0.48084496045E+03  0.00000000000E+00 0.  1.
         21   -1    0    0  501  502 -0.00000000000E+00 -0.00000000000E+00 -0.10315279576E+03  0.10315279576E+03  0.00000000000E+00 0.  1.
      99926    2    1    2    0    0  0.00000000000E+00 -0.14210854715E-13  0.37769216469E+03  0.58399775621E+03  0.44542340305E+03 0.  0.
      99925    2    3    3    0    0  0.32267978131E+02 -0.75671169740E+02  0.32299198799E+03  0.42460212962E+03  0.26305093771E+03 0.  0.
         25    1    4    4    0    0  0.26735740670E+02 -0.21013585771E+01  0.17967322014E+03  0.22056561308E+03  0.12509000000E+03 0.  0.
         25    1    3    3    0    0 -0.32267978131E+02  0.75671169740E+02  0.54700176702E+02  0.15939562658E+03  0.12509000000E+03 0.  0.
         25    1    4    4    0    0  0.55322374615E+01 -0.73569811162E+02  0.14331876785E+03  0.20403651655E+03  0.12509000000E+03 0.  0.
<mgrwt>
<rscale>  2 0.44542340E+03</rscale>
<asrwt>0</asrwt>
<pdfrwt beam="1">  1       21 0.70712493E-01 0.44542340E+03</pdfrwt>
<pdfrwt beam="2">  1       21 0.15169529E-01 0.44542340E+03</pdfrwt>
<totfact> 0.64413519E+04</totfact>
</mgrwt>
</event>
<event>
 7    0  0.4712189E-002  0.4545424E+03  0.7546771E-02  0.1026376E+00
         21   -1    0    0  502  501  0.00000000000E+00  0.00000000000E+00  0.23006624292E+03  0.23006624292E+03  0.00000000000E+00 0.  1.
         21   -1    0    0  501  502 -0.00000000000E+00 -0.00000000000E+00 -0.22451014816E+03  0.22451014816E+03  0.00000000000E+00 0.  1.
      99926    2    1    2    0    0  0.00000000000E+00 -0.53290705182E-14  0.55560947535E+01  0.45457639108E+03  0.45454243491E+03 0.  0.
      99925    2    3    3    0    0 -0.95055001603E+02 -0.71693107931E+01  0.63594032412E+02  0.28693760483E+03  0.26306298820E+03 0.  0.
         25    1    4    4    0    0 -0.47813492377E+02 -0.39221562562E+02  0.11931592371E+02  0.14005117643E+03  0.12509000000E+03 0.  0.
         25    1    3    3    0    0  0.95055001603E+02  0.71693107931E+01 -0.58037937658E+02  0.16763878625E+03  0.12509000000E+03 0.  0.
         25    1    4    4    0    0 -0.47241509226E+02  0.32052251769E+02  0.51662440041E+02  0.14688642840E+03  0.12509000000E+03 0.  0.
<mgrwt>
<rscale>  2 0.45454243E+03</rscale>
<asrwt>0</asrwt>
<pdfrwt beam="1">  1       21 0.33833271E-01 0.45454243E+03</pdfrwt>
<pdfrwt beam="2">  1       21 0.33016198E-01 0.45454243E+03</pdfrwt>
<totfact> 0.68827776E+04</totfact>
</mgrwt>
</event>
<event>
 7    0  0.4712189E-002  0.4576814E+03  0.7546771E-02  0.1025456E+00
         21   -1    0    0  502  501  0.00000000000E+00  0.00000000000E+00  0.15305099632E+03  0.15305099632E+03  0.00000000000E+00 0.  1.
         21   -1    0    0  501  502 -0.00000000000E+00 -0.00000000000E+00 -0.34216096022E+03  0.34216096022E+03  0.00000000000E+00 0.  1.
      99926    2    1    2    0    0  0.71054273576E-14  0.00000000000E+00 -0.18910996389E+03  0.49521195654E+03  0.45768144321E+03 0.  0.
      99925    2    3    3    0    0 -0.46285463764E+02  0.10205478897E+03 -0.85903896315E+02  0.29809137265E+03  0.26252897543E+03 0.  0.
         25    1    4    4    0    0  0.88209433133E+01  0.39574303015E+02 -0.16435870757E+02  0.13252011337E+03  0.12509000000E+03 0.  0.
         25    1    4    4    0    0 -0.55106407077E+02  0.62480485952E+02 -0.69468025558E+02  0.16557125928E+03  0.12509000000E+03 0.  0.
         25    1    3    3    0    0  0.46285463764E+02 -0.10205478897E+03 -0.10320606758E+03  0.19712058389E+03  0.12509000000E+03 0.  0.
<mgrwt>
<rscale>  2 0.45768144E+03</rscale>
<asrwt>0</asrwt>
<pdfrwt beam="1">  1       21 0.22507499E-01 0.45768144E+03</pdfrwt>
<pdfrwt beam="2">  1       21 0.50317788E-01 0.45768144E+03</pdfrwt>
<totfact> 0.64230167E+04</totfact>
</mgrwt>
</event>
<event>
 7    0  0.4712189E-002  0.4510986E+03  0.7546771E-02  0.1027395E+00
         21   -1    0    0  502  501  0.00000000000E+00  0.00000000000E+00  0.12991384401E+03  0.12991384401E+03  0.00000000000E+00 0.  1.
         21   -1    0    0  501  502 -0.00000000000E+00 -0.00000000000E+00 -0.39158634646E+03  0.39158634646E+03  0.00000000000E+00 0.  1.
      99926    2    1    2    0    0 -0.35527136788E-14  0.00000000000E+00 -0.26167250245E+03  0.52150019047E+03  0.45109860355E+03 0.  0.
      99925    2    3    3    0    0  0.31914965460E+02  0.10401400246E+03 -0.15397491238E+03  0.32380406826E+03  0.26325524354E+03 0.  0.
         25    1    3    3    0    0 -0.31914965460E+02 -0.10401400246E+03 -0.10769759008E+03  0.19769612221E+03  0.12509000000E+03 0.  0.
         25    1    4    4    0    0  0.18831934549E+02  0.21466420883E+02 -0.37902026737E+02  0.13378909042E+03  0.12509000000E+03 0.  0.
         25    1    4    4    0    0  0.13083030911E+02  0.82547581582E+02 -0.11607288564E+03  0.19001497784E+03  0.12509000000E+03 0.  0.
<mgrwt>
<rscale>  2 0.45109860E+03</rscale>
<asrwt>0</asrwt>
<pdfrwt beam="1">  1       21 0.19104977E-01 0.45109860E+03</pdfrwt>
<pdfrwt beam="2">  1       21 0.57586228E-01 0.45109860E+03</pdfrwt>
<totfact> 0.65797127E+04</totfact>
</mgrwt>
</event>
<event>
 7    0  0.4712189E-002  0.4690896E+03  0.7546771E-02  0.1022177E+00
         21   -1    0    0  502  501  0.00000000000E+00  0.00000000000E+00  0.70339737104E+02  0.70339737104E+02  0.00000000000E+00 0.  1.
         21   -1    0    0  501  502 -0.00000000000E+00 -0.00000000000E+00 -0.78207955527E+03  0.78207955527E+03  0.00000000000E+00 0.  1.
      99926    2    1    2    0    0  0.00000000000E+00  0.00000000000E+00 -0.71173981817E+03  0.85241929238E+03  0.46908963029E+03 0.  0.
      99925    2    3    3    0    0  0.89594767789E+02 -0.56026769858E+02 -0.31780569916E+03  0.42580726773E+03  0.26295464528E+03 0.  0.
         25    1    3    3    0    0 -0.89594767789E+02  0.56026769858E+02 -0.39393411900E+03  0.42661202464E+03  0.12509000000E+03 0.  0.
         25    1    4    4    0    0  0.47309530494E+02 -0.24265016295E+02 -0.98516106454E+02  0.16786874046E+03  0.12509000000E+03 0.  0.
         25    1    4    4    0    0  0.42285237295E+02 -0.31761753563E+02 -0.21928959271E+03  0.25793852728E+03  0.12509000000E+03 0.  0.
<mgrwt>
<rscale>  2 0.46908963E+03</rscale>
<asrwt>0</asrwt>
<pdfrwt beam="1">  1       21 0.10344079E-01 0.46908963E+03</pdfrwt>
<pdfrwt beam="2">  1       21 0.11501170E+00 0.46908963E+03</pdfrwt>
<totfact> 0.40648777E+04</totfact>
</mgrwt>
</event>
<event>
 7    0  0.4712189E-002  0.4505756E+03  0.7546771E-02  0.1027551E+00
         21   -1    0    0  502  501  0.00000000000E+00  0.00000000000E+00  0.81615207384E+02  0.81615207384E+02  0.00000000000E+00 0. -1.
         21   -1    0    0  501  502 -0.00000000000E+00 -0.00000000000E+00 -0.62187672338E+03  0.62187672338E+03  0.00000000000E+00 0. -1.
      99926    2    1    2    0    0 -0.35527136788E-14  0.71054273576E-14 -0.54026151600E+03  0.70349193076E+03  0.45057562183E+03 0.  0.
      99925    2    3    3    0    0 -0.99468791636E+01 -0.32901665456E+02 -0.50281212360E+03  0.56846813625E+03  0.26297248961E+03 0.  0.
         25    1    4    4    0    0 -0.33008540249E+02  0.11958732101E+02 -0.26249348397E+03  0.29288720052E+03  0.12509000000E+03 0.  0.
         25    1    3    3    0    0  0.99468791636E+01  0.32901665456E+02 -0.37449392395E+02  0.13502379452E+03  0.12509000000E+03 0.  0.
         25    1    4    4    0    0  0.23061661086E+02 -0.44860397557E+02 -0.24031863963E+03  0.27558093572E+03  0.12509000000E+03 0.  0.
<mgrwt>
<rscale>  2 0.45057562E+03</rscale>
<asrwt>0</asrwt>
<pdfrwt beam="1">  1       21 0.12002236E-01 0.45057562E+03</pdfrwt>
<pdfrwt beam="2">  1       21 0.91452460E-01 0.45057562E+03</pdfrwt>
<totfact> 0.54589645E+04</totfact>
</mgrwt>
</event>
<event>
 7    0  0.4712189E-002  0.4635999E+03  0.7546771E-02  0.1023742E+00
         21   -1    0    0  502  501  0.00000000000E+00  0.00000000000E+00  0.35105494230E+03  0.35105494230E+03  0.00000000000E+00 0.  1.
         21   -1    0    0  501  502 -0.00000000000E+00 -0.00000000000E+00 -0.15305640628E+03  0.15305640628E+03  0.00000000000E+00 0.  1.
      99926    2    1    2    0    0  0.00000000000E+00  0.00000000000E+00  0.19799853602E+03  0.50411134859E+03  0.46359986142E+03 0.  0.
      99925    2    3    3    0    0 -0.57138701869E+02 -0.33871483633E+02  0.13706278076E+02  0.27168232051E+03  0.26308042984E+03 0.  0.
         25    1    3    3    0    0  0.57138701869E+02  0.33871483633E+02  0.18429225795E+03  0.23242902808E+03  0.12509000000E+03 0.  0.
         25    1    4    4    0    0 -0.59490642919E+02 -0.27411334410E+02  0.32787405771E+02  0.14495875250E+03  0.12509000000E+03 0.  0.
         25    1    4    4    0    0  0.23519410494E+01 -0.64601492232E+01 -0.19081127695E+02  0.12672356801E+03  0.12509000000E+03 0.  0.
<mgrwt>
<rscale>  2 0.46359986E+03</rscale>
<asrwt>0</asrwt>
<pdfrwt beam="1">  1       21 0.51625727E-01 0.46359986E+03</pdfrwt>
<pdfrwt beam="2">  1       21 0.22508295E-01 0.46359986E+03</pdfrwt>
<totfact> 0.60729858E+04</totfact>
</mgrwt>
</event>
<event>
 7    0  0.4712189E-002  0.4405376E+03  0.7546771E-02  0.1030582E+00
         21   -1    0    0  502  501  0.00000000000E+00  0.00000000000E+00  0.11960750021E+04  0.11960750021E+04  0.00000000000E+00 0.  1.
         21   -1    0    0  501  502 -0.00000000000E+00 -0.00000000000E+00 -0.40564630338E+02  0.40564630338E+02  0.00000000000E+00 0.  1.
      99926    2    1    2    0    0  0.00000000000E+00  0.00000000000E+00  0.11555103717E+04  0.12366396324E+04  0.44053758212E+03 0.  0.
      99925    2    3    3    0    0  0.32595559988E+02  0.46276862461E+02  0.96528384541E+03  0.10020385711E+04  0.26287711448E+03 0.  0.
         25    1    3    3    0    0 -0.32595559988E+02 -0.46276862461E+02  0.19022652633E+03  0.23460106127E+03  0.12509000000E+03 0.  0.
         25    1    4    4    0    0 -0.54871877636E+01  0.31826527176E+02  0.35607722350E+03  0.37878956461E+03  0.12509000000E+03 0.  0.
         25    1    4    4    0    0  0.38082747751E+02  0.14450335286E+02  0.60920662190E+03  0.62324900653E+03  0.12509000000E+03 0.  0.
<mgrwt>
<rscale>  2 0.44053758E+03</rscale>
<asrwt>0</asrwt>
<pdfrwt beam="1">  1       21 0.17589336E+00 0.44053758E+03</pdfrwt>
<pdfrwt beam="2">  1       21 0.59653876E-02 0.44053758E+03</pdfrwt>
<totfact> 0.34763285E+04</totfact>
</mgrwt>
</event>
<event>
 7    0  0.4712189E-002  0.4551593E+03  0.7546771E-02  0.1026195E+00
         21   -1    0    0  502  501  0.00000000000E+00  0.00000000000E+00  0.42233925970E+03  0.42233925970E+03  0.00000000000E+00 0.  1.
         21   -1    0    0  501  502 -0.00000000000E+00 -0.00000000000E+00 -0.12263245884E+03  0.12263245884E+03  0.00000000000E+00 0.  1.
      99926    2    1    2    0    0  0.00000000000E+00  0.00000000000E+00  0.29970680085E+03  0.54497171854E+03  0.45515932104E+03 0.  0.
      99925    2    3    3    0    0 -0.50533646002E+02  0.23124317396E+02  0.30682137930E+03  0.40790783285E+03  0.26298490047E+03 0.  0.
         25    1    3    3    0    0  0.50533646002E+02 -0.23124317396E+02 -0.71145784489E+01  0.13706388569E+03  0.12509000000E+03 0.  0.
         25    1    4    4    0    0  0.22972266684E+01 -0.19151768847E+02  0.14307519639E+03  0.19102378758E+03  0.12509000000E+03 0.  0.
         25    1    4    4    0    0 -0.52830872670E+02  0.42276086244E+02  0.16374618291E+03  0.21688404527E+03  0.12509000000E+03 0.  0.
<mgrwt>
<rscale>  2 0.45515932E+03</rscale>
<asrwt>0</asrwt>
<pdfrwt beam="1">  1       21 0.62108714E-01 0.45515932E+03</pdfrwt>
<pdfrwt beam="2">  1       21 0.18034185E-01 0.45515932E+03</pdfrwt>
<totfact> 0.62121660E+04</totfact>
</mgrwt>
</event>
<event>
 7    0  0.4712189E-002  0.4536352E+03  0.7546771E-02  0.1026644E+00
         21   -1    0    0  502  501  0.00000000000E+00  0.00000000000E+00  0.25271770135E+03  0.25271770135E+03  0.00000000000E+00 0. -1.
         21   -1    0    0  501  502 -0.00000000000E+00 -0.00000000000E+00 -0.20357188584E+03  0.20357188584E+03  0.00000000000E+00 0. -1.
      99926    2    1    2    0    0 -0.14210854715E-13  0.26645352591E-14  0.49145815506E+02  0.45628958719E+03  0.45363517963E+03 0.  0.
      99925    2    3    3    0    0  0.10749938046E+03 -0.25083902548E+01 -0.11752363471E+01  0.28383053355E+03  0.26267086206E+03 0.  0.
         25    1    4    4    0    0  0.27895012193E+02  0.29878471111E+02 -0.86166704772E+01  0.13188104432E+03  0.12509000000E+03 0.  0.
         25    1    4    4    0    0  0.79604368266E+02 -0.32386861366E+02  0.74414341300E+01  0.15194948923E+03  0.12509000000E+03 0.  0.
         25    1    3    3    0    0 -0.10749938046E+03  0.25083902548E+01  0.50321051853E+02  0.17245905363E+03  0.12509000000E+03 0.  0.
<mgrwt>
<rscale>  2 0.45363518E+03</rscale>
<asrwt>0</asrwt>
<pdfrwt beam="1">  1       21 0.37164368E-01 0.45363518E+03</pdfrwt>
<pdfrwt beam="2">  1       21 0.29937042E-01 0.45363518E+03</pdfrwt>
<totfact> 0.69201866E+04</totfact>
</mgrwt>
</event>
<event>
 7    0  0.4712189E-002  0.4538460E+03  0.7546771E-02  0.1026581E+00
         21   -1    0    0  502  501  0.00000000000E+00  0.00000000000E+00  0.35595532172E+03  0.35595532172E+03  0.00000000000E+00 0.  1.
         21   -1    0    0  501  502 -0.00000000000E+00 -0.00000000000E+00 -0.14466433152E+03  0.14466433152E+03  0.00000000000E+00 0.  1.
      99926    2    1    2    0    0  0.00000000000E+00  0.00000000000E+00  0.21129099020E+03  0.50061965324E+03  0.45384595919E+03 0.  0.
      99925    2    3    3    0    0  0.48873853290E+02 -0.91868979005E+02  0.87197443619E+02  0.29598515165E+03  0.26301188753E+03 0.  0.
         25    1    4    4    0    0  0.60321046709E+02 -0.65187275117E+02  0.34921724292E+02  0.15733735869E+03  0.12509000000E+03 0.  0.
         25    1    4    4    0    0 -0.11447193419E+02 -0.26681703888E+02  0.52275719327E+02  0.13864779295E+03  0.12509000000E+03 0.  0.
         25    1    3    3    0    0 -0.48873853290E+02  0.91868979005E+02  0.12409354658E+03  0.20463450159E+03  0.12509000000E+03 0.  0.
<mgrwt>
<rscale>  2 0.45384596E+03</rscale>
<asrwt>0</asrwt>
<pdfrwt beam="1">  1       21 0.52346371E-01 0.45384596E+03</pdfrwt>
<pdfrwt beam="2">  1       21 0.21274166E-01 0.45384596E+03</pdfrwt>
<totfact> 0.65828115E+04</totfact>
</mgrwt>
</event>
<event>
 7    0  0.4712189E-002  0.4541581E+03  0.7546771E-02  0.1026489E+00
         21   -1    0    0  502  501  0.00000000000E+00  0.00000000000E+00  0.86930616295E+03  0.86930616295E+03  0.00000000000E+00 0. -1.
         21   -1    0    0  501  502 -0.00000000000E+00 -0.00000000000E+00 -0.59317304196E+02  0.59317304196E+02  0.00000000000E+00 0. -1.
      99926    2    1    2    0    0  0.00000000000E+00  0.00000000000E+00  0.80998885875E+03  0.92862346715E+03  0.45415811391E+03 0.  0.
      99925    2    3    3    0    0  0.22832587335E+02 -0.92964764697E+02  0.38941770279E+03  0.47952283272E+03  0.26293007688E+03 0.  0.
         25    1    4    4    0    0 -0.19475575585E+02 -0.59445801772E+02  0.15825211982E+03  0.21119740273E+03  0.12509000000E+03 0.  0.
         25    1    4    4    0    0  0.42308162920E+02 -0.33518962925E+02  0.23116558297E+03  0.26832542998E+03  0.12509000000E+03 0.  0.
         25    1    3    3    0    0 -0.22832587335E+02  0.92964764697E+02  0.42057115596E+03  0.44910063443E+03  0.12509000000E+03 0.  0.
<mgrwt>
<rscale>  2 0.45415811E+03</rscale>
<asrwt>0</asrwt>
<pdfrwt beam="1">  1       21 0.12783913E+00 0.45415811E+03</pdfrwt>
<pdfrwt beam="2">  1       21 0.87231335E-02 0.45415811E+03</pdfrwt>
<totfact> 0.42296614E+04</totfact>
</mgrwt>
</event>
<event>
 7    0  0.4712189E-002  0.4504938E+03  0.7546771E-02  0.1027575E+00
         21   -1    0    0  502  501  0.00000000000E+00  0.00000000000E+00  0.34243506360E+02  0.34243506360E+02  0.00000000000E+00 0.  1.
         21   -1    0    0  501  502 -0.00000000000E+00 -0.00000000000E+00 -0.14816288591E+04  0.14816288591E+04  0.00000000000E+00 0.  1.
      99926    2    1    2    0    0  0.00000000000E+00  0.00000000000E+00 -0.14473853528E+04  0.15158723655E+04  0.45049380577E+03 0.  0.
      99925    2    3    3    0    0  0.18913249096E+02  0.10215137448E+03 -0.80290079518E+03  0.85119163960E+03  0.26284007708E+03 0.  0.
         25    1    4    4    0    0 -0.28271899451E+01  0.29033928689E+02 -0.27823287297E+03  0.30645065136E+03  0.12509000000E+03 0.  0.
         25    1    4    4    0    0  0.21740439041E+02  0.73117445796E+02 -0.52466792221E+03  0.54474098824E+03  0.12509000000E+03 0.  0.
         25    1    3    3    0    0 -0.18913249096E+02 -0.10215137448E+03 -0.64448455759E+03  0.66468072589E+03  0.12509000000E+03 0.  0.
<mgrwt>
<rscale>  2 0.45049381E+03</rscale>
<asrwt>0</asrwt>
<pdfrwt beam="1">  1       21 0.50358105E-02 0.45049381E+03</pdfrwt>
<pdfrwt beam="2">  1       21 0.21788657E+00 0.45049381E+03</pdfrwt>
<totfact> 0.24229791E+04</totfact>
</mgrwt>
</event>
<event>
 7    0  0.4712189E-002  0.4621644E+03  0.7546771E-02  0.1024155E+00
         21   -1    0    0  502  501  0.00000000000E+00  0.00000000000E+00  0.18277391421E+03  0.18277391421E+03  0.00000000000E+00 0.  1.
         21   -1    0    0  501  502 -0.00000000000E+00 -0.00000000000E+00 -0.29215860810E+03  0.29215860810E+03  0.00000000000E+00 0.  1.
      99926    2    1    2    0    0  0.14210854715E-13  0.00000000000E+00 -0.10938469389E+03  0.47493252230E+03  0.46216435332E+03 0.  0.
      99925    2    3    3    0    0  0.99202066183E+02 -0.35080013822E+02 -0.93236864670E+01  0.28327822256E+03  0.26284589200E+03 0.  0.
         25    1    4    4    0    0  0.64778171216E+02 -0.83548211612E+01 -0.41250537604E+02  0.14702084701E+03  0.12509000000E+03 0.  0.
         25    1    4    4    0    0  0.34423894966E+02 -0.26725192661E+02  0.31926851137E+02  0.13625737555E+03  0.12509000000E+03 0.  0.
         25    1    3    3    0    0 -0.99202066183E+02  0.35080013822E+02 -0.10006100743E+03  0.19165429975E+03  0.12509000000E+03 0.  0.
<mgrwt>
<rscale>  2 0.46216435E+03</rscale>
<asrwt>0</asrwt>
<pdfrwt beam="1">  1       21 0.26878517E-01 0.46216435E+03</pdfrwt>
<pdfrwt beam="2">  1       21 0.42964501E-01 0.46216435E+03</pdfrwt>
<totfact> 0.63390571E+04</totfact>
</mgrwt>
</event>
<event>
 7    0  0.4712189E-002  0.4549223E+03  0.7546771E-02  0.1026264E+00
         21   -1    0    0  502  501  0.00000000000E+00  0.00000000000E+00  0.37677192687E+03  0.37677192687E+03  0.00000000000E+00 0.  1.
         21   -1    0    0  501  502 -0.00000000000E+00 -0.00000000000E+00 -0.13732069026E+03  0.13732069026E+03  0.00000000000E+00 0.  1.
      99926    2    1    2    0    0  0.35527136788E-14 -0.14210854715E-13  0.23945123661E+03  0.51409261713E+03  0.45492232773E+03 0.  0.
      99925    2    3    3    0    0  0.22307884120E+02 -0.10327085475E+03  0.10521365159E+03  0.30236224976E+03  0.26304088363E+03 0.  0.
         25    1    3    3    0    0 -0.22307884120E+02  0.10327085475E+03  0.13423758502E+03  0.21173036737E+03  0.12509000000E+03 0.  0.
         25    1    4    4    0    0 -0.82164135272E+01 -0.12743172640E+02  0.49906960918E+02  0.13552900335E+03  0.12509000000E+03 0.  0.
         25    1    4    4    0    0  0.30524297647E+02 -0.90527682107E+02  0.55306690672E+02  0.16683324641E+03  0.12509000000E+03 0.  0.
<mgrwt>
<rscale>  2 0.45492233E+03</rscale>
<asrwt>0</asrwt>
<pdfrwt beam="1">  1       21 0.55407636E-01 0.45492233E+03</pdfrwt>
<pdfrwt beam="2">  1       21 0.20194219E-01 0.45492233E+03</pdfrwt>
<totfact> 0.64331168E+04</totfact>
</mgrwt>
</event>
<event>
 7    0  0.4712189E-002  0.4521978E+03  0.7546771E-02  0.1027069E+00
         21   -1    0    0  502  501  0.00000000000E+00  0.00000000000E+00  0.83675024708E+03  0.83675024708E+03  0.00000000000E+00 0.  1.
         21   -1    0    0  501  502 -0.00000000000E+00 -0.00000000000E+00 -0.61094352639E+02  0.61094352639E+02  0.00000000000E+00 0.  1.
      99926    2    1    2    0    0  0.00000000000E+00 -0.35527136788E-14  0.77565589444E+03  0.89784459972E+03  0.45219780922E+03 0.  0.
      99925    2    3    3    0    0  0.95400087201E+02 -0.23032974158E+02  0.58993470316E+03  0.65336236411E+03  0.26311163089E+03 0.  0.
         25    1    4    4    0    0  0.25781408776E+02  0.11123111242E+02  0.21157921321E+03  0.24738972534E+03  0.12509000000E+03 0.  0.
         25    1    3    3    0    0 -0.95400087201E+02  0.23032974158E+02  0.18572119128E+03  0.24448223561E+03  0.12509000000E+03 0.  0.
         25    1    4    4    0    0  0.69618678425E+02 -0.34156085400E+02  0.37835548995E+03  0.40597263877E+03  0.12509000000E+03 0.  0.
<mgrwt>
<rscale>  2 0.45219781E+03</rscale>
<asrwt>0</asrwt>
<pdfrwt beam="1">  1       21 0.12305150E+00 0.45219781E+03</pdfrwt>
<pdfrwt beam="2">  1       21 0.89844642E-02 0.45219781E+03</pdfrwt>
<totfact> 0.44290795E+04</totfact>
</mgrwt>
</event>
<event>
 7    0  0.4712189E-002  0.4449697E+03  0.7546771E-02  0.1029233E+00
         21   -1    0    0  502  501  0.00000000000E+00  0.00000000000E+00  0.44014000827E+03  0.44014000827E+03  0.00000000000E+00 0. -1.
         21   -1    0    0  501  502 -0.00000000000E+00 -0.00000000000E+00 -0.11246308621E+03  0.11246308621E+03  0.00000000000E+00 0. -1.
      99926    2    1    2    0    0  0.00000000000E+00  0.00000000000E+00  0.32767692207E+03  0.55260309448E+03  0.44496967849E+03 0.  0.
      99925    2    3    3    0    0  0.77849727199E+02  0.25585957322E+02  0.12963971162E+03  0.30444696206E+03  0.26299482246E+03 0.  0.
         25    1    3    3    0    0 -0.77849727199E+02 -0.25585957322E+02  0.19803721044E+03  0.24815613242E+03  0.12509000000E+03 0.  0.
         25    1    4    4    0    0  0.50426204935E+02  0.38541412164E+02  0.34677600997E+02  0.14449320644E+03  0.12509000000E+03 0.  0.
         25    1    4    4    0    0  0.27423522264E+02 -0.12955454842E+02  0.94962110627E+02  0.15995375562E+03  0.12509000000E+03 0.  0.
<mgrwt>
<rscale>  2 0.44496968E+03</rscale>
<asrwt>0</asrwt>
<pdfrwt beam="1">  1       21 0.64726471E-01 0.44496968E+03</pdfrwt>
<pdfrwt beam="2">  1       21 0.16538689E-01 0.44496968E+03</pdfrwt>
<totfact> 0.66843173E+04</totfact>
</mgrwt>
</event>
<event>
 7    0  0.4712189E-002  0.4538629E+03  0.7546771E-02  0.1026576E+00
         21   -1    0    0  502  501  0.00000000000E+00  0.00000000000E+00  0.28237936267E+03  0.28237936267E+03  0.00000000000E+00 0.  1.
         21   -1    0    0  501  502 -0.00000000000E+00 -0.00000000000E+00 -0.18237125227E+03  0.18237125227E+03  0.00000000000E+00 0.  1.
      99926    2    1    2    0    0  0.00000000000E+00 -0.14210854715E-13  0.10000811041E+03  0.46475061494E+03  0.45386287790E+03 0.  0.
      99925    2    3    3    0    0  0.44565188418E+02 -0.77915275248E+02  0.13161853261E+03  0.30757691158E+03  0.26310315900E+03 0.  0.
         25    1    4    4    0    0  0.62622959978E+02 -0.49499813151E+02  0.73514016630E+02  0.16560098236E+03  0.12509000000E+03 0.  0.
         25    1    4    4    0    0 -0.18057771560E+02 -0.28415462097E+02  0.58104515984E+02  0.14197592922E+03  0.12509000000E+03 0.  0.
         25    1    3    3    0    0 -0.44565188418E+02  0.77915275248E+02 -0.31610422204E+02  0.15717370336E+03  0.12509000000E+03 0.  0.
<mgrwt>
<rscale>  2 0.45386288E+03</rscale>
<asrwt>0</asrwt>
<pdfrwt beam="1">  1       21 0.41526377E-01 0.45386288E+03</pdfrwt>
<pdfrwt beam="2">  1       21 0.26819302E-01 0.45386288E+03</pdfrwt>
<totfact> 0.68443877E+04</totfact>
</mgrwt>
</event>
<event>
 7    0  0.4712189E-002  0.4595321E+03  0.7546771E-02  0.1024917E+00
         21   -1    0    0  502  501  0.00000000000E+00  0.00000000000E+00  0.29334345027E+03  0.29334345027E+03  0.00000000000E+00 0.  1.
         21   -1    0    0  501  502 -0.00000000000E+00 -0.00000000000E+00 -0.17996802336E+03  0.17996802336E+03  0.00000000000E+00 0.  1.
      99926    2    1    2    0    0 -0.14210854715E-13  0.14210854715E-13  0.11337542691E+03  0.47331147363E+03  0.45953211383E+03 0.  0.
      99925    2    3    3    0    0  0.59240790351E+02 -0.10143131386E+03  0.68930688217E+02  0.29605283331E+03  0.26286509403E+03 0.  0.
         25    1    4    4    0    0 -0.48337434130E+01 -0.54403016364E+02  0.55129179728E+02  0.14720661610E+03  0.12509000000E+03 0.  0.
         25    1    4    4    0    0  0.64074533764E+02 -0.47028297491E+02  0.13801508489E+02  0.14884621721E+03  0.12509000000E+03 0.  0.
         25    1    3    3    0    0 -0.59240790351E+02  0.10143131386E+03  0.44444738690E+02  0.17725864032E+03  0.12509000000E+03 0.  0.
<mgrwt>
<rscale>  2 0.45953211E+03</rscale>
<asrwt>0</asrwt>
<pdfrwt beam="1">  1       21 0.43138743E-01 0.45953211E+03</pdfrwt>
<pdfrwt beam="2">  1       21 0.26465886E-01 0.45953211E+03</pdfrwt>
<totfact> 0.64827913E+04</totfact>
</mgrwt>
</event>
<event>
 7    0  0.4712189E-002  0.4592094E+03  0.7546771E-02  0.1025011E+00
         21   -1    0    0  502  501  0.00000000000E+00  0.00000000000E+00  0.28932542802E+03  0.28932542802E+03  0.00000000000E+00 0.  1.
         21   -1    0    0  501  502 -0.00000000000E+00 -0.00000000000E+00 -0.18221114081E+03  0.18221114081E+03  0.00000000000E+00 0.  1.
      99926    2    1    2    0    0  0.00000000000E+00 -0.71054273576E-14  0.10711428721E+03  0.47153656884E+03  0.45920939148E+03 0.  0.
      99925    2    3    3    0    0  0.66318845340E+02  0.52733055092E+02 -0.15816078203E+02  0.27675888226E+03  0.26299499279E+03 0.  0.
         25    1    4    4    0    0  0.16495587025E+02 -0.23752817592E+01 -0.32511457049E+02  0.13031595948E+03  0.12509000000E+03 0.  0.
         25    1    4    4    0    0  0.49823258315E+02  0.55108336851E+02  0.16695378845E+02  0.14644292279E+03  0.12509000000E+03 0.  0.
         25    1    3    3    0    0 -0.66318845340E+02 -0.52733055092E+02  0.12293036541E+03  0.19477768657E+03  0.12509000000E+03 0.  0.
<mgrwt>
<rscale>  2 0.45920939E+03</rscale>
<asrwt>0</asrwt>
<pdfrwt beam="1">  1       21 0.42547857E-01 0.45920939E+03</pdfrwt>
<pdfrwt beam="2">  1       21 0.26795756E-01 0.45920939E+03</pdfrwt>
<totfact> 0.65119985E+04</totfact>
</mgrwt>
</event>
<event>
 7    0  0.4712189E-002  0.4711256E+03  0.7546771E-02  0.1021603E+00
         21   -1    0    0  502  501  0.00000000000E+00  0.00000000000E+00  0.63328793753E+03  0.63328793753E+03  0.00000000000E+00 0. -1.
         21   -1    0    0  501  502 -0.00000000000E+00 -0.00000000000E+00 -0.87621820628E+02  0.87621820628E+02  0.00000000000E+00 0. -1.
      99926    2    1    2    0    0  0.00000000000E+00 -0.14210854715E-13  0.54566611690E+03  0.72090975815E+03  0.47112563958E+03 0.  0.
      99925    2    3    3    0    0  0.32483990463E+02  0.78276004650E+02  0.48471454159E+03  0.55798356268E+03  0.26308767901E+03 0.  0.
         25    1    4    4    0    0 -0.17419817425E+02  0.42005774305E+02  0.19059661142E+03  0.23247045296E+03  0.12509000000E+03 0.  0.
         25    1    3    3    0    0 -0.32483990463E+02 -0.78276004650E+02  0.60951575310E+02  0.16292619548E+03  0.12509000000E+03 0.  0.
         25    1    4    4    0    0  0.49903807888E+02  0.36270230345E+02  0.29411793017E+03  0.32551310972E+03  0.12509000000E+03 0.  0.
<mgrwt>
<rscale>  2 0.47112564E+03</rscale>
<asrwt>0</asrwt>
<pdfrwt beam="1">  1       21 0.93130576E-01 0.47112564E+03</pdfrwt>
<pdfrwt beam="2">  1       21 0.12885562E-01 0.47112564E+03</pdfrwt>
<totfact> 0.45703497E+04</totfact>
</mgrwt>
</event>
<event>
 7    0  0.4712189E-002  0.4541334E+03  0.7546771E-02  0.1026497E+00
         21   -1    0    0  502  501  0.00000000000E+00  0.00000000000E+00  0.45722942223E+03  0.45722942223E+03  0.00000000000E+00 0. -1.
         21   -1    0    0  501  502 -0.00000000000E+00 -0.00000000000E+00 -0.11276457666E+03  0.11276457666E+03  0.00000000000E+00 0. -1.
      99926    2    1    2    0    0  0.00000000000E+00  0.00000000000E+00  0.34446484557E+03  0.56999399889E+03  0.45413338232E+03 0.  0.
      99925    2    3    3    0    0  0.98770943813E+02  0.25737049185E+02  0.15816529231E+03  0.32347193763E+03  0.26305843401E+03 0.  0.
         25    1    4    4    0    0  0.97364393496E+01  0.23257159397E+02  0.58285476442E+02  0.14028684393E+03  0.12509000000E+03 0.  0.
         25    1    4    4    0    0  0.89034504463E+02  0.24798897878E+01  0.99879815869E+02  0.18318509371E+03  0.12509000000E+03 0.  0.
         25    1    3    3    0    0 -0.98770943813E+02 -0.25737049185E+02  0.18629955326E+03  0.24652206126E+03  0.12509000000E+03 0.  0.
<mgrwt>
<rscale>  2 0.45413338E+03</rscale>
<asrwt>0</asrwt>
<pdfrwt beam="1">  1       21 0.67239620E-01 0.45413338E+03</pdfrwt>
<pdfrwt beam="2">  1       21 0.16583026E-01 0.45413338E+03</pdfrwt>
<totfact> 0.60981140E+04</totfact>
</mgrwt>
</event>
<event>
 7    0  0.4712189E-002  0.4529767E+03  0.7546771E-02  0.1026838E+00
         21   -1    0    0  502  501  0.00000000000E+00  0.00000000000E+00  0.63219559182E+03  0.63219559182E+03  0.00000000000E+00 0. -1.
         21   -1    0    0  501  502 -0.00000000000E+00 -0.00000000000E+00 -0.81140974147E+02  0.81140974147E+02  0.00000000000E+00 0. -1.
      99926    2    1    2    0    0  0.00000000000E+00  0.17763568394E-14  0.55105461767E+03  0.71333656597E+03  0.45297667124E+03 0.  0.
      99925    2    3    3    0    0  0.10831702109E+03 -0.11469782679E+02  0.31131298145E+03  0.42181007795E+03  0.26295215625E+03 0.  0.
         25    1    3    3    0    0 -0.10831702109E+03  0.11469782679E+02  0.23974163623E+03  0.29152648801E+03  0.12509000000E+03 0.  0.
         25    1    4    4    0    0  0.71756211239E+02 -0.23061338757E+02  0.11496802149E+03  0.18586536327E+03  0.12509000000E+03 0.  0.
         25    1    4    4    0    0  0.36560809851E+02  0.11591556078E+02  0.19634495996E+03  0.23594471469E+03  0.12509000000E+03 0.  0.
<mgrwt>
<rscale>  2 0.45297667E+03</rscale>
<asrwt>0</asrwt>
<pdfrwt beam="1">  1       21 0.92969938E-01 0.45297667E+03</pdfrwt>
<pdfrwt beam="2">  1       21 0.11932497E-01 0.45297667E+03</pdfrwt>
<totfact> 0.53023840E+04</totfact>
</mgrwt>
</event>
<event>
 7    0  0.4712189E-002  0.4512885E+03  0.7546771E-02  0.1027339E+00
         21   -1    0    0  502  501  0.00000000000E+00  0.00000000000E+00  0.26719173294E+03  0.26719173294E+03  0.00000000000E+00 0. -1.
         21   -1    0    0  501  502 -0.00000000000E+00 -0.00000000000E+00 -0.19055724383E+03  0.19055724383E+03  0.00000000000E+00 0. -1.
      99926    2    1    2    0    0  0.00000000000E+00  0.00000000000E+00  0.76634489108E+02  0.45774897678E+03  0.45128846741E+03 0.  0.
      99925    2    3    3    0    0  0.96092439882E+02 -0.32609484705E+02  0.60165204584E+01  0.28187532585E+03  0.26290752235E+03 0.  0.
         25    1    4    4    0    0  0.11322921844E+02 -0.76434735135E+01 -0.17080669561E+02  0.12698774988E+03  0.12509000000E+03 0.  0.
         25    1    4    4    0    0  0.84769518038E+02 -0.24966011192E+02  0.23097190019E+02  0.15488757597E+03  0.12509000000E+03 0.  0.
         25    1    3    3    0    0 -0.96092439882E+02  0.32609484705E+02  0.70617968650E+02  0.17587365093E+03  0.12509000000E+03 0.  0.
<mgrwt>
<rscale>  2 0.45128847E+03</rscale>
<asrwt>0</asrwt>
<pdfrwt beam="1">  1       21 0.39292902E-01 0.45128847E+03</pdfrwt>
<pdfrwt beam="2">  1       21 0.28023124E-01 0.45128847E+03</pdfrwt>
<totfact> 0.70405677E+04</totfact>
</mgrwt>
</event>
<event>
 7    0  0.4712189E-002  0.4501014E+03  0.7546771E-02  0.1027692E+00
         21   -1    0    0  502  501  0.00000000000E+00  0.00000000000E+00  0.40606947668E+03  0.40606947668E+03  0.00000000000E+00 0. -1.
         21   -1    0    0  501  502 -0.00000000000E+00 -0.00000000000E+00 -0.12472700223E+03  0.12472700223E+03  0.00000000000E+00 0. -1.
      99926    2    1    2    0    0 -0.53290705182E-14  0.00000000000E+00  0.28134247445E+03  0.53079647891E+03  0.45010144866E+03 0.  0.
      99925    2    3    3    0    0  0.12264279114E+02  0.56896935323E+02  0.28583558019E+03  0.39275528980E+03  0.26299632122E+03 0.  0.
         25    1    4    4    0    0 -0.21743590901E+02  0.57720661831E+02  0.13956944266E+03  0.19731091195E+03  0.12509000000E+03 0.  0.
         25    1    4    4    0    0  0.34007870014E+02 -0.82372650831E+00  0.14626613752E+03  0.19544437785E+03  0.12509000000E+03 0.  0.
         25    1    3    3    0    0 -0.12264279114E+02 -0.56896935323E+02 -0.44931057360E+01  0.13804118911E+03  0.12509000000E+03 0.  0.
<mgrwt>
<rscale>  2 0.45010145E+03</rscale>
<asrwt>0</asrwt>
<pdfrwt beam="1">  1       21 0.59716099E-01 0.45010145E+03</pdfrwt>
<pdfrwt beam="2">  1       21 0.18342206E-01 0.45010145E+03</pdfrwt>
<totfact> 0.65662923E+04</totfact>
</mgrwt>
</event>
<event>
 7    0  0.4712189E-002  0.4569837E+03  0.7546771E-02  0.1025660E+00
         21   -1    0    0  502  501  0.00000000000E+00  0.00000000000E+00  0.57310327968E+03  0.57310327968E+03  0.00000000000E+00 0.  1.
         21   -1    0    0  501  502 -0.00000000000E+00 -0.00000000000E+00 -0.91097922266E+02  0.91097922266E+02  0.00000000000E+00 0.  1.
      99926    2    1    2    0    0  0.00000000000E+00  0.14210854715E-13  0.48200535742E+03  0.66420120195E+03  0.45698366720E+03 0.  0.
      99925    2    3    3    0    0 -0.19291595178E+02  0.10698536982E+03  0.24828383448E+03  0.37768541987E+03  0.26302733492E+03 0.  0.
         25    1    3    3    0    0  0.19291595178E+02 -0.10698536982E+03  0.23372152293E+03  0.28651578208E+03  0.12509000000E+03 0.  0.
         25    1    4    4    0    0  0.17473146827E+02  0.66387354561E+02  0.16324671142E+03  0.21681694720E+03  0.12509000000E+03 0.  0.
         25    1    4    4    0    0 -0.36764742005E+02  0.40598015259E+02  0.85037123067E+02  0.16086847266E+03  0.12509000000E+03 0.  0.
<mgrwt>
<rscale>  2 0.45698367E+03</rscale>
<asrwt>0</asrwt>
<pdfrwt beam="1">  1       21 0.84279892E-01 0.45698367E+03</pdfrwt>
<pdfrwt beam="2">  1       21 0.13396754E-01 0.45698367E+03</pdfrwt>
<totfact> 0.54039637E+04</totfact>
</mgrwt>
</event>
<event>
 7    0  0.4712189E-002  0.4567274E+03  0.7546771E-02  0.1025735E+00
         21   -1    0    0  502  501  0.00000000000E+00  0.00000000000E+00  0.36416207230E+03  0.36416207230E+03  0.00000000000E+00 0. -1.
         21   -1    0    0  501  502 -0.00000000000E+00 -0.00000000000E+00 -0.14320543261E+03  0.14320543261E+03  0.00000000000E+00 0. -1.
      99926    2    1    2    0    0  0.00000000000E+00 -0.71054273576E-14  0.22095663969E+03  0.50736750491E+03  0.45672743339E+03 0.  0.
      99925    2    3    3    0    0  0.93962450981E+02 -0.44024826468E+02  0.19364174481E+03  0.34256234989E+03  0.26283970531E+03 0.  0.
         25    1    4    4    0    0  0.10602928416E+02 -0.27587540425E+02  0.65025417962E+02  0.14404619939E+03  0.12509000000E+03 0.  0.
         25    1    4    4    0    0  0.83359522565E+02 -0.16437286043E+02  0.12861632685E+03  0.19851615050E+03  0.12509000000E+03 0.  0.
         25    1    3    3    0    0 -0.93962450981E+02  0.44024826468E+02  0.27314894877E+02  0.16480515502E+03  0.12509000000E+03 0.  0.
<mgrwt>
<rscale>  2 0.45672743E+03</rscale>
<asrwt>0</asrwt>
<pdfrwt beam="1">  1       21 0.53553246E-01 0.45672743E+03</pdfrwt>
<pdfrwt beam="2">  1       21 0.21059623E-01 0.45672743E+03</pdfrwt>
<totfact> 0.63875825E+04</totfact>
</mgrwt>
</event>
<event>
 7    0  0.4712189E-002  0.4603650E+03  0.7546771E-02  0.1024675E+00
         21   -1    0    0  502  501  0.00000000000E+00  0.00000000000E+00  0.46174524742E+02  0.46174524742E+02  0.00000000000E+00 0.  1.
         21   -1    0    0  501  502 -0.00000000000E+00 -0.00000000000E+00 -0.11474719584E+04  0.11474719584E+04  0.00000000000E+00 0.  1.
      99926    2    1    2    0    0  0.00000000000E+00  0.00000000000E+00 -0.11012974337E+04  0.11936464832E+04  0.46036495234E+03 0.  0.
      99925    2    3    3    0    0  0.24991347416E+02 -0.91292808117E+01 -0.98806781699E+03  0.10228355777E+04  0.26307165738E+03 0.  0.
         25    1    4    4    0    0 -0.26824296877E+02 -0.11307332742E+02 -0.51446726228E+03  0.53025604262E+03  0.12509000000E+03 0.  0.
         25    1    4    4    0    0  0.51815644293E+02  0.21780519303E+01 -0.47360055470E+03  0.49257953512E+03  0.12509000000E+03 0.  0.
         25    1    3    3    0    0 -0.24991347416E+02  0.91292808117E+01 -0.11322961669E+03  0.17081090542E+03  0.12509000000E+03 0.  0.
<mgrwt>
<rscale>  2 0.46036495E+03</rscale>
<asrwt>0</asrwt>
<pdfrwt beam="1">  1       21 0.67903719E-02 0.46036495E+03</pdfrwt>
<pdfrwt beam="2">  1       21 0.16874586E+00 0.46036495E+03</pdfrwt>
<totfact> 0.31040195E+04</totfact>
</mgrwt>
</event>
<event>
 7    0  0.4712189E-002  0.4595866E+03  0.7546771E-02  0.1024901E+00
         21   -1    0    0  502  501  0.00000000000E+00  0.00000000000E+00  0.19096861910E+04  0.19096861910E+04  0.00000000000E+00 0.  1.
         21   -1    0    0  501  502 -0.00000000000E+00 -0.00000000000E+00 -0.27651123361E+02  0.27651123361E+02  0.00000000000E+00 0.  1.
      99926    2    1    2    0    0  0.17763568394E-14  0.00000000000E+00  0.18820350677E+04  0.19373373144E+04  0.45958663361E+03 0.  0.
      99925    2    3    3    0    0  0.14982656874E+02  0.90474948980E+02  0.87166752791E+03  0.91513368013E+03  0.26316378340E+03 0.  0.
         25    1    3    3    0    0 -0.14982656874E+02 -0.90474948980E+02  0.10103675397E+04  0.10222036342E+04  0.12509000000E+03 0.  0.
         25    1    4    4    0    0  0.46523230963E+02  0.33965319454E+02  0.41695281826E+03  0.43910729292E+03  0.12509000000E+03 0.  0.
         25    1    4    4    0    0 -0.31540574089E+02  0.56509629526E+02  0.45471470966E+03  0.47602638721E+03  0.12509000000E+03 0.  0.
<mgrwt>
<rscale>  2 0.45958663E+03</rscale>
<asrwt>0</asrwt>
<pdfrwt beam="1">  1       21 0.28083612E+00 0.45958663E+03</pdfrwt>
<pdfrwt beam="2">  1       21 0.40663430E-02 0.45958663E+03</pdfrwt>
<totfact> 0.14246137E+04</totfact>
</mgrwt>
</event>
<event>
 7    0  0.4712189E-002  0.4697398E+03  0.7546771E-02  0.1021994E+00
         21   -1    0    0  502  501  0.00000000000E+00  0.00000000000E+00  0.62706752695E+03  0.62706752695E+03  0.00000000000E+00 0.  1.
         21   -1    0    0  501  502 -0.00000000000E+00 -0.00000000000E+00 -0.87971193560E+02  0.87971193560E+02  0.00000000000E+00 0.  1.
      99926    2    1    2    0    0  0.71054273576E-14  0.00000000000E+00  0.53909633339E+03  0.71503872051E+03  0.46973983773E+03 0.  0.
      99925    2    3    3    0    0 -0.45742639930E+02  0.27937708197E+02  0.50938308332E+03  0.57574302791E+03  0.26293726242E+03 0.  0.
         25    1    3    3    0    0  0.45742639930E+02 -0.27937708197E+02  0.29713250068E+02  0.13929569260E+03  0.12509000000E+03 0.  0.
         25    1    4    4    0    0 -0.63761760422E+01  0.45731677004E+01  0.32457205099E+03  0.34793116254E+03  0.12509000000E+03 0.  0.
         25    1    4    4    0    0 -0.39366463887E+02  0.23364540497E+02  0.18481103234E+03  0.22781186537E+03  0.12509000000E+03 0.  0.
<mgrwt>
<rscale>  2 0.46973984E+03</rscale>
<asrwt>0</asrwt>
<pdfrwt beam="1">  1       21 0.92215810E-01 0.46973984E+03</pdfrwt>
<pdfrwt beam="2">  1       21 0.12936941E-01 0.46973984E+03</pdfrwt>
<totfact> 0.46466729E+04</totfact>
</mgrwt>
</event>
<event>
 7    0  0.4712189E-002  0.4514075E+03  0.7546771E-02  0.1027303E+00
         21   -1    0    0  502  501  0.00000000000E+00  0.00000000000E+00  0.87514871399E+03  0.87514871399E+03  0.00000000000E+00 0.  1.
         21   -1    0    0  501  502 -0.00000000000E+00 -0.00000000000E+00 -0.58209755274E+02  0.58209755274E+02  0.00000000000E+00 0.  1.
      99926    2    1    2    0    0  0.71054273576E-14  0.00000000000E+00  0.81693895872E+03  0.93335846927E+03  0.45140754300E+03 0.  0.
      99925    2    3    3    0    0  0.54723776496E+02  0.83950290313E+02  0.42464572402E+03  0.50958514183E+03  0.26326922131E+03 0.  0.
         25    1    4    4    0    0  0.66557850512E+02  0.47663944843E+02  0.20089271394E+03  0.25041403658E+03  0.12509000000E+03 0.  0.
         25    1    3    3    0    0 -0.54723776496E+02 -0.83950290313E+02  0.39229323470E+03  0.42377332744E+03  0.12509000000E+03 0.  0.
         25    1    4    4    0    0 -0.11834074016E+02  0.36286345469E+02  0.22375301008E+03  0.25917110525E+03  0.12509000000E+03 0.  0.
<mgrwt>
<rscale>  2 0.45140754E+03</rscale>
<asrwt>0</asrwt>
<pdfrwt beam="1">  1       21 0.12869833E+00 0.45140754E+03</pdfrwt>
<pdfrwt beam="2">  1       21 0.85602587E-02 0.45140754E+03</pdfrwt>
<totfact> 0.43018163E+04</totfact>
</mgrwt>
</event>
<event>
 7    0  0.4712189E-002  0.4531804E+03  0.7546771E-02  0.1026778E+00
         21   -1    0    0  502  501  0.00000000000E+00  0.00000000000E+00  0.30111208997E+03  0.30111208997E+03  0.00000000000E+00 0.  1.
         21   -1    0    0  501  502 -0.00000000000E+00 -0.00000000000E+00 -0.17051168259E+03  0.17051168259E+03  0.00000000000E+00 0.  1.
      99926    2    1    2    0    0 -0.35527136788E-14 -0.14210854715E-13  0.13060040738E+03  0.47162377256E+03  0.45318044578E+03 0.  0.
      99925    2    3    3    0    0 -0.25801655434E+02  0.79159789846E+02  0.15971482565E+03  0.31856445333E+03  0.26275937213E+03 0.  0.
         25    1    3    3    0    0  0.25801655434E+02 -0.79159789846E+02 -0.29114418260E+02  0.15305931923E+03  0.12509000000E+03 0.  0.
         25    1    4    4    0    0  0.14976909003E+02  0.67967310724E+02  0.74055529137E+02  0.16116945314E+03  0.12509000000E+03 0.  0.
         25    1    4    4    0    0 -0.40778564437E+02  0.11192479122E+02  0.85659296508E+02  0.15739500019E+03  0.12509000000E+03 0.  0.
<mgrwt>
<rscale>  2 0.45318045E+03</rscale>
<asrwt>0</asrwt>
<pdfrwt beam="1">  1       21 0.44281190E-01 0.45318045E+03</pdfrwt>
<pdfrwt beam="2">  1       21 0.25075247E-01 0.45318045E+03</pdfrwt>
<totfact> 0.68295846E+04</totfact>
</mgrwt>
</event>
<event>
 7    0  0.4712189E-002  0.4268535E+03  0.7546771E-02  0.1034859E+00
         21   -1    0    0  502  501  0.00000000000E+00  0.00000000000E+00  0.55688948504E+03  0.55688948504E+03  0.00000000000E+00 0. -1.
         21   -1    0    0  501  502 -0.00000000000E+00 -0.00000000000E+00 -0.81795356452E+02  0.81795356452E+02  0.00000000000E+00 0. -1.
      99926    2    1    2    0    0  0.00000000000E+00 -0.14210854715E-13  0.47509412859E+03  0.63868484149E+03  0.42685348275E+03 0.  0.
      99925    2    3    3    0    0  0.32971590922E+02 -0.72733111279E+02  0.34620162283E+03  0.44211928646E+03  0.26312861594E+03 0.  0.
         25    1    3    3    0    0 -0.32971590922E+02  0.72733111279E+02  0.12889250576E+03  0.19656555503E+03  0.12509000000E+03 0.  0.
         25    1    4    4    0    0  0.12669578857E+02 -0.77014991833E+02  0.16992125295E+03  0.22497237053E+03  0.12509000000E+03 0.  0.
         25    1    4    4    0    0  0.20302012065E+02  0.42818805537E+01  0.17628036988E+03  0.21714691593E+03  0.12509000000E+03 0.  0.
<mgrwt>
<rscale>  2 0.42685348E+03</rscale>
<asrwt>0</asrwt>
<pdfrwt beam="1">  1       21 0.81895511E-01 0.42685348E+03</pdfrwt>
<pdfrwt beam="2">  1       21 0.12028729E-01 0.42685348E+03</pdfrwt>
<totfact> 0.70818622E+04</totfact>
</mgrwt>
</event>
<event>
 7    0  0.4712189E-002  0.4528312E+03  0.7546771E-02  0.1026881E+00
         21   -1    0    0  502  501  0.00000000000E+00  0.00000000000E+00  0.87133339595E+03  0.87133339595E+03  0.00000000000E+00 0. -1.
         21   -1    0    0  501  502 -0.00000000000E+00 -0.00000000000E+00 -0.58833985901E+02  0.58833985901E+02  0.00000000000E+00 0. -1.
      99926    2    1    2    0    0 -0.17763568394E-14 -0.14210854715E-13  0.81249941004E+03  0.93016738185E+03  0.45283116824E+03 0.  0.
      99925    2    3    3    0    0 -0.10422855385E+02 -0.10911153560E+03  0.55140347521E+03  0.62059903979E+03  0.26283723595E+03 0.  0.
         25    1    4    4    0    0  0.14237452047E+02 -0.16428694174E+02  0.23490008656E+03  0.26701716387E+03  0.12509000000E+03 0.  0.
         25    1    4    4    0    0 -0.24660307432E+02 -0.92682841425E+02  0.31650338865E+03  0.35358187593E+03  0.12509000000E+03 0.  0.
         25    1    3    3    0    0  0.10422855385E+02  0.10911153560E+03  0.26109593483E+03  0.30956834205E+03  0.12509000000E+03 0.  0.
<mgrwt>
<rscale>  2 0.45283117E+03</rscale>
<asrwt>0</asrwt>
<pdfrwt beam="1">  1       21 0.12813726E+00 0.45283117E+03</pdfrwt>
<pdfrwt beam="2">  1       21 0.86520573E-02 0.45283117E+03</pdfrwt>
<totfact> 0.42673831E+04</totfact>
</mgrwt>
</event>
<event>
 7    0  0.4712189E-002  0.4520274E+03  0.7546771E-02  0.1027119E+00
         21   -1    0    0  502  501  0.00000000000E+00  0.00000000000E+00  0.44264074935E+02  0.44264074935E+02  0.00000000000E+00 0. -1.
         21   -1    0    0  501  502 -0.00000000000E+00 -0.00000000000E+00 -0.11540325254E+04  0.11540325254E+04  0.00000000000E+00 0. -1.
      99926    2    1    2    0    0  0.00000000000E+00  0.00000000000E+00 -0.11097684505E+04  0.11982966004E+04  0.45202735397E+03 0.  0.
      99925    2    3    3    0    0 -0.66314723060E+02  0.47646089063E+02 -0.50716408242E+03  0.57745255810E+03  0.26375795354E+03 0.  0.
         25    1    3    3    0    0  0.66314723060E+02 -0.47646089063E+02 -0.60260436807E+03  0.62084404227E+03  0.12509000000E+03 0.  0.
         25    1    4    4    0    0 -0.29066513834E+02  0.43383036971E+02 -0.18110730343E+03  0.22621740335E+03  0.12509000000E+03 0.  0.
         25    1    4    4    0    0 -0.37248209226E+02  0.42630520920E+01 -0.32605677899E+03  0.35123515474E+03  0.12509000000E+03 0.  0.
<mgrwt>
<rscale>  2 0.45202735E+03</rscale>
<asrwt>0</asrwt>
<pdfrwt beam="1">  1       21 0.65094219E-02 0.45202735E+03</pdfrwt>
<pdfrwt beam="2">  1       21 0.16971069E+00 0.45202735E+03</pdfrwt>
<totfact> 0.32966796E+04</totfact>
</mgrwt>
</event>
<event>
 7    0  0.4712189E-002  0.4477856E+03  0.7546771E-02  0.1028384E+00
         21   -1    0    0  502  501  0.00000000000E+00  0.00000000000E+00  0.36512600311E+02  0.36512600311E+02  0.00000000000E+00 0. -1.
         21   -1    0    0  501  502 -0.00000000000E+00 -0.00000000000E+00 -0.13728953581E+04  0.13728953581E+04  0.00000000000E+00 0. -1.
      99926    2    1    2    0    0  0.00000000000E+00  0.00000000000E+00 -0.13363827578E+04  0.14094079584E+04  0.44778557136E+03 0.  0.
      99925    2    3    3    0    0 -0.89485054524E+02  0.52285773639E+02 -0.92140958765E+03  0.96377176471E+03  0.26290494312E+03 0.  0.
         25    1    4    4    0    0 -0.21325954097E+02  0.12535320249E+00 -0.50128833650E+03  0.51709990954E+03  0.12509000000E+03 0.  0.
         25    1    3    3    0    0  0.89485054524E+02 -0.52285773639E+02 -0.41497317016E+03  0.44563619373E+03  0.12509000000E+03 0.  0.
         25    1    4    4    0    0 -0.68159100427E+02  0.52160420437E+02 -0.42012125115E+03  0.44667185517E+03  0.12509000000E+03 0.  0.
<mgrwt>
<rscale>  2 0.44778557E+03</rscale>
<asrwt>0</asrwt>
<pdfrwt beam="1">  1       21 0.53695024E-02 0.44778557E+03</pdfrwt>
<pdfrwt beam="2">  1       21 0.20189629E+00 0.44778557E+03</pdfrwt>
<totfact> 0.27597462E+04</totfact>
</mgrwt>
</event>
<event>
 7    0  0.4712189E-002  0.4505142E+03  0.7546771E-02  0.1027569E+00
         21   -1    0    0  502  501  0.00000000000E+00  0.00000000000E+00  0.15137395229E+04  0.15137395229E+04  0.00000000000E+00 0. -1.
         21   -1    0    0  501  502 -0.00000000000E+00 -0.00000000000E+00 -0.33520146995E+02  0.33520146995E+02  0.00000000000E+00 0. -1.
      99926    2    1    2    0    0  0.00000000000E+00  0.00000000000E+00  0.14802193759E+04  0.15472596699E+04  0.45051424537E+03 0.  0.
      99925    2    3    3    0    0  0.32255365566E+02 -0.31370470823E+02  0.12754870220E+04  0.13031544469E+04  0.26328663884E+03 0.  0.
         25    1    4    4    0    0  0.40459279552E+02 -0.43008651862E+02  0.57178636948E+03  0.58828042451E+03  0.12509000000E+03 0.  0.
         25    1    3    3    0    0 -0.32255365566E+02  0.31370470823E+02  0.20473235390E+03  0.24410522297E+03  0.12509000000E+03 0.  0.
         25    1    4    4    0    0 -0.82039139862E+01  0.11638181039E+02  0.70370065251E+03  0.71487402240E+03  0.12509000000E+03 0.  0.
<mgrwt>
<rscale>  2 0.45051425E+03</rscale>
<asrwt>0</asrwt>
<pdfrwt beam="1">  1       21 0.22260871E+00 0.45051425E+03</pdfrwt>
<pdfrwt beam="2">  1       21 0.49294344E-02 0.45051425E+03</pdfrwt>
<totfact> 0.23450710E+04</totfact>
</mgrwt>
</event>
<event>
 7    0  0.4712189E-002  0.4472785E+03  0.7546771E-02  0.1028537E+00
         21   -1    0    0  502  501  0.00000000000E+00  0.00000000000E+00  0.86143989602E+02  0.86143989602E+02  0.00000000000E+00 0.  1.
         21   -1    0    0  501  502 -0.00000000000E+00 -0.00000000000E+00 -0.58059191469E+03  0.58059191469E+03  0.00000000000E+00 0.  1.
      99926    2    1    2    0    0  0.00000000000E+00  0.00000000000E+00 -0.49444792509E+03  0.66673590429E+03  0.44727845404E+03 0.  0.
      99925    2    3    3    0    0 -0.61169074093E+02  0.29623863097E+02 -0.43433057779E+03  0.51220166072E+03  0.26284646003E+03 0.  0.
         25    1    4    4    0    0  0.59168601250E+01  0.12045708868E+02 -0.23918448936E+03  0.27025328191E+03  0.12509000000E+03 0.  0.
         25    1    3    3    0    0  0.61169074093E+02 -0.29623863097E+02 -0.60117347296E+02  0.15453424357E+03  0.12509000000E+03 0.  0.
         25    1    4    4    0    0 -0.67085934218E+02  0.17578154229E+02 -0.19514608844E+03  0.24194837881E+03  0.12509000000E+03 0.  0.
<mgrwt>
<rscale>  2 0.44727845E+03</rscale>
<asrwt>0</asrwt>
<pdfrwt beam="1">  1       21 0.12668234E-01 0.44727845E+03</pdfrwt>
<pdfrwt beam="2">  1       21 0.85381164E-01 0.44727845E+03</pdfrwt>
<totfact> 0.58208183E+04</totfact>
</mgrwt>
</event>
<event>
 7    0  0.4712189E-002  0.4482671E+03  0.7546771E-02  0.1028240E+00
         21   -1    0    0  502  501  0.00000000000E+00  0.00000000000E+00  0.73083225534E+03  0.73083225534E+03  0.00000000000E+00 0. -1.
         21   -1    0    0  501  502 -0.00000000000E+00 -0.00000000000E+00 -0.68737848781E+02  0.68737848781E+02  0.00000000000E+00 0. -1.
      99926    2    1    2    0    0  0.35527136788E-14  0.00000000000E+00  0.66209440656E+03  0.79957010413E+03  0.44826705010E+03 0.  0.
      99925    2    3    3    0    0  0.17985242807E+02  0.97307883386E+01  0.60617826060E+03  0.66103389702E+03  0.26286036632E+03 0.  0.
         25    1    3    3    0    0 -0.17985242807E+02 -0.97307883386E+01  0.55916145963E+02  0.13853620711E+03  0.12509000000E+03 0.  0.
         25    1    4    4    0    0 -0.11849329831E+02  0.26388831151E+02  0.23394623014E+03  0.26686161905E+03  0.12509000000E+03 0.  0.
         25    1    4    4    0    0  0.29834572638E+02 -0.16658042813E+02  0.37223203046E+03  0.39417227797E+03  0.12509000000E+03 0.  0.
<mgrwt>
<rscale>  2 0.44826705E+03</rscale>
<asrwt>0</asrwt>
<pdfrwt beam="1">  1       21 0.10747533E+00 0.44826705E+03</pdfrwt>
<pdfrwt beam="2">  1       21 0.10108508E-01 0.44826705E+03</pdfrwt>
<totfact> 0.50396215E+04</totfact>
</mgrwt>
</event>
<event>
 7    0  0.4712189E-002  0.4518592E+03  0.7546771E-02  0.1027169E+00
         21   -1    0    0  502  501  0.00000000000E+00  0.00000000000E+00  0.39754113803E+02  0.39754113803E+02  0.00000000000E+00 0.  1.
         21   -1    0    0  501  502 -0.00000000000E+00 -0.00000000000E+00 -0.12839976762E+04  0.12839976762E+04  0.00000000000E+00 0.  1.
      99926    2    1    2    0    0  0.35527136788E-14  0.00000000000E+00 -0.12442435624E+04  0.13237517900E+04  0.45185922473E+03 0.  0.
      99925    2    3    3    0    0  0.15838852345E+02  0.22759905484E+02 -0.10967693691E+04  0.11283930729E+04  0.26381621549E+03 0.  0.
         25    1    4    4    0    0  0.17683745399E+02 -0.21656610784E+02 -0.43746928172E+03  0.45586029021E+03  0.12509000000E+03 0.  0.
         25    1    3    3    0    0 -0.15838852345E+02 -0.22759905484E+02 -0.14747419334E+03  0.19535871709E+03  0.12509000000E+03 0.  0.
         25    1    4    4    0    0 -0.18448930535E+01  0.44416516268E+02 -0.65930008737E+03  0.67253278273E+03  0.12509000000E+03 0.  0.
<mgrwt>
<rscale>  2 0.45185922E+03</rscale>
<asrwt>0</asrwt>
<pdfrwt beam="1">  1       21 0.58461934E-02 0.45185922E+03</pdfrwt>
<pdfrwt beam="2">  1       21 0.18882318E+00 0.45185922E+03</pdfrwt>
<totfact> 0.29137781E+04</totfact>
</mgrwt>
</event>
<event>
 7    0  0.4712189E-002  0.4542203E+03  0.7546771E-02  0.1026471E+00
         21   -1    0    0  502  501  0.00000000000E+00  0.00000000000E+00  0.18528460867E+03  0.18528460867E+03  0.00000000000E+00 0.  1.
         21   -1    0    0  501  502 -0.00000000000E+00 -0.00000000000E+00 -0.27837726323E+03  0.27837726323E+03  0.00000000000E+00 0.  1.
      99926    2    1    2    0    0  0.00000000000E+00  0.00000000000E+00 -0.93092654567E+02  0.46366187190E+03  0.45422030901E+03 0.  0.
      99925    2    3    3    0    0  0.62078751402E+02  0.51781665131E+02  0.21190399868E+02  0.27593005027E+03  0.26297005035E+03 0.  0.
         25    1    4    4    0    0  0.43428835158E+02 -0.11193439891E+02  0.21689511766E+02  0.13464508844E+03  0.12509000000E+03 0.  0.
         25    1    3    3    0    0 -0.62078751402E+02 -0.51781665131E+02 -0.11428305443E+03  0.18773182162E+03  0.12509000000E+03 0.  0.
         25    1    4    4    0    0  0.18649916244E+02  0.62975105023E+02 -0.49911189795E+00  0.14128496184E+03  0.12509000000E+03 0.  0.
<mgrwt>
<rscale>  2 0.45422031E+03</rscale>
<asrwt>0</asrwt>
<pdfrwt beam="1">  1       21 0.27247737E-01 0.45422031E+03</pdfrwt>
<pdfrwt beam="2">  1       21 0.40937832E-01 0.45422031E+03</pdfrwt>
<totfact> 0.68332252E+04</totfact>
</mgrwt>
</event>
<event>
 7    0  0.4712189E-002  0.4517004E+03  0.7546771E-02  0.1027216E+00
         21   -1    0    0  502  501  0.00000000000E+00  0.00000000000E+00  0.75287097993E+02  0.75287097993E+02  0.00000000000E+00 0.  1.
         21   -1    0    0  501  502 -0.00000000000E+00 -0.00000000000E+00 -0.67751721931E+03  0.67751721931E+03  0.00000000000E+00 0.  1.
      99926    2    1    2    0    0  0.00000000000E+00 -0.14210854715E-13 -0.60223012131E+03  0.75280431730E+03  0.45170036654E+03 0.  0.
      99925    2    3    3    0    0  0.46546667440E+02 -0.73140688805E+02 -0.26706916732E+03  0.38470579001E+03  0.26297614365E+03 0.  0.
         25    1    4    4    0    0  0.55537585745E+02 -0.62212055599E+02 -0.13198057394E+03  0.20005285124E+03  0.12509000000E+03 0.  0.
         25    1    4    4    0    0 -0.89909183051E+01 -0.10928633206E+02 -0.13508859338E+03  0.18465293877E+03  0.12509000000E+03 0.  0.
         25    1    3    3    0    0 -0.46546667440E+02  0.73140688805E+02 -0.33516095399E+03  0.36809852729E+03  0.12509000000E+03 0.  0.
<mgrwt>
<rscale>  2 0.45170037E+03</rscale>
<asrwt>0</asrwt>
<pdfrwt beam="1">  1       21 0.11071633E-01 0.45170037E+03</pdfrwt>
<pdfrwt beam="2">  1       21 0.99634878E-01 0.45170037E+03</pdfrwt>
<totfact> 0.51449269E+04</totfact>
</mgrwt>
</event>
<event>
 7    0  0.4712189E-002  0.4430195E+03  0.7546771E-02  0.1029824E+00
         21   -1    0    0  502  501  0.00000000000E+00  0.00000000000E+00  0.14233342461E+04  0.14233342461E+04  0.00000000000E+00 0.  1.
         21   -1    0    0  501  502 -0.00000000000E+00 -0.00000000000E+00 -0.34472980547E+02  0.34472980547E+02  0.00000000000E+00 0.  1.
      99926    2    1    2    0    0  0.00000000000E+00  0.00000000000E+00  0.13888612656E+04  0.14578072267E+04  0.44301952001E+03 0.  0.
      99925    2    3    3    0    0  0.25079359429E+02 -0.83589533735E+01  0.12062710485E+04  0.12349046878E+04  0.26306063765E+03 0.  0.
         25    1    4    4    0    0  0.11908578613E+02  0.48244675589E+01  0.41640902520E+03  0.43498169398E+03  0.12509000000E+03 0.  0.
         25    1    4    4    0    0  0.13170780816E+02 -0.13183420932E+02  0.78986202330E+03  0.79992299380E+03  0.12509000000E+03 0.  0.
         25    1    3    3    0    0 -0.25079359429E+02  0.83589533735E+01  0.18259021707E+03  0.22290253888E+03  0.12509000000E+03 0.  0.
<mgrwt>
<rscale>  2 0.44301952E+03</rscale>
<asrwt>0</asrwt>
<pdfrwt beam="1">  1       21 0.20931382E+00 0.44301952E+03</pdfrwt>
<pdfrwt beam="2">  1       21 0.50695569E-02 0.44301952E+03</pdfrwt>
<totfact> 0.27284008E+04</totfact>
</mgrwt>
</event>
<event>
 7    0  0.4712189E-002  0.4600685E+03  0.7546771E-02  0.1024761E+00
         21   -1    0    0  502  501  0.00000000000E+00  0.00000000000E+00  0.58352699694E+02  0.58352699694E+02  0.00000000000E+00 0. -1.
         21   -1    0    0  501  502 -0.00000000000E+00 -0.00000000000E+00 -0.90682626392E+03  0.90682626392E+03  0.00000000000E+00 0. -1.
      99926    2    1    2    0    0 -0.35527136788E-14  0.00000000000E+00 -0.84847356423E+03  0.96517896361E+03  0.46006851948E+03 0.  0.
      99925    2    3    3    0    0 -0.17010211920E+02 -0.90314760862E+02 -0.68616330198E+03  0.74059438563E+03  0.26308527838E+03 0.  0.
         25    1    4    4    0    0  0.18992732098E+02 -0.12931504504E+02 -0.32087707014E+03  0.34516307729E+03  0.12509000000E+03 0.  0.
         25    1    4    4    0    0 -0.36002944018E+02 -0.77383256358E+02 -0.36528623184E+03  0.39543130834E+03  0.12509000000E+03 0.  0.
         25    1    3    3    0    0  0.17010211920E+02  0.90314760862E+02 -0.16231026225E+03  0.22458457799E+03  0.12509000000E+03 0.  0.
<mgrwt>
<rscale>  2 0.46006852E+03</rscale>
<asrwt>0</asrwt>
<pdfrwt beam="1">  1       21 0.85812794E-02 0.46006852E+03</pdfrwt>
<pdfrwt beam="2">  1       21 0.13335680E+00 0.46006852E+03</pdfrwt>
<totfact> 0.38965046E+04</totfact>
</mgrwt>
</event>
<event>
 7    0  0.4712189E-002  0.4354321E+03  0.7546771E-02  0.1032158E+00
         21   -1    0    0  502  501  0.00000000000E+00  0.00000000000E+00  0.23773210053E+03  0.23773210053E+03  0.00000000000E+00 0.  1.
         21   -1    0    0  501  502 -0.00000000000E+00 -0.00000000000E+00 -0.19938530546E+03  0.19938530546E+03  0.00000000000E+00 0.  1.
      99926    2    1    2    0    0 -0.88817841970E-15  0.14210854715E-13  0.38346795071E+02  0.43711740600E+03  0.43543214159E+03 0.  0.
      99925    2    3    3    0    0  0.24494317286E+01 -0.89825319508E+02  0.16340889532E+01  0.27878257524E+03  0.26389859088E+03 0.  0.
         25    1    3    3    0    0 -0.24494317286E+01  0.89825319508E+02  0.36712706118E+02  0.15833483076E+03  0.12509000000E+03 0.  0.
         25    1    4    4    0    0 -0.17437657785E+02 -0.73548412742E+02  0.26888915683E+02  0.14860673879E+03  0.12509000000E+03 0.  0.
         25    1    4    4    0    0  0.19887089514E+02 -0.16276906766E+02 -0.25254826729E+02  0.13017583645E+03  0.12509000000E+03 0.  0.
<mgrwt>
<rscale>  2 0.43543214E+03</rscale>
<asrwt>0</asrwt>
<pdfrwt beam="1">  1       21 0.34960603E-01 0.43543214E+03</pdfrwt>
<pdfrwt beam="2">  1       21 0.29321368E-01 0.43543214E+03</pdfrwt>
<totfact> 0.81941314E+04</totfact>
</mgrwt>
</event>
<event>
 7    0  0.4712189E-002  0.4601847E+03  0.7546771E-02  0.1024728E+00
         21   -1    0    0  502  501  0.00000000000E+00  0.00000000000E+00  0.73836855813E+02  0.73836855813E+02  0.00000000000E+00 0.  1.
         21   -1    0    0  501  502 -0.00000000000E+00 -0.00000000000E+00 -0.71701996413E+03  0.71701996413E+03  0.00000000000E+00 0.  1.
      99926    2    1    2    0    0  0.17763568394E-14 -0.14210854715E-13 -0.64318310832E+03  0.79085681994E+03  0.46018474423E+03 0.  0.
      99925    2    3    3    0    0  0.11378411462E+02 -0.87091159959E+02 -0.53668673461E+03  0.60456853770E+03  0.26411385286E+03 0.  0.
         25    1    3    3    0    0 -0.11378411462E+02  0.87091159959E+02 -0.10649637371E+03  0.18628828225E+03  0.12509000000E+03 0.  0.
         25    1    4    4    0    0 -0.39453575353E+00 -0.23403587466E+02 -0.17467975495E+03  0.21612128182E+03  0.12509000000E+03 0.  0.
         25    1    4    4    0    0  0.11772947216E+02 -0.63687572493E+02 -0.36200697966E+03  0.38844725588E+03  0.12509000000E+03 0.  0.
<mgrwt>
<rscale>  2 0.46018474E+03</rscale>
<asrwt>0</asrwt>
<pdfrwt beam="1">  1       21 0.10858361E-01 0.46018474E+03</pdfrwt>
<pdfrwt beam="2">  1       21 0.10544411E+00 0.46018474E+03</pdfrwt>
<totfact> 0.46297392E+04</totfact>
</mgrwt>
</event>
<event>
 7    0  0.4712189E-002  0.4478808E+03  0.7546771E-02  0.1028356E+00
         21   -1    0    0  502  501  0.00000000000E+00  0.00000000000E+00  0.82263597932E+02  0.82263597932E+02  0.00000000000E+00 0.  1.
         21   -1    0    0  501  502 -0.00000000000E+00 -0.00000000000E+00 -0.60961714873E+03  0.60961714873E+03  0.00000000000E+00 0.  1.
      99926    2    1    2    0    0  0.00000000000E+00  0.00000000000E+00 -0.52735355080E+03  0.69188074666E+03  0.44788078778E+03 0.  0.
      99925    2    3    3    0    0 -0.67677426351E+02  0.52984738695E+01 -0.46051110463E+03  0.53464293768E+03  0.26299103685E+03 0.  0.
         25    1    3    3    0    0  0.67677426351E+02 -0.52984738695E+01 -0.66842446164E+02  0.15723780898E+03  0.12509000000E+03 0.  0.
         25    1    4    4    0    0 -0.24813510790E+02 -0.45997669312E+01 -0.30282646419E+03  0.32861564735E+03  0.12509000000E+03 0.  0.
         25    1    4    4    0    0 -0.42863915561E+02  0.98982408006E+01 -0.15768464045E+03  0.20602729033E+03  0.12509000000E+03 0.  0.
<mgrwt>
<rscale>  2 0.44788079E+03</rscale>
<asrwt>0</asrwt>
<pdfrwt beam="1">  1       21 0.12097588E-01 0.44788079E+03</pdfrwt>
<pdfrwt beam="2">  1       21 0.89649581E-01 0.44788079E+03</pdfrwt>
<totfact> 0.56443164E+04</totfact>
</mgrwt>
</event>
<event>
 7    0  0.4712189E-002  0.4563539E+03  0.7546771E-02  0.1025844E+00
         21   -1    0    0  502  501  0.00000000000E+00  0.00000000000E+00  0.15134648626E+03  0.15134648626E+03  0.00000000000E+00 0. -1.
         21   -1    0    0  501  502 -0.00000000000E+00 -0.00000000000E+00 -0.34401005535E+03  0.34401005535E+03  0.00000000000E+00 0. -1.
      99926    2    1    2    0    0  0.00000000000E+00  0.00000000000E+00 -0.19266356909E+03  0.49535654161E+03  0.45635386759E+03 0.  0.
      99925    2    3    3    0    0  0.79661741421E+02  0.80578278887E+02 -0.13664950562E+03  0.31752534221E+03  0.26326869066E+03 0.  0.
         25    1    3    3    0    0 -0.79661741421E+02 -0.80578278887E+02 -0.56014063473E+02  0.17783119940E+03  0.12509000000E+03 0.  0.
         25    1    4    4    0    0  0.68011747502E+02  0.74520725548E+02 -0.81457252832E+02  0.18017138639E+03  0.12509000000E+03 0.  0.
         25    1    4    4    0    0  0.11649993919E+02  0.60575533395E+01 -0.55192252788E+02  0.13735395582E+03  0.12509000000E+03 0.  0.
<mgrwt>
<rscale>  2 0.45635387E+03</rscale>
<asrwt>0</asrwt>
<pdfrwt beam="1">  1       21 0.22256837E-01 0.45635387E+03</pdfrwt>
<pdfrwt beam="2">  1       21 0.50589713E-01 0.45635387E+03</pdfrwt>
<totfact> 0.64897804E+04</totfact>
</mgrwt>
</event>
<event>
 7    0  0.4712189E-002  0.4548027E+03  0.7546771E-02  0.1026299E+00
         21   -1    0    0  502  501  0.00000000000E+00  0.00000000000E+00  0.37277038509E+03  0.37277038509E+03  0.00000000000E+00 0. -1.
         21   -1    0    0  501  502 -0.00000000000E+00 -0.00000000000E+00 -0.13872180939E+03  0.13872180939E+03  0.00000000000E+00 0. -1.
      99926    2    1    2    0    0  0.00000000000E+00  0.26645352591E-14  0.23404857569E+03  0.51149219448E+03  0.45480273661E+03 0.  0.
      99925    2    3    3    0    0  0.20372854956E+02 -0.47790504454E+01  0.27225915502E+03  0.37903295918E+03  0.26287457868E+03 0.  0.
         25    1    4    4    0    0  0.30976031805E+02 -0.37045357693E+02  0.13829182189E+03  0.19262400986E+03  0.12509000000E+03 0.  0.
         25    1    4    4    0    0 -0.10603176849E+02  0.32266307247E+02  0.13396733312E+03  0.18640894932E+03  0.12509000000E+03 0.  0.
         25    1    3    3    0    0 -0.20372854956E+02  0.47790504454E+01 -0.38210579325E+02  0.13245923529E+03  0.12509000000E+03 0.  0.
<mgrwt>
<rscale>  2 0.45480274E+03</rscale>
<asrwt>0</asrwt>
<pdfrwt beam="1">  1       21 0.54819174E-01 0.45480274E+03</pdfrwt>
<pdfrwt beam="2">  1       21 0.20400266E-01 0.45480274E+03</pdfrwt>
<totfact> 0.64571633E+04</totfact>
</mgrwt>
</event>
<event>
 7    0  0.4712189E-002  0.4575261E+03  0.7546771E-02  0.1025501E+00
         21   -1    0    0  502  501  0.00000000000E+00  0.00000000000E+00  0.79357629884E+03  0.79357629884E+03  0.00000000000E+00 0.  1.
         21   -1    0    0  501  502 -0.00000000000E+00 -0.00000000000E+00 -0.65945172182E+02  0.65945172182E+02  0.00000000000E+00 0.  1.
      99926    2    1    2    0    0  0.00000000000E+00  0.35527136788E-14  0.72763112666E+03  0.85952147102E+03  0.45752606775E+03 0.  0.
      99925    2    3    3    0    0 -0.10791198943E+03  0.20564185400E+02  0.52442420867E+03  0.59682689018E+03  0.26289485165E+03 0.  0.
         25    1    4    4    0    0 -0.31821058604E+02 -0.25159953479E+02  0.24653565721E+03  0.27941535642E+03  0.12509000000E+03 0.  0.
         25    1    4    4    0    0 -0.76090930828E+02  0.45724138879E+02  0.27788855146E+03  0.31741153376E+03  0.12509000000E+03 0.  0.
         25    1    3    3    0    0  0.10791198943E+03 -0.20564185400E+02  0.20320691799E+03  0.26269458084E+03  0.12509000000E+03 0.  0.
<mgrwt>
<rscale>  2 0.45752607E+03</rscale>
<asrwt>0</asrwt>
<pdfrwt beam="1">  1       21 0.11670239E+00 0.45752607E+03</pdfrwt>
<pdfrwt beam="2">  1       21 0.96978199E-02 0.45752607E+03</pdfrwt>
<totfact> 0.44135380E+04</totfact>
</mgrwt>
</event>
<event>
 7    0  0.4712189E-002  0.4606629E+03  0.7546771E-02  0.1024589E+00
         21   -1    0    0  502  501  0.00000000000E+00  0.00000000000E+00  0.18792176742E+03  0.18792176742E+03  0.00000000000E+00 0.  1.
         21   -1    0    0  501  502 -0.00000000000E+00 -0.00000000000E+00 -0.28231198111E+03  0.28231198111E+03  0.00000000000E+00 0.  1.
      99926    2    1    2    0    0  0.00000000000E+00  0.00000000000E+00 -0.94390213696E+02  0.47023374853E+03  0.46066285482E+03 0.  0.
      99925    2    3    3    0    0 -0.44528038429E+02 -0.34565952895E+02  0.47108219903E+02  0.27313766507E+03  0.26307308564E+03 0.  0.
         25    1    4    4    0    0 -0.50712664242E+02 -0.44244321238E+02  0.38789713586E+02  0.14724633869E+03  0.12509000000E+03 0.  0.
         25    1    4    4    0    0  0.61846258126E+01  0.96783683427E+01  0.83185063173E+01  0.12589132638E+03  0.12509000000E+03 0.  0.
         25    1    3    3    0    0  0.44528038429E+02  0.34565952895E+02 -0.14149843360E+03  0.19709608346E+03  0.12509000000E+03 0.  0.
<mgrwt>
<rscale>  2 0.46066285E+03</rscale>
<asrwt>0</asrwt>
<pdfrwt beam="1">  1       21 0.27635554E-01 0.46066285E+03</pdfrwt>
<pdfrwt beam="2">  1       21 0.41516467E-01 0.46066285E+03</pdfrwt>
<totfact> 0.64472076E+04</totfact>
</mgrwt>
</event>
<event>
 7    0  0.4712189E-002  0.4585056E+03  0.7546771E-02  0.1025216E+00
         21   -1    0    0  502  501  0.00000000000E+00  0.00000000000E+00  0.16424631658E+03  0.16424631658E+03  0.00000000000E+00 0. -1.
         21   -1    0    0  501  502 -0.00000000000E+00 -0.00000000000E+00 -0.31998792101E+03  0.31998792101E+03  0.00000000000E+00 0. -1.
      99926    2    1    2    0    0  0.00000000000E+00 -0.13322676296E-14 -0.15574160443E+03  0.48423423759E+03  0.45850556104E+03 0.  0.
      99925    2    3    3    0    0 -0.10331022759E+03  0.21352881282E+01 -0.15406772392E+03  0.32197557817E+03  0.26316125627E+03 0.  0.
         25    1    4    4    0    0 -0.29076603325E+02  0.31574360467E+02 -0.53275342477E+02  0.14257685407E+03  0.12509000000E+03 0.  0.
         25    1    3    3    0    0  0.10331022759E+03 -0.21352881282E+01 -0.16738805138E+01  0.16225865942E+03  0.12509000000E+03 0.  0.
         25    1    4    4    0    0 -0.74233624268E+02 -0.29439072339E+02 -0.10079238144E+03  0.17939872410E+03  0.12509000000E+03 0.  0.
<mgrwt>
<rscale>  2 0.45850556E+03</rscale>
<asrwt>0</asrwt>
<pdfrwt beam="1">  1       21 0.24153871E-01 0.45850556E+03</pdfrwt>
<pdfrwt beam="2">  1       21 0.47057046E-01 0.45850556E+03</pdfrwt>
<totfact> 0.64577368E+04</totfact>
</mgrwt>
</event>
<event>
 7    0  0.4712189E-002  0.4608630E+03  0.7546771E-02  0.1024531E+00
         21   -1    0    0  502  501  0.00000000000E+00  0.00000000000E+00  0.73029373270E+03  0.73029373270E+03  0.00000000000E+00 0. -1.
         21   -1    0    0  501  502 -0.00000000000E+00 -0.00000000000E+00 -0.72708667145E+02  0.72708667145E+02  0.00000000000E+00 0. -1.
      99926    2    1    2    0    0  0.35527136788E-14  0.00000000000E+00  0.65758506556E+03  0.80300239985E+03  0.46086303358E+03 0.  0.
      99925    2    3    3    0    0  0.23269231341E+02  0.33076430836E+02  0.60583961655E+03  0.66172038756E+03  0.26305269990E+03 0.  0.
         25    1    4    4    0    0  0.52140239588E+01 -0.22353670609E+02  0.31865582805E+03  0.34309753348E+03  0.12509000000E+03 0.  0.
         25    1    4    4    0    0  0.18055207382E+02  0.55430101444E+02  0.28718378850E+03  0.31862285407E+03  0.12509000000E+03 0.  0.
         25    1    3    3    0    0 -0.23269231341E+02 -0.33076430836E+02  0.51745449013E+02  0.14128201229E+03  0.12509000000E+03 0.  0.
<mgrwt>
<rscale>  2 0.46086303E+03</rscale>
<asrwt>0</asrwt>
<pdfrwt beam="1">  1       21 0.10739613E+00 0.46086303E+03</pdfrwt>
<pdfrwt beam="2">  1       21 0.10692451E-01 0.46086303E+03</pdfrwt>
<totfact> 0.45490483E+04</totfact>
</mgrwt>
</event>
<event>
 7    0  0.4712189E-002  0.4540161E+03  0.7546771E-02  0.1026531E+00
         21   -1    0    0  502  501  0.00000000000E+00  0.00000000000E+00  0.45009116361E+02  0.45009116361E+02  0.00000000000E+00 0.  1.
         21   -1    0    0  501  502 -0.00000000000E+00 -0.00000000000E+00 -0.11449380867E+04  0.11449380867E+04  0.00000000000E+00 0.  1.
      99926    2    1    2    0    0  0.00000000000E+00  0.00000000000E+00 -0.10999289704E+04  0.11899472031E+04  0.45401608593E+03 0.  0.
      99925    2    3    3    0    0  0.41679350016E+02  0.10068588860E+03 -0.62302282175E+03  0.68500978214E+03  0.26307061567E+03 0.  0.
         25    1    4    4    0    0 -0.16308312641E+02  0.30942898130E+02 -0.26777961811E+03  0.29761864186E+03  0.12509000000E+03 0.  0.
         25    1    3    3    0    0 -0.41679350016E+02 -0.10068588860E+03 -0.47690614861E+03  0.50493742094E+03  0.12509000000E+03 0.  0.
         25    1    4    4    0    0  0.57987662658E+02  0.69742990472E+02 -0.35524320364E+03  0.38739114028E+03  0.12509000000E+03 0.  0.
<mgrwt>
<rscale>  2 0.45401609E+03</rscale>
<asrwt>0</asrwt>
<pdfrwt beam="1">  1       21 0.66189878E-02 0.45401609E+03</pdfrwt>
<pdfrwt beam="2">  1       21 0.16837324E+00 0.45401609E+03</pdfrwt>
<totfact> 0.32726334E+04</totfact>
</mgrwt>
</event>
<event>
 7    0  0.4712189E-002  0.4392325E+03  0.7546771E-02  0.1030983E+00
         21   -1    0    0  502  501  0.00000000000E+00  0.00000000000E+00  0.85134290443E+02  0.85134290443E+02  0.00000000000E+00 0.  1.
         21   -1    0    0  501  502 -0.00000000000E+00 -0.00000000000E+00 -0.56653190120E+03  0.56653190120E+03  0.00000000000E+00 0.  1.
      99926    2    1    2    0    0 -0.14210854715E-13  0.15543122345E-14 -0.48139761076E+03  0.65166619164E+03  0.43923247340E+03 0.  0.
      99925    2    3    3    0    0 -0.98274053407E+02  0.19100753938E+01 -0.29719379696E+03  0.40827352315E+03  0.26211005091E+03 0.  0.
         25    1    4    4    0    0 -0.82059914441E+02 -0.13191507835E+02 -0.18901683877E+03  0.24141814115E+03  0.12509000000E+03 0.  0.
         25    1    4    4    0    0 -0.16214138966E+02  0.15101583229E+02 -0.10817695820E+03  0.16685538200E+03  0.12509000000E+03 0.  0.
         25    1    3    3    0    0  0.98274053407E+02 -0.19100753938E+01 -0.18420381379E+03  0.24339266849E+03  0.12509000000E+03 0.  0.
<mgrwt>
<rscale>  2 0.43923247E+03</rscale>
<asrwt>0</asrwt>
<pdfrwt beam="1">  1       21 0.12519749E-01 0.43923247E+03</pdfrwt>
<pdfrwt beam="2">  1       21 0.83313514E-01 0.43923247E+03</pdfrwt>
<totfact> 0.63091169E+04</totfact>
</mgrwt>
</event>
<event>
 7    0  0.4712189E-002  0.4565308E+03  0.7546771E-02  0.1025792E+00
         21   -1    0    0  502  501  0.00000000000E+00  0.00000000000E+00  0.14308359890E+03  0.14308359890E+03  0.00000000000E+00 0.  1.
         21   -1    0    0  501  502 -0.00000000000E+00 -0.00000000000E+00 -0.36415831914E+03  0.36415831914E+03  0.00000000000E+00 0.  1.
      99926    2    1    2    0    0  0.00000000000E+00  0.00000000000E+00 -0.22107472025E+03  0.50724191804E+03  0.45653075634E+03 0.  0.
      99925    2    3    3    0    0 -0.64607703177E+02 -0.95784550711E+02 -0.14236576742E+03  0.31964809399E+03  0.26183593488E+03 0.  0.
         25    1    4    4    0    0 -0.16747173941E+02 -0.80274708494E+02 -0.56990258850E+02  0.16006215781E+03  0.12509000000E+03 0.  0.
         25    1    3    3    0    0  0.64607703177E+02  0.95784550711E+02 -0.78708952828E+02  0.18759382405E+03  0.12509000000E+03 0.  0.
         25    1    4    4    0    0 -0.47860529235E+02 -0.15509842217E+02 -0.85375508570E+02  0.15958593618E+03  0.12509000000E+03 0.  0.
<mgrwt>
<rscale>  2 0.45653076E+03</rscale>
<asrwt>0</asrwt>
<pdfrwt beam="1">  1       21 0.21041706E-01 0.45653076E+03</pdfrwt>
<pdfrwt beam="2">  1       21 0.53552693E-01 0.45653076E+03</pdfrwt>
<totfact> 0.63983907E+04</totfact>
</mgrwt>
</event>
<event>
 7    0  0.4712189E-002  0.4588403E+03  0.7546771E-02  0.1025118E+00
         21   -1    0    0  502  501  0.00000000000E+00  0.00000000000E+00  0.35723352409E+03  0.35723352409E+03  0.00000000000E+00 0.  1.
         21   -1    0    0  501  502 -0.00000000000E+00 -0.00000000000E+00 -0.14733670596E+03  0.14733670596E+03  0.00000000000E+00 0.  1.
      99926    2    1    2    0    0  0.14210854715E-13  0.00000000000E+00  0.20989681813E+03  0.50457023005E+03  0.45884032385E+03 0.  0.
      99925    2    3    3    0    0  0.76684586913E+02 -0.69984134847E+02  0.69035305027E+02  0.28947076707E+03  0.26124537631E+03 0.  0.
         25    1    4    4    0    0  0.45387649989E+01 -0.41854278901E+02  0.49947689350E+02  0.14111931413E+03  0.12509000000E+03 0.  0.
         25    1    3    3    0    0 -0.76684586913E+02  0.69984134847E+02  0.14086151310E+03  0.21509946298E+03  0.12509000000E+03 0.  0.
         25    1    4    4    0    0  0.72145821914E+02 -0.28129855946E+02  0.19087615677E+02  0.14835145293E+03  0.12509000000E+03 0.  0.
<mgrwt>
<rscale>  2 0.45884032E+03</rscale>
<asrwt>0</asrwt>
<pdfrwt beam="1">  1       21 0.52534342E-01 0.45884032E+03</pdfrwt>
<pdfrwt beam="2">  1       21 0.21667163E-01 0.45884032E+03</pdfrwt>
<totfact> 0.63008051E+04</totfact>
</mgrwt>
</event>
<event>
 7    0  0.4712189E-002  0.4552832E+03  0.7546771E-02  0.1026158E+00
         21   -1    0    0  502  501  0.00000000000E+00  0.00000000000E+00  0.26888418288E+03  0.26888418288E+03  0.00000000000E+00 0.  1.
         21   -1    0    0  501  502 -0.00000000000E+00 -0.00000000000E+00 -0.19272499914E+03  0.19272499914E+03  0.00000000000E+00 0.  1.
      99926    2    1    2    0    0 -0.35527136788E-14  0.00000000000E+00  0.76159183745E+02  0.46160918202E+03  0.45528322576E+03 0.  0.
      99925    2    3    3    0    0  0.28135947266E+02 -0.33588759912E+02  0.15398402293E+03  0.30790801086E+03  0.26301412037E+03 0.  0.
         25    1    3    3    0    0 -0.28135947266E+02  0.33588759912E+02 -0.77824839190E+02  0.15370117116E+03  0.12509000000E+03 0.  0.
         25    1    4    4    0    0  0.91126929822E+00 -0.29545713790E+02  0.11892892696E+03  0.17511532595E+03  0.12509000000E+03 0.  0.
         25    1    4    4    0    0  0.27224677968E+02 -0.40430461221E+01  0.35055095977E+02  0.13279268491E+03  0.12509000000E+03 0.  0.
<mgrwt>
<rscale>  2 0.45528323E+03</rscale>
<asrwt>0</asrwt>
<pdfrwt beam="1">  1       21 0.39541792E-01 0.45528323E+03</pdfrwt>
<pdfrwt beam="2">  1       21 0.28341912E-01 0.45528323E+03</pdfrwt>
<totfact> 0.67909503E+04</totfact>
</mgrwt>
</event>
<event>
 7    0  0.4712189E-002  0.4577164E+03  0.7546771E-02  0.1025446E+00
         21   -1    0    0  502  501  0.00000000000E+00  0.00000000000E+00  0.52992785179E+03  0.52992785179E+03  0.00000000000E+00 0. -1.
         21   -1    0    0  501  502 -0.00000000000E+00 -0.00000000000E+00 -0.98836252674E+02  0.98836252674E+02  0.00000000000E+00 0. -1.
      99926    2    1    2    0    0 -0.71054273576E-14  0.00000000000E+00  0.43109159912E+03  0.62876410446E+03  0.45771643212E+03 0.  0.
      99925    2    3    3    0    0  0.44154811943E+02  0.91801568697E+02  0.19546773043E+03  0.34320624513E+03  0.26306979611E+03 0.  0.
         25    1    4    4    0    0  0.37245632485E+02  0.76314704179E+02  0.75233123714E+02  0.16887481226E+03  0.12509000000E+03 0.  0.
         25    1    3    3    0    0 -0.44154811943E+02 -0.91801568697E+02  0.23562386868E+03  0.28555785933E+03  0.12509000000E+03 0.  0.
         25    1    4    4    0    0  0.69091794584E+01  0.15486864518E+02  0.12023460672E+03  0.17433143287E+03  0.12509000000E+03 0.  0.
<mgrwt>
<rscale>  2 0.45771643E+03</rscale>
<asrwt>0</asrwt>
<pdfrwt beam="1">  1       21 0.77930565E-01 0.45771643E+03</pdfrwt>
<pdfrwt beam="2">  1       21 0.14534743E-01 0.45771643E+03</pdfrwt>
<totfact> 0.55736865E+04</totfact>
</mgrwt>
</event>
<event>
 7    0  0.4712189E-002  0.4500593E+03  0.7546771E-02  0.1027704E+00
         21   -1    0    0  502  501  0.00000000000E+00  0.00000000000E+00  0.28387324542E+02  0.28387324542E+02  0.00000000000E+00 0. -1.
         21   -1    0    0  501  502 -0.00000000000E+00 -0.00000000000E+00 -0.17838365611E+04  0.17838365611E+04  0.00000000000E+00 0. -1.
      99926    2    1    2    0    0  0.00000000000E+00  0.14210854715E-13 -0.17554492365E+04  0.18122238856E+04  0.45005931782E+03 0.  0.
      99925    2    3    3    0    0 -0.43649142575E+02 -0.91430008065E+02 -0.12699428830E+04  0.13007274326E+04  0.26243519928E+03 0.  0.
         25    1    4    4    0    0 -0.16672471384E+02 -0.86318594297E+02 -0.72331847760E+03  0.73930102066E+03  0.12509000000E+03 0.  0.
         25    1    4    4    0    0 -0.26976671191E+02 -0.51114137683E+01 -0.54662440545E+03  0.56142641198E+03  0.12509000000E+03 0.  0.
         25    1    3    3    0    0  0.43649142575E+02  0.91430008065E+02 -0.48550635347E+03  0.51149645295E+03  0.12509000000E+03 0.  0.
<mgrwt>
<rscale>  2 0.45005932E+03</rscale>
<asrwt>0</asrwt>
<pdfrwt beam="1">  1       21 0.41746070E-02 0.45005932E+03</pdfrwt>
<pdfrwt beam="2">  1       21 0.26232888E+00 0.45005932E+03</pdfrwt>
<totfact> 0.17694653E+04</totfact>
</mgrwt>
</event>
<event>
 6    0  0.4712189E-002  0.4525744E+03  0.7546771E-02  0.1026957E+00
         21   -1    0    0  502  501  0.00000000000E+00  0.00000000000E+00  0.15101208817E+03  0.15101208817E+03  0.00000000000E+00 0.  1.
         21   -1    0    0  501  502 -0.00000000000E+00 -0.00000000000E+00 -0.33908478909E+03  0.33908478909E+03  0.00000000000E+00 0.  1.
      99926    2    1    2    0    0 -0.26645352591E-14  0.00000000000E+00 -0.18807270092E+03  0.49009687727E+03  0.45257442291E+03 0.  0.
         25    1    3    3    0    0 -0.36618054959E+02  0.40690134945E+02 -0.33563425097E+02  0.14060789677E+03  0.12509000000E+03 0.  0.
         25    1    3    3    0    0  0.31171845483E+02  0.68164336642E+02 -0.90687856540E+02  0.17172610799E+03  0.12509000000E+03 0.  0.
         25    1    3    3    0    0  0.54462094764E+01 -0.10885447159E+03 -0.63821419281E+02  0.17776287250E+03  0.12509000000E+03 0.  0.
<mgrwt>
<rscale>  2 0.45257442E+03</rscale>
<asrwt>0</asrwt>
<pdfrwt beam="1">  1       21 0.22207660E-01 0.45257442E+03</pdfrwt>
<pdfrwt beam="2">  1       21 0.49865410E-01 0.45257442E+03</pdfrwt>
<totfact> 0.67257950E+04</totfact>
</mgrwt>
</event>
<event>
 7    0  0.4712189E-002  0.4518477E+03  0.7546771E-02  0.1027172E+00
         21   -1    0    0  502  501  0.00000000000E+00  0.00000000000E+00  0.62422384087E+03  0.62422384087E+03  0.00000000000E+00 0. -1.
         21   -1    0    0  501  502 -0.00000000000E+00 -0.00000000000E+00 -0.81768092072E+02  0.81768092072E+02  0.00000000000E+00 0. -1.
      99926    2    1    2    0    0  0.71054273576E-14  0.00000000000E+00  0.54245574880E+03  0.70599193294E+03  0.45184772875E+03 0.  0.
      99925    2    3    3    0    0 -0.38178136140E+02  0.93409268470E+02  0.40860148478E+03  0.49683330029E+03  0.26401760056E+03 0.  0.
         25    1    4    4    0    0 -0.44689202966E+02  0.82188113086E+02  0.20912434165E+03  0.26102204728E+03  0.12509000000E+03 0.  0.
         25    1    3    3    0    0  0.38178136140E+02 -0.93409268470E+02  0.13385426402E+03  0.20915863265E+03  0.12509000000E+03 0.  0.
         25    1    4    4    0    0  0.65110668263E+01  0.11221155384E+02  0.19947714312E+03  0.23581125301E+03  0.12509000000E+03 0.  0.
<mgrwt>
<rscale>  2 0.45184773E+03</rscale>
<asrwt>0</asrwt>
<pdfrwt beam="1">  1       21 0.91797621E-01 0.45184773E+03</pdfrwt>
<pdfrwt beam="2">  1       21 0.12024720E-01 0.45184773E+03</pdfrwt>
<totfact> 0.53903445E+04</totfact>
</mgrwt>
</event>
<event>
 7    0  0.4712189E-002  0.4664654E+03  0.7546771E-02  0.1022923E+00
         21   -1    0    0  502  501  0.00000000000E+00  0.00000000000E+00  0.32473237043E+03  0.32473237043E+03  0.00000000000E+00 0.  1.
         21   -1    0    0  501  502 -0.00000000000E+00 -0.00000000000E+00 -0.16751484367E+03  0.16751484367E+03  0.00000000000E+00 0.  1.
      99926    2    1    2    0    0  0.14210854715E-13  0.00000000000E+00  0.15721752676E+03  0.49224721410E+03  0.46646539965E+03 0.  0.
      99925    2    3    3    0    0 -0.92945231049E+02 -0.64433485094E+02  0.15088768974E+03  0.32349276256E+03  0.26284973376E+03 0.  0.
         25    1    4    4    0    0 -0.18409675372E+02 -0.45284240910E+02  0.10220180225E+03  0.16876698464E+03  0.12509000000E+03 0.  0.
         25    1    4    4    0    0 -0.74535555677E+02 -0.19149244184E+02  0.48685887495E+02  0.15472577792E+03  0.12509000000E+03 0.  0.
         25    1    3    3    0    0  0.92945231049E+02  0.64433485094E+02  0.63298370162E+01  0.16875445153E+03  0.12509000000E+03 0.  0.
<mgrwt>
<rscale>  2 0.46646540E+03</rscale>
<asrwt>0</asrwt>
<pdfrwt beam="1">  1       21 0.47754760E-01 0.46646540E+03</pdfrwt>
<pdfrwt beam="2">  1       21 0.24634536E-01 0.46646540E+03</pdfrwt>
<totfact> 0.60154518E+04</totfact>
</mgrwt>
</event>
<event>
 7    0  0.4712189E-002  0.4554052E+03  0.7546771E-02  0.1026122E+00
         21   -1    0    0  502  501  0.00000000000E+00  0.00000000000E+00  0.14147962220E+03  0.14147962220E+03  0.00000000000E+00 0.  1.
         21   -1    0    0  501  502 -0.00000000000E+00 -0.00000000000E+00 -0.36647312159E+03  0.36647312159E+03  0.00000000000E+00 0.  1.
      99926    2    1    2    0    0  0.14210854715E-13 -0.35527136788E-14 -0.22499349939E+03  0.50795274379E+03  0.45540522083E+03 0.  0.
      99925    2    3    3    0    0  0.10711715805E+03 -0.29436231523E+02 -0.11514974464E+03  0.30781844930E+03  0.26296797668E+03 0.  0.
         25    1    3    3    0    0 -0.10711715805E+03  0.29436231523E+02 -0.10984375475E+03  0.20013429449E+03  0.12509000000E+03 0.  0.
         25    1    4    4    0    0  0.87141878191E+02 -0.18450523018E+02 -0.90669981775E+02  0.17833306600E+03  0.12509000000E+03 0.  0.
         25    1    4    4    0    0  0.19975279861E+02 -0.10985708504E+02 -0.24479762864E+02  0.12948538329E+03  0.12509000000E+03 0.  0.
<mgrwt>
<rscale>  2 0.45540522E+03</rscale>
<asrwt>0</asrwt>
<pdfrwt beam="1">  1       21 0.20805827E-01 0.45540522E+03</pdfrwt>
<pdfrwt beam="2">  1       21 0.53893105E-01 0.45540522E+03</pdfrwt>
<totfact> 0.64507775E+04</totfact>
</mgrwt>
</event>
<event>
 7    0  0.4712189E-002  0.4689396E+03  0.7546771E-02  0.1022220E+00
         21   -1    0    0  502  501  0.00000000000E+00  0.00000000000E+00  0.10532386683E+03  0.10532386683E+03  0.00000000000E+00 0. -1.
         21   -1    0    0  501  502 -0.00000000000E+00 -0.00000000000E+00 -0.52197181081E+03  0.52197181081E+03  0.00000000000E+00 0. -1.
      99926    2    1    2    0    0 -0.14210854715E-13  0.00000000000E+00 -0.41664794398E+03  0.62729567764E+03  0.46893961014E+03 0.  0.
      99925    2    3    3    0    0  0.98693831865E+02  0.16773974151E+02 -0.15726685978E+03  0.32242210778E+03  0.26306142200E+03 0.  0.
         25    1    3    3    0    0 -0.98693831865E+02 -0.16773974151E+02 -0.25938108421E+03  0.30487356986E+03  0.12509000000E+03 0.  0.
         25    1    4    4    0    0  0.41707456232E+02 -0.31660526604E+02 -0.80429831970E+02  0.15766536342E+03  0.12509000000E+03 0.  0.
         25    1    4    4    0    0  0.56986375633E+02  0.48434500755E+02 -0.76837027809E+02  0.16475674437E+03  0.12509000000E+03 0.  0.
<mgrwt>
<rscale>  2 0.46893961E+03</rscale>
<asrwt>0</asrwt>
<pdfrwt beam="1">  1       21 0.15488804E-01 0.46893961E+03</pdfrwt>
<pdfrwt beam="2">  1       21 0.76760558E-01 0.46893961E+03</pdfrwt>
<totfact> 0.51161190E+04</totfact>
</mgrwt>
</event>
<event>
 7    0  0.4712189E-002  0.4644901E+03  0.7546771E-02  0.1023487E+00
         21   -1    0    0  502  501  0.00000000000E+00  0.00000000000E+00  0.37063181951E+02  0.37063181951E+02  0.00000000000E+00 0.  1.
         21   -1    0    0  501  502 -0.00000000000E+00 -0.00000000000E+00 -0.14552921146E+04  0.14552921146E+04  0.00000000000E+00 0.  1.
      99926    2    1    2    0    0  0.00000000000E+00  0.00000000000E+00 -0.14182289326E+04  0.14923552965E+04  0.46449007065E+03 0.  0.
      99925    2    3    3    0    0 -0.26662524176E+02 -0.10369113648E+03 -0.69787588838E+03  0.75342447538E+03  0.26297327344E+03 0.  0.
         25    1    3    3    0    0  0.26662524176E+02  0.10369113648E+03 -0.72035304422E+03  0.73893082112E+03  0.12509000000E+03 0.  0.
         25    1    4    4    0    0  0.23262254758E+02 -0.45296764753E+02 -0.28917541324E+03  0.31915961072E+03  0.12509000000E+03 0.  0.
         25    1    4    4    0    0 -0.49924778933E+02 -0.58394371729E+02 -0.40870047514E+03  0.43426486466E+03  0.12509000000E+03 0.  0.
<mgrwt>
<rscale>  2 0.46449007E+03</rscale>
<asrwt>0</asrwt>
<pdfrwt beam="1">  1       21 0.54504681E-02 0.46449007E+03</pdfrwt>
<pdfrwt beam="2">  1       21 0.21401354E+00 0.46449007E+03</pdfrwt>
<totfact> 0.22279043E+04</totfact>
</mgrwt>
</event>
<event>
 7    0  0.4712189E-002  0.4402624E+03  0.7546771E-02  0.1030666E+00
         21   -1    0    0  502  501  0.00000000000E+00  0.00000000000E+00  0.49113163335E+02  0.49113163335E+02  0.00000000000E+00 0.  1.
         21   -1    0    0  501  502 -0.00000000000E+00 -0.00000000000E+00 -0.98665512242E+03  0.98665512242E+03  0.00000000000E+00 0.  1.
      99926    2    1    2    0    0  0.00000000000E+00  0.00000000000E+00 -0.93754195908E+03  0.10357682858E+04  0.44026244074E+03 0.  0.
      99925    2    3    3    0    0  0.12672589032E+02  0.52784894593E+02 -0.40099768230E+03  0.48216724831E+03  0.26218175856E+03 0.  0.
         25    1    3    3    0    0 -0.12672589032E+02 -0.52784894593E+02 -0.53654427678E+03  0.55360103744E+03  0.12509000000E+03 0.  0.
         25    1    4    4    0    0  0.27622174569E+02 -0.49998478309E+01 -0.21292054574E+03  0.24853701919E+03  0.12509000000E+03 0.  0.
         25    1    4    4    0    0 -0.14949585537E+02  0.57784742424E+02 -0.18807713656E+03  0.23363022912E+03  0.12509000000E+03 0.  0.
<mgrwt>
<rscale>  2 0.44026244E+03</rscale>
<asrwt>0</asrwt>
<pdfrwt beam="1">  1       21 0.72225251E-02 0.44026244E+03</pdfrwt>
<pdfrwt beam="2">  1       21 0.14509632E+00 0.44026244E+03</pdfrwt>
<totfact> 0.42485334E+04</totfact>
</mgrwt>
</event>
<event>
 7    0  0.4712189E-002  0.4576535E+03  0.7546771E-02  0.1025464E+00
         21   -1    0    0  502  501  0.00000000000E+00  0.00000000000E+00  0.30338735901E+03  0.30338735901E+03  0.00000000000E+00 0. -1.
         21   -1    0    0  501  502 -0.00000000000E+00 -0.00000000000E+00 -0.17259015712E+03  0.17259015712E+03  0.00000000000E+00 0. -1.
      99926    2    1    2    0    0  0.00000000000E+00 -0.44408920985E-15  0.13079720189E+03  0.47597751612E+03  0.45765345823E+03 0.  0.
      99925    2    3    3    0    0  0.78575328016E+02  0.19767573343E+01  0.17033736113E+03  0.32304314446E+03  0.26299062121E+03 0.  0.
         25    1    4    4    0    0  0.81097789790E+02 -0.45255745384E+01  0.89387227287E+02  0.17388190485E+03  0.12509000000E+03 0.  0.
         25    1    4    4    0    0 -0.25224617733E+01  0.65023318727E+01  0.80950133839E+02  0.14916123961E+03  0.12509000000E+03 0.  0.
         25    1    3    3    0    0 -0.78575328016E+02 -0.19767573343E+01 -0.39540159240E+02  0.15293437166E+03  0.12509000000E+03 0.  0.
<mgrwt>
<rscale>  2 0.45765346E+03</rscale>
<asrwt>0</asrwt>
<pdfrwt beam="1">  1       21 0.44615788E-01 0.45765346E+03</pdfrwt>
<pdfrwt beam="2">  1       21 0.25380905E-01 0.45765346E+03</pdfrwt>
<totfact> 0.65601827E+04</totfact>
</mgrwt>
</event>
<event>
 7    0  0.4712189E-002  0.4532534E+03  0.7546771E-02  0.1026756E+00
         21   -1    0    0  502  501  0.00000000000E+00  0.00000000000E+00  0.28846402529E+03  0.28846402529E+03  0.00000000000E+00 0. -1.
         21   -1    0    0  501  502 -0.00000000000E+00 -0.00000000000E+00 -0.17804528681E+03  0.17804528681E+03  0.00000000000E+00 0. -1.
      99926    2    1    2    0    0  0.00000000000E+00  0.00000000000E+00  0.11041873848E+03  0.46650931210E+03  0.45325339543E+03 0.  0.
      99925    2    3    3    0    0  0.37045566635E+02  0.76466722238E+02  0.14394713798E+03  0.31161839794E+03  0.26299375237E+03 0.  0.
         25    1    4    4    0    0 -0.20460792827E+02  0.42047617617E+02  0.57093271003E+02  0.14523703345E+03  0.12509000000E+03 0.  0.
         25    1    3    3    0    0 -0.37045566635E+02 -0.76466722238E+02 -0.33528399500E+02  0.15489091416E+03  0.12509000000E+03 0.  0.
         25    1    4    4    0    0  0.57506359461E+02  0.34419104621E+02  0.86853866979E+02  0.16638136449E+03  0.12509000000E+03 0.  0.
<mgrwt>
<rscale>  2 0.45325340E+03</rscale>
<asrwt>0</asrwt>
<pdfrwt beam="1">  1       21 0.42421180E-01 0.45325340E+03</pdfrwt>
<pdfrwt beam="2">  1       21 0.26183131E-01 0.45325340E+03</pdfrwt>
<totfact> 0.68642442E+04</totfact>
</mgrwt>
</event>
<event>
 7    0  0.4712189E-002  0.4565255E+03  0.7546771E-02  0.1025794E+00
         21   -1    0    0  502  501  0.00000000000E+00  0.00000000000E+00  0.18124463056E+03  0.18124463056E+03  0.00000000000E+00 0. -1.
         21   -1    0    0  501  502 -0.00000000000E+00 -0.00000000000E+00 -0.28747819163E+03  0.28747819163E+03  0.00000000000E+00 0. -1.
      99926    2    1    2    0    0  0.00000000000E+00  0.00000000000E+00 -0.10623356107E+03  0.46872282220E+03  0.45652548072E+03 0.  0.
      99925    2    3    3    0    0 -0.41602256360E+02 -0.74516855487E+02 -0.14529882790E+03  0.31233512237E+03  0.26297902918E+03 0.  0.
         25    1    4    4    0    0  0.74034394251E+01 -0.12496319786E+02 -0.45701284484E+02  0.13396672881E+03  0.12509000000E+03 0.  0.
         25    1    3    3    0    0  0.41602256360E+02  0.74516855487E+02  0.39065266825E+02  0.15638769983E+03  0.12509000000E+03 0.  0.
         25    1    4    4    0    0 -0.49005695785E+02 -0.62020535701E+02 -0.99597543411E+02  0.17836839356E+03  0.12509000000E+03 0.  0.
<mgrwt>
<rscale>  2 0.45652548E+03</rscale>
<asrwt>0</asrwt>
<pdfrwt beam="1">  1       21 0.26653623E-01 0.45652548E+03</pdfrwt>
<pdfrwt beam="2">  1       21 0.42276204E-01 0.45652548E+03</pdfrwt>
<totfact> 0.66720004E+04</totfact>
</mgrwt>
</event>
<event>
 7    0  0.4712189E-002  0.4485585E+03  0.7546771E-02  0.1028153E+00
         21   -1    0    0  502  501  0.00000000000E+00  0.00000000000E+00  0.36056219189E+03  0.36056219189E+03  0.00000000000E+00 0.  1.
         21   -1    0    0  501  502 -0.00000000000E+00 -0.00000000000E+00 -0.13950761636E+03  0.13950761636E+03  0.00000000000E+00 0.  1.
      99926    2    1    2    0    0  0.00000000000E+00  0.00000000000E+00  0.22105457553E+03  0.50006980825E+03  0.44855845523E+03 0.  0.
      99925    2    3    3    0    0 -0.46301639102E+02 -0.22618691345E+02  0.35355135749E+02  0.27031507594E+03  0.26299202968E+03 0.  0.
         25    1    3    3    0    0  0.46301639102E+02  0.22618691345E+02  0.18569943978E+03  0.22975473230E+03  0.12509000000E+03 0.  0.
         25    1    4    4    0    0 -0.39460113319E+02 -0.40604392094E+02  0.41976699692E+02  0.14358053008E+03  0.12509000000E+03 0.  0.
         25    1    4    4    0    0 -0.68415257831E+01  0.17985700749E+02 -0.66215639433E+01  0.12673454586E+03  0.12509000000E+03 0.  0.
<mgrwt>
<rscale>  2 0.44855846E+03</rscale>
<asrwt>0</asrwt>
<pdfrwt beam="1">  1       21 0.53023852E-01 0.44855846E+03</pdfrwt>
<pdfrwt beam="2">  1       21 0.20515826E-01 0.44855846E+03</pdfrwt>
<totfact> 0.68712361E+04</totfact>
</mgrwt>
</event>
<event>
 7    0  0.4712189E-002  0.4554931E+03  0.7546771E-02  0.1026096E+00
         21   -1    0    0  502  501  0.00000000000E+00  0.00000000000E+00  0.51302293933E+03  0.51302293933E+03  0.00000000000E+00 0. -1.
         21   -1    0    0  501  502 -0.00000000000E+00 -0.00000000000E+00 -0.10110365488E+03  0.10110365488E+03  0.00000000000E+00 0. -1.
      99926    2    1    2    0    0  0.00000000000E+00  0.35527136788E-14  0.41191928445E+03  0.61412659421E+03  0.45549311391E+03 0.  0.
      99925    2    3    3    0    0 -0.62803929512E+02  0.20769066141E+02  0.38356851384E+03  0.46981109967E+03  0.26310069725E+03 0.  0.
         25    1    4    4    0    0 -0.34963848417E+02 -0.26231446073E+02  0.21940311762E+03  0.25631191072E+03  0.12509000000E+03 0.  0.
         25    1    3    3    0    0  0.62803929512E+02 -0.20769066141E+02  0.28350770609E+02  0.14431549454E+03  0.12509000000E+03 0.  0.
         25    1    4    4    0    0 -0.27840081095E+02  0.47000512214E+02  0.16416539623E+03  0.21349918895E+03  0.12509000000E+03 0.  0.
<mgrwt>
<rscale>  2 0.45549311E+03</rscale>
<asrwt>0</asrwt>
<pdfrwt beam="1">  1       21 0.75444549E-01 0.45549311E+03</pdfrwt>
<pdfrwt beam="2">  1       21 0.14868185E-01 0.45549311E+03</pdfrwt>
<totfact> 0.57592432E+04</totfact>
</mgrwt>
</event>
<event>
 7    0  0.4712189E-002  0.4422460E+03  0.7546771E-02  0.1030060E+00
         21   -1    0    0  502  501  0.00000000000E+00  0.00000000000E+00  0.16283652847E+03  0.16283652847E+03  0.00000000000E+00 0.  1.
         21   -1    0    0  501  502 -0.00000000000E+00 -0.00000000000E+00 -0.30027274923E+03  0.30027274923E+03  0.00000000000E+00 0.  1.
      99926    2    1    2    0    0  0.00000000000E+00  0.00000000000E+00 -0.13743622076E+03  0.46310927771E+03  0.44224595908E+03 0.  0.
      99925    2    3    3    0    0 -0.35018949544E+02 -0.94827064377E+02 -0.94759125539E+02  0.29671414099E+03  0.26237661982E+03 0.  0.
         25    1    3    3    0    0  0.35018949544E+02  0.94827064377E+02 -0.42677095218E+02  0.16639513671E+03  0.12509000000E+03 0.  0.
         25    1    4    4    0    0 -0.35865752005E+02 -0.48842896245E+02 -0.11280015390E+02  0.13945152393E+03  0.12509000000E+03 0.  0.
         25    1    4    4    0    0  0.84680246096E+00 -0.45984168132E+02 -0.83479110149E+02  0.15726261706E+03  0.12509000000E+03 0.  0.
<mgrwt>
<rscale>  2 0.44224596E+03</rscale>
<asrwt>0</asrwt>
<pdfrwt beam="1">  1       21 0.23946549E-01 0.44224596E+03</pdfrwt>
<pdfrwt beam="2">  1       21 0.44157757E-01 0.44224596E+03</pdfrwt>
<totfact> 0.75286283E+04</totfact>
</mgrwt>
</event>
<event>
 7    0  0.4712189E-002  0.4613372E+03  0.7546771E-02  0.1024394E+00
         21   -1    0    0  502  501  0.00000000000E+00  0.00000000000E+00  0.63988734733E+03  0.63988734733E+03  0.00000000000E+00 0.  1.
         21   -1    0    0  501  502 -0.00000000000E+00 -0.00000000000E+00 -0.83152132143E+02  0.83152132143E+02  0.00000000000E+00 0.  1.
      99926    2    1    2    0    0  0.00000000000E+00  0.00000000000E+00  0.55673521519E+03  0.72303947948E+03  0.46133717501E+03 0.  0.
      99925    2    3    3    0    0 -0.17099135667E+02  0.11749042431E+03  0.36124036246E+03  0.46234401387E+03  0.26300381640E+03 0.  0.
         25    1    3    3    0    0  0.17099135667E+02 -0.11749042431E+03  0.19549485273E+03  0.26069546561E+03  0.12509000000E+03 0.  0.
         25    1    4    4    0    0 -0.29889350014E+02  0.76886911579E+02  0.14244213723E+03  0.20674196714E+03  0.12509000000E+03 0.  0.
         25    1    4    4    0    0  0.12790214347E+02  0.40603512734E+02  0.21879822523E+03  0.25560204673E+03  0.12509000000E+03 0.  0.
<mgrwt>
<rscale>  2 0.46133718E+03</rscale>
<asrwt>0</asrwt>
<pdfrwt beam="1">  1       21 0.94101078E-01 0.46133718E+03</pdfrwt>
<pdfrwt beam="2">  1       21 0.12228255E-01 0.46133718E+03</pdfrwt>
<totfact> 0.49172791E+04</totfact>
</mgrwt>
</event>
<event>
 7    0  0.4712189E-002  0.4554274E+03  0.7546771E-02  0.1026116E+00
         21   -1    0    0  502  501  0.00000000000E+00  0.00000000000E+00  0.13912940925E+03  0.13912940925E+03  0.00000000000E+00 0. -1.
         21   -1    0    0  501  502 -0.00000000000E+00 -0.00000000000E+00 -0.37270005160E+03  0.37270005160E+03  0.00000000000E+00 0. -1.
      99926    2    1    2    0    0  0.00000000000E+00 -0.35527136788E-14 -0.23357064235E+03  0.51182946084E+03  0.45542743881E+03 0.  0.
      99925    2    3    3    0    0 -0.10689009133E+03 -0.31664846102E+02 -0.17186526922E+03  0.33327074423E+03  0.26287556770E+03 0.  0.
         25    1    4    4    0    0 -0.32000461593E+02 -0.30173189670E+02 -0.45069652303E+02  0.14004725123E+03  0.12509000000E+03 0.  0.
         25    1    3    3    0    0  0.10689009133E+03  0.31664846102E+02 -0.61705373132E+02  0.17855871661E+03  0.12509000000E+03 0.  0.
         25    1    4    4    0    0 -0.74889629742E+02 -0.14916564326E+01 -0.12679561692E+03  0.19322349301E+03  0.12509000000E+03 0.  0.
<mgrwt>
<rscale>  2 0.45542744E+03</rscale>
<asrwt>0</asrwt>
<pdfrwt beam="1">  1       21 0.20460207E-01 0.45542744E+03</pdfrwt>
<pdfrwt beam="2">  1       21 0.54808831E-01 0.45542744E+03</pdfrwt>
<totfact> 0.64229192E+04</totfact>
</mgrwt>
</event>
<event>
 7    0  0.4712189E-002  0.4555154E+03  0.7546771E-02  0.1026090E+00
         21   -1    0    0  502  501  0.00000000000E+00  0.00000000000E+00  0.77535186067E+03  0.77535186067E+03  0.00000000000E+00 0.  1.
         21   -1    0    0  501  502 -0.00000000000E+00 -0.00000000000E+00 -0.66903248977E+02  0.66903248977E+02  0.00000000000E+00 0.  1.
      99926    2    1    2    0    0  0.14210854715E-13  0.71054273576E-14  0.70844861169E+03  0.84225510964E+03  0.45551535025E+03 0.  0.
      99925    2    3    3    0    0 -0.10060729265E+03 -0.49296644609E+02  0.42118447358E+03  0.50950869021E+03  0.26391430069E+03 0.  0.
         25    1    4    4    0    0 -0.61373384565E+02 -0.31146090480E+02  0.14629346867E+03  0.20441638477E+03  0.12509000000E+03 0.  0.
         25    1    4    4    0    0 -0.39233908086E+02 -0.18150554130E+02  0.27489100491E+03  0.30509230544E+03  0.12509000000E+03 0.  0.
         25    1    3    3    0    0  0.10060729265E+03  0.49296644609E+02  0.28726413811E+03  0.33274641943E+03  0.12509000000E+03 0.  0.
<mgrwt>
<rscale>  2 0.45551535E+03</rscale>
<asrwt>0</asrwt>
<pdfrwt beam="1">  1       21 0.11402233E+00 0.45551535E+03</pdfrwt>
<pdfrwt beam="2">  1       21 0.98387136E-02 0.45551535E+03</pdfrwt>
<totfact> 0.45603192E+04</totfact>
</mgrwt>
</event>
<event>
 7    0  0.4712189E-002  0.4452540E+03  0.7546771E-02  0.1029147E+00
         21   -1    0    0  502  501  0.00000000000E+00  0.00000000000E+00  0.55343623105E+03  0.55343623105E+03  0.00000000000E+00 0. -1.
         21   -1    0    0  501  502 -0.00000000000E+00 -0.00000000000E+00 -0.89554634303E+02  0.89554634303E+02  0.00000000000E+00 0. -1.
      99926    2    1    2    0    0  0.00000000000E+00  0.35527136788E-14  0.46388159675E+03  0.64299086536E+03  0.44525399170E+03 0.  0.
      99925    2    3    3    0    0 -0.25916808954E+02 -0.28757878558E+02  0.43353670897E+03  0.50857726158E+03  0.26305523451E+03 0.  0.
         25    1    4    4    0    0  0.84395030123E+01  0.20346415126E+02  0.19818913163E+03  0.23539677529E+03  0.12509000000E+03 0.  0.
         25    1    4    4    0    0 -0.34356311966E+02 -0.49104293684E+02  0.23534757734E+03  0.27318048629E+03  0.12509000000E+03 0.  0.
         25    1    3    3    0    0  0.25916808954E+02  0.28757878558E+02  0.30344887775E+02  0.13441360377E+03  0.12509000000E+03 0.  0.
<mgrwt>
<rscale>  2 0.44525399E+03</rscale>
<asrwt>0</asrwt>
<pdfrwt beam="1">  1       21 0.81387680E-01 0.44525399E+03</pdfrwt>
<pdfrwt beam="2">  1       21 0.13169799E-01 0.44525399E+03</pdfrwt>
<totfact> 0.60637134E+04</totfact>
</mgrwt>
</event>
<event>
 7    0  0.4712189E-002  0.4422727E+03  0.7546771E-02  0.1030052E+00
         21   -1    0    0  502  501  0.00000000000E+00  0.00000000000E+00  0.88746403923E+02  0.88746403923E+02  0.00000000000E+00 0.  1.
         21   -1    0    0  501  502 -0.00000000000E+00 -0.00000000000E+00 -0.55102282751E+03  0.55102282751E+03  0.00000000000E+00 0.  1.
      99926    2    1    2    0    0  0.88817841970E-15  0.71054273576E-14 -0.46227642359E+03  0.63976923144E+03  0.44227274129E+03 0.  0.
      99925    2    3    3    0    0  0.70808510970E+01 -0.61348440436E+02 -0.17909175513E+03  0.32408769230E+03  0.26295476028E+03 0.  0.
         25    1    4    4    0    0  0.23425869812E+02 -0.49082918397E+02 -0.12918683969E+03  0.18786870922E+03  0.12509000000E+03 0.  0.
         25    1    3    3    0    0 -0.70808510970E+01  0.61348440436E+02 -0.28318466846E+03  0.31568153913E+03  0.12509000000E+03 0.  0.
         25    1    4    4    0    0 -0.16345018715E+02 -0.12265522039E+02 -0.49904915434E+02  0.13621898308E+03  0.12509000000E+03 0.  0.
<mgrwt>
<rscale>  2 0.44227274E+03</rscale>
<asrwt>0</asrwt>
<pdfrwt beam="1">  1       21 0.13050942E-01 0.44227274E+03</pdfrwt>
<pdfrwt beam="2">  1       21 0.81032769E-01 0.44227274E+03</pdfrwt>
<totfact> 0.62321734E+04</totfact>
</mgrwt>
</event>
<event>
 7    0  0.4712189E-002  0.4515678E+03  0.7546771E-02  0.1027256E+00
         21   -1    0    0  502  501  0.00000000000E+00  0.00000000000E+00  0.11968807012E+04  0.11968807012E+04  0.00000000000E+00 0.  1.
         21   -1    0    0  501  502 -0.00000000000E+00 -0.00000000000E+00 -0.42592682299E+02  0.42592682299E+02  0.00000000000E+00 0.  1.
      99926    2    1    2    0    0  0.00000000000E+00  0.00000000000E+00  0.11542880189E+04  0.12394733835E+04  0.45156775552E+03 0.  0.
      99925    2    3    3    0    0 -0.70774708975E+01  0.24207789697E+02  0.10224563248E+04  0.10559980136E+04  0.26282838705E+03 0.  0.
         25    1    3    3    0    0  0.70774708975E+01 -0.24207789697E+02  0.13183169416E+03  0.18347536990E+03  0.12509000000E+03 0.  0.
         25    1    4    4    0    0 -0.94890046452E+01 -0.25544957638E+02  0.44479401542E+03  0.46285182329E+03  0.12509000000E+03 0.  0.
         25    1    4    4    0    0  0.24115337477E+01  0.49752747334E+02  0.57766230934E+03  0.59314619032E+03  0.12509000000E+03 0.  0.
<mgrwt>
<rscale>  2 0.45156776E+03</rscale>
<asrwt>0</asrwt>
<pdfrwt beam="1">  1       21 0.17601185E+00 0.45156776E+03</pdfrwt>
<pdfrwt beam="2">  1       21 0.62636305E-02 0.45156776E+03</pdfrwt>
<totfact> 0.31764739E+04</totfact>
</mgrwt>
</event>
<event>
 7    0  0.4712189E-002  0.4579750E+03  0.7546771E-02  0.1025370E+00
         21   -1    0    0  502  501  0.00000000000E+00  0.00000000000E+00  0.10029844630E+04  0.10029844630E+04  0.00000000000E+00 0. -1.
         21   -1    0    0  501  502 -0.00000000000E+00 -0.00000000000E+00 -0.52279250740E+02  0.52279250740E+02  0.00000000000E+00 0. -1.
      99926    2    1    2    0    0  0.14210854715E-13  0.00000000000E+00  0.95070521229E+03  0.10552637138E+04  0.45797500469E+03 0.  0.
      99925    2    3    3    0    0 -0.83421144936E+02  0.80028886440E+02  0.61391294537E+03  0.67785114211E+03  0.26311472077E+03 0.  0.
         25    1    4    4    0    0 -0.45084162067E+02  0.81403878795E+02  0.35625988704E+03  0.38888017224E+03  0.12509000000E+03 0.  0.
         25    1    3    3    0    0  0.83421144936E+02 -0.80028886440E+02  0.33679226692E+03  0.37741257166E+03  0.12509000000E+03 0.  0.
         25    1    4    4    0    0 -0.38336982869E+02 -0.13749923544E+01  0.25765305833E+03  0.28897096987E+03  0.12509000000E+03 0.  0.
<mgrwt>
<rscale>  2 0.45797500E+03</rscale>
<asrwt>0</asrwt>
<pdfrwt beam="1">  1       21 0.14749770E+00 0.45797500E+03</pdfrwt>
<pdfrwt beam="2">  1       21 0.76881257E-02 0.45797500E+03</pdfrwt>
<totfact> 0.36236116E+04</totfact>
</mgrwt>
</event>
<event>
 7    0  0.4712189E-002  0.4581980E+03  0.7546771E-02  0.1025305E+00
         21   -1    0    0  502  501  0.00000000000E+00  0.00000000000E+00  0.48921372836E+03  0.48921372836E+03  0.00000000000E+00 0. -1.
         21   -1    0    0  501  502 -0.00000000000E+00 -0.00000000000E+00 -0.10728716434E+03  0.10728716434E+03  0.00000000000E+00 0. -1.
      99926    2    1    2    0    0 -0.71054273576E-14 -0.71054273576E-14  0.38192656402E+03  0.59650089270E+03  0.45819800817E+03 0.  0.
      99925    2    3    3    0    0  0.49786100318E+02  0.56858724115E+02  0.35444561359E+03  0.44779218069E+03  0.26301059636E+03 0.  0.
         25    1    4    4    0    0  0.44795023895E+02  0.63107855696E+02  0.17024797276E+03  0.22499127971E+03  0.12509000000E+03 0.  0.
         25    1    3    3    0    0 -0.49786100318E+02 -0.56858724115E+02  0.27480950435E+02  0.14870871202E+03  0.12509000000E+03 0.  0.
         25    1    4    4    0    0  0.49910764228E+01 -0.62491315806E+01  0.18419764083E+03  0.22280090098E+03  0.12509000000E+03 0.  0.
<mgrwt>
<rscale>  2 0.45819801E+03</rscale>
<asrwt>0</asrwt>
<pdfrwt beam="1">  1       21 0.71943195E-01 0.45819801E+03</pdfrwt>
<pdfrwt beam="2">  1       21 0.15777524E-01 0.45819801E+03</pdfrwt>
<totfact> 0.57429044E+04</totfact>
</mgrwt>
</event>
<event>
 7    0  0.4712189E-002  0.4588827E+03  0.7546771E-02  0.1025106E+00
         21   -1    0    0  502  501  0.00000000000E+00  0.00000000000E+00  0.54651097499E+02  0.54651097499E+02  0.00000000000E+00 0.  1.
         21   -1    0    0  501  502 -0.00000000000E+00 -0.00000000000E+00 -0.96326214083E+03  0.96326214083E+03  0.00000000000E+00 0.  1.
      99926    2    1    2    0    0 -0.14210854715E-13  0.00000000000E+00 -0.90861104333E+03  0.10179132383E+04  0.45888270037E+03 0.  0.
      99925    2    3    3    0    0 -0.83978172774E+02 -0.55359281302E+02 -0.43808391542E+03  0.52076107879E+03  0.26297832745E+03 0.  0.
         25    1    3    3    0    0  0.83978172774E+02  0.55359281302E+02 -0.47052712791E+03  0.49715215953E+03  0.12509000000E+03 0.  0.
         25    1    4    4    0    0 -0.39907842735E+02 -0.29453685186E+02 -0.14384281259E+03  0.19697314111E+03  0.12509000000E+03 0.  0.
         25    1    4    4    0    0 -0.44070330038E+02 -0.25905596116E+02 -0.29424110283E+03  0.32378793769E+03  0.12509000000E+03 0.  0.
<mgrwt>
<rscale>  2 0.45888270E+03</rscale>
<asrwt>0</asrwt>
<pdfrwt beam="1">  1       21 0.80369265E-02 0.45888270E+03</pdfrwt>
<pdfrwt beam="2">  1       21 0.14165619E+00 0.45888270E+03</pdfrwt>
<totfact> 0.37332495E+04</totfact>
</mgrwt>
</event>
<event>
 7    0  0.4712189E-002  0.4469430E+03  0.7546771E-02  0.1028638E+00
         21   -1    0    0  502  501  0.00000000000E+00  0.00000000000E+00  0.78917739473E+03  0.78917739473E+03  0.00000000000E+00 0. -1.
         21   -1    0    0  501  502 -0.00000000000E+00 -0.00000000000E+00 -0.63280457113E+02  0.63280457113E+02  0.00000000000E+00 0. -1.
      99926    2    1    2    0    0 -0.14210854715E-13  0.00000000000E+00  0.72589693761E+03  0.85245785184E+03  0.44694297749E+03 0.  0.
      99925    2    3    3    0    0 -0.81381621803E+02  0.43326853503E+02  0.36268949382E+03  0.45740426063E+03  0.26301103420E+03 0.  0.
         25    1    4    4    0    0 -0.71649935564E+02  0.33846684440E+02  0.23770009919E+03  0.28005027507E+03  0.12509000000E+03 0.  0.
         25    1    4    4    0    0 -0.97316862388E+01  0.94801690636E+01  0.12498939463E+03  0.17735398556E+03  0.12509000000E+03 0.  0.
         25    1    3    3    0    0  0.81381621803E+02 -0.43326853503E+02  0.36320744380E+03  0.39505359121E+03  0.12509000000E+03 0.  0.
<mgrwt>
<rscale>  2 0.44694298E+03</rscale>
<asrwt>0</asrwt>
<pdfrwt beam="1">  1       21 0.11605549E+00 0.44694298E+03</pdfrwt>
<pdfrwt beam="2">  1       21 0.93059500E-02 0.44694298E+03</pdfrwt>
<totfact> 0.48311310E+04</totfact>
</mgrwt>
</event>
<event>
 7    0  0.4712189E-002  0.4521918E+03  0.7546771E-02  0.1027070E+00
         21   -1    0    0  502  501  0.00000000000E+00  0.00000000000E+00  0.39384481733E+03  0.39384481733E+03  0.00000000000E+00 0. -1.
         21   -1    0    0  501  502 -0.00000000000E+00 -0.00000000000E+00 -0.12979570118E+03  0.12979570118E+03  0.00000000000E+00 0. -1.
      99926    2    1    2    0    0  0.00000000000E+00  0.00000000000E+00  0.26404911615E+03  0.52364051851E+03  0.45219183638E+03 0.  0.
      99925    2    3    3    0    0 -0.48295481460E+02  0.57479403547E+02  0.26062766321E+03  0.37771057024E+03  0.26287289834E+03 0.  0.
         25    1    4    4    0    0 -0.56344900515E+02  0.29561448710E+02  0.17044272510E+03  0.22078690564E+03  0.12509000000E+03 0.  0.
         25    1    4    4    0    0  0.80494190547E+01  0.27917954838E+02  0.90184938104E+02  0.15692366460E+03  0.12509000000E+03 0.  0.
         25    1    3    3    0    0  0.48295481460E+02 -0.57479403547E+02  0.34214529453E+01  0.14592994827E+03  0.12509000000E+03 0.  0.
<mgrwt>
<rscale>  2 0.45219184E+03</rscale>
<asrwt>0</asrwt>
<pdfrwt beam="1">  1       21 0.57918355E-01 0.45219184E+03</pdfrwt>
<pdfrwt beam="2">  1       21 0.19087603E-01 0.45219184E+03</pdfrwt>
<totfact> 0.65075686E+04</totfact>
</mgrwt>
</event>
<event>
 7    0  0.4712189E-002  0.4565293E+03  0.7546771E-02  0.1025793E+00
         21   -1    0    0  502  501  0.00000000000E+00  0.00000000000E+00  0.11608667112E+04  0.11608667112E+04  0.00000000000E+00 0.  1.
         21   -1    0    0  501  502 -0.00000000000E+00 -0.00000000000E+00 -0.44884347562E+02  0.44884347562E+02  0.00000000000E+00 0.  1.
      99926    2    1    2    0    0  0.00000000000E+00  0.14210854715E-13  0.11159823636E+04  0.12057510587E+04  0.45652927590E+03 0.  0.
      99925    2    3    3    0    0 -0.67182383183E+01  0.11411244380E+03  0.68458690405E+03  0.74226822713E+03  0.26312754942E+03 0.  0.
         25    1    3    3    0    0  0.67182383183E+01 -0.11411244380E+03  0.43139545957E+03  0.46348283160E+03  0.12509000000E+03 0.  0.
         25    1    4    4    0    0 -0.14016353149E+02  0.20013167995E+02  0.25692418878E+03  0.28680050894E+03  0.12509000000E+03 0.  0.
         25    1    4    4    0    0  0.72981148302E+01  0.94099275804E+02  0.42766271527E+03  0.45546771819E+03  0.12509000000E+03 0.  0.
<mgrwt>
<rscale>  2 0.45652928E+03</rscale>
<asrwt>0</asrwt>
<pdfrwt beam="1">  1       21 0.17071567E+00 0.45652928E+03</pdfrwt>
<pdfrwt beam="2">  1       21 0.66006401E-02 0.45652928E+03</pdfrwt>
<totfact> 0.31596143E+04</totfact>
</mgrwt>
</event>
<event>
 7    0  0.4712189E-002  0.4523047E+03  0.7546771E-02  0.1027037E+00
         21   -1    0    0  502  501  0.00000000000E+00  0.00000000000E+00  0.96370894333E+02  0.96370894333E+02  0.00000000000E+00 0. -1.
         21   -1    0    0  501  502 -0.00000000000E+00 -0.00000000000E+00 -0.53070894613E+03  0.53070894613E+03  0.00000000000E+00 0. -1.
      99926    2    1    2    0    0  0.35527136788E-14  0.71054273576E-14 -0.43433805180E+03  0.62707984047E+03  0.45230474581E+03 0.  0.
      99925    2    3    3    0    0  0.11090347674E+02  0.38860742394E+02 -0.13048008910E+03  0.29600534325E+03  0.26260418213E+03 0.  0.
         25    1    3    3    0    0 -0.11090347674E+02 -0.38860742394E+02 -0.30385796270E+03  0.33107449721E+03  0.12509000000E+03 0.  0.
         25    1    4    4    0    0  0.29492391840E+02  0.51157613565E+02 -0.60581842662E+02  0.15101182193E+03  0.12509000000E+03 0.  0.
         25    1    4    4    0    0 -0.18402044166E+02 -0.12296871172E+02 -0.69898246441E+02  0.14499352132E+03  0.12509000000E+03 0.  0.
<mgrwt>
<rscale>  2 0.45230475E+03</rscale>
<asrwt>0</asrwt>
<pdfrwt beam="1">  1       21 0.14172190E-01 0.45230475E+03</pdfrwt>
<pdfrwt beam="2">  1       21 0.78045434E-01 0.45230475E+03</pdfrwt>
<totfact> 0.58271684E+04</totfact>
</mgrwt>
</event>
<event>
 7    0  0.4712189E-002  0.4379621E+03  0.7546771E-02  0.1031374E+00
         21   -1    0    0  502  501  0.00000000000E+00  0.00000000000E+00  0.18373499895E+03  0.18373499895E+03  0.00000000000E+00 0.  1.
         21   -1    0    0  501  502 -0.00000000000E+00 -0.00000000000E+00 -0.26098833112E+03  0.26098833112E+03  0.00000000000E+00 0.  1.
      99926    2    1    2    0    0  0.00000000000E+00  0.00000000000E+00 -0.77253332165E+02  0.44472333007E+03  0.43796205655E+03 0.  0.
      99925    2    3    3    0    0 -0.20265868422E+02  0.26763418295E+02 -0.14113176808E+03  0.30031090451E+03  0.26294767051E+03 0.  0.
         25    1    3    3    0    0  0.20265868422E+02 -0.26763418295E+02  0.63878435914E+02  0.14441242556E+03  0.12509000000E+03 0.  0.
         25    1    4    4    0    0 -0.46511659757E+01 -0.22592067084E+02 -0.88992602250E+02  0.15523925469E+03  0.12509000000E+03 0.  0.
         25    1    4    4    0    0 -0.15614702446E+02  0.49355485379E+02 -0.52139165829E+02  0.14507164982E+03  0.12509000000E+03 0.  0.
<mgrwt>
<rscale>  2 0.43796206E+03</rscale>
<asrwt>0</asrwt>
<pdfrwt beam="1">  1       21 0.27019853E-01 0.43796206E+03</pdfrwt>
<pdfrwt beam="2">  1       21 0.38380637E-01 0.43796206E+03</pdfrwt>
<totfact> 0.79582903E+04</totfact>
</mgrwt>
</event>
<event>
 7    0  0.4712189E-002  0.4553536E+03  0.7546771E-02  0.1026137E+00
         21   -1    0    0  502  501  0.00000000000E+00  0.00000000000E+00  0.24323454000E+03  0.24323454000E+03  0.00000000000E+00 0. -1.
         21   -1    0    0  501  502 -0.00000000000E+00 -0.00000000000E+00 -0.21311419419E+03  0.21311419419E+03  0.00000000000E+00 0. -1.
      99926    2    1    2    0    0  0.00000000000E+00  0.00000000000E+00  0.30120345816E+02  0.45634873419E+03  0.45535363396E+03 0.  0.
      99925    2    3    3    0    0  0.59183948022E+02 -0.95553462839E+02  0.34558701180E+01  0.28607922333E+03  0.26305165846E+03 0.  0.
         25    1    4    4    0    0  0.53685689351E+02 -0.81186716294E+02 -0.12756686137E+02  0.15900841891E+03  0.12509000000E+03 0.  0.
         25    1    3    3    0    0 -0.59183948022E+02  0.95553462839E+02  0.26664475698E+02  0.17026951086E+03  0.12509000000E+03 0.  0.
         25    1    4    4    0    0  0.54982586707E+01 -0.14366746545E+02  0.16212556255E+02  0.12707080442E+03  0.12509000000E+03 0.  0.
<mgrwt>
<rscale>  2 0.45535363E+03</rscale>
<asrwt>0</asrwt>
<pdfrwt beam="1">  1       21 0.35769785E-01 0.45535363E+03</pdfrwt>
<pdfrwt beam="2">  1       21 0.31340323E-01 0.45535363E+03</pdfrwt>
<totfact> 0.68254347E+04</totfact>
</mgrwt>
</event>
<event>
 7    0  0.4712189E-002  0.4636529E+03  0.7546771E-02  0.1023727E+00
         21   -1    0    0  502  501  0.00000000000E+00  0.00000000000E+00  0.12839721952E+04  0.12839721952E+04  0.00000000000E+00 0.  1.
         21   -1    0    0  501  502 -0.00000000000E+00 -0.00000000000E+00 -0.41857211635E+02  0.41857211635E+02  0.00000000000E+00 0.  1.
      99926    2    1    2    0    0 -0.14210854715E-13 -0.35527136788E-14  0.12421149836E+04  0.13258294069E+04  0.46365286976E+03 0.  0.
      99925    2    3    3    0    0  0.11313084591E+03  0.17450529981E+02  0.88864588813E+03  0.93379494557E+03  0.26301782562E+03 0.  0.
         25    1    4    4    0    0  0.20570867209E+02  0.30893565192E+02  0.38821255835E+03  0.40955350262E+03  0.12509000000E+03 0.  0.
         25    1    3    3    0    0 -0.11313084591E+03 -0.17450529981E+02  0.35346909548E+03  0.39203446131E+03  0.12509000000E+03 0.  0.
         25    1    4    4    0    0  0.92559978701E+02 -0.13443035212E+02  0.50043332977E+03  0.52424144294E+03  0.12509000000E+03 0.  0.
<mgrwt>
<rscale>  2 0.46365287E+03</rscale>
<asrwt>0</asrwt>
<pdfrwt beam="1">  1       21 0.18881942E+00 0.46365287E+03</pdfrwt>
<pdfrwt beam="2">  1       21 0.61554731E-02 0.46365287E+03</pdfrwt>
<totfact> 0.26542368E+04</totfact>
</mgrwt>
</event>
<event>
 7    0  0.4712189E-002  0.4305444E+03  0.7546771E-02  0.1033688E+00
         21   -1    0    0  502  501  0.00000000000E+00  0.00000000000E+00  0.75389669251E+03  0.75389669251E+03  0.00000000000E+00 0. -1.
         21   -1    0    0  501  502 -0.00000000000E+00 -0.00000000000E+00 -0.61470125171E+02  0.61470125171E+02  0.00000000000E+00 0. -1.
      99926    2    1    2    0    0  0.00000000000E+00  0.00000000000E+00  0.69242656734E+03  0.81536681768E+03  0.43054441841E+03 0.  0.
      99925    2    3    3    0    0 -0.72419542145E+02 -0.47507845655E+02  0.47923549014E+03  0.55345169979E+03  0.26294589464E+03 0.  0.
         25    1    4    4    0    0 -0.60910809394E+02  0.56592241198E+00  0.28557359129E+03  0.31766370758E+03  0.12509000000E+03 0.  0.
         25    1    3    3    0    0  0.72419542145E+02  0.47507845655E+02  0.21319107720E+03  0.26191511789E+03  0.12509000000E+03 0.  0.
         25    1    4    4    0    0 -0.11508732750E+02 -0.48073768067E+02  0.19366189885E+03  0.23578799222E+03  0.12509000000E+03 0.  0.
<mgrwt>
<rscale>  2 0.43054442E+03</rscale>
<asrwt>0</asrwt>
<pdfrwt beam="1">  1       21 0.11086715E+00 0.43054442E+03</pdfrwt>
<pdfrwt beam="2">  1       21 0.90397248E-02 0.43054442E+03</pdfrwt>
<totfact> 0.57251686E+04</totfact>
</mgrwt>
</event>
<event>
 7    0  0.4712189E-002  0.4488309E+03  0.7546771E-02  0.1028071E+00
         21   -1    0    0  502  501  0.00000000000E+00  0.00000000000E+00  0.84870349763E+03  0.84870349763E+03  0.00000000000E+00 0. -1.
         21   -1    0    0  501  502 -0.00000000000E+00 -0.00000000000E+00 -0.59340266467E+02  0.59340266467E+02  0.00000000000E+00 0. -1.
      99926    2    1    2    0    0 -0.10547118734E-14  0.00000000000E+00  0.78936323116E+03  0.90804376410E+03  0.44883088887E+03 0.  0.
      99925    2    3    3    0    0  0.37499523538E+00  0.65550001923E+02  0.32771283672E+03  0.42527514648E+03  0.26299487349E+03 0.  0.
         25    1    4    4    0    0  0.33308040176E+02  0.24600466396E+02  0.12700239874E+03  0.18300744759E+03  0.12509000000E+03 0.  0.
         25    1    3    3    0    0 -0.37499523538E+00 -0.65550001923E+02  0.46165039444E+03  0.48276861762E+03  0.12509000000E+03 0.  0.
         25    1    4    4    0    0 -0.32933044941E+02  0.40949535527E+02  0.20071043799E+03  0.24226769889E+03  0.12509000000E+03 0.  0.
<mgrwt>
<rscale>  2 0.44883089E+03</rscale>
<asrwt>0</asrwt>
<pdfrwt beam="1">  1       21 0.12480933E+00 0.44883089E+03</pdfrwt>
<pdfrwt beam="2">  1       21 0.87265103E-02 0.44883089E+03</pdfrwt>
<totfact> 0.45022164E+04</totfact>
</mgrwt>
</event>
<event>
 7    0  0.4712189E-002  0.4570537E+03  0.7546771E-02  0.1025639E+00
         21   -1    0    0  502  501  0.00000000000E+00  0.00000000000E+00  0.27720310050E+03  0.27720310050E+03  0.00000000000E+00 0.  1.
         21   -1    0    0  501  502 -0.00000000000E+00 -0.00000000000E+00 -0.18839803903E+03  0.18839803903E+03  0.00000000000E+00 0.  1.
      99926    2    1    2    0    0  0.17763568394E-14 -0.71054273576E-14  0.88805061472E+02  0.46560113954E+03  0.45705369728E+03 0.  0.
      99925    2    3    3    0    0 -0.12643066759E+02 -0.62155631703E+02  0.15364902185E+03  0.31108441880E+03  0.26294928031E+03 0.  0.
         25    1    4    4    0    0 -0.39159759496E+02 -0.23154327566E+02  0.10230189676E+03  0.16787732375E+03  0.12509000000E+03 0.  0.
         25    1    3    3    0    0  0.12643066759E+02  0.62155631703E+02 -0.64843960376E+02  0.15451672074E+03  0.12509000000E+03 0.  0.
         25    1    4    4    0    0  0.26516692737E+02 -0.39001304138E+02  0.51347125087E+02  0.14320709505E+03  0.12509000000E+03 0.  0.
<mgrwt>
<rscale>  2 0.45705370E+03</rscale>
<asrwt>0</asrwt>
<pdfrwt beam="1">  1       21 0.40765162E-01 0.45705370E+03</pdfrwt>
<pdfrwt beam="2">  1       21 0.27705594E-01 0.45705370E+03</pdfrwt>
<totfact> 0.66670516E+04</totfact>
</mgrwt>
</event>
<event>
 7    0  0.4712189E-002  0.4566560E+03  0.7546771E-02  0.1025756E+00
         21   -1    0    0  502  501  0.00000000000E+00  0.00000000000E+00  0.11907573727E+04  0.11907573727E+04  0.00000000000E+00 0.  1.
         21   -1    0    0  501  502 -0.00000000000E+00 -0.00000000000E+00 -0.43781952104E+02  0.43781952104E+02  0.00000000000E+00 0.  1.
      99926    2    1    2    0    0 -0.71054273576E-14  0.00000000000E+00  0.11469754206E+04  0.12345393248E+04  0.45665602923E+03 0.  0.
      99925    2    3    3    0    0 -0.46867363981E+02  0.32579505759E+02  0.45200095574E+03  0.52609385132E+03  0.26308155086E+03 0.  0.
         25    1    4    4    0    0 -0.57549408444E+02  0.68093965525E+00  0.26457582080E+03  0.29826208466E+03  0.12509000000E+03 0.  0.
         25    1    3    3    0    0  0.46867363981E+02 -0.32579505759E+02  0.69497446484E+03  0.70844547347E+03  0.12509000000E+03 0.  0.
         25    1    4    4    0    0  0.10682044463E+02  0.31898566104E+02  0.18742513494E+03  0.22783176666E+03  0.12509000000E+03 0.  0.
<mgrwt>
<rscale>  2 0.45665603E+03</rscale>
<asrwt>0</asrwt>
<pdfrwt beam="1">  1       21 0.17511136E+00 0.45665603E+03</pdfrwt>
<pdfrwt beam="2">  1       21 0.64385232E-02 0.45665603E+03</pdfrwt>
<totfact> 0.30679185E+04</totfact>
</mgrwt>
</event>
<event>
 7    0  0.4712189E-002  0.4603614E+03  0.7546771E-02  0.1024676E+00
         21   -1    0    0  502  501  0.00000000000E+00  0.00000000000E+00  0.76469136470E+02  0.76469136470E+02  0.00000000000E+00 0.  1.
         21   -1    0    0  501  502 -0.00000000000E+00 -0.00000000000E+00 -0.69286966489E+03  0.69286966489E+03  0.00000000000E+00 0.  1.
      99926    2    1    2    0    0  0.00000000000E+00  0.14210854715E-13 -0.61640052842E+03  0.76933880136E+03  0.46036135789E+03 0.  0.
      99925    2    3    3    0    0  0.68380017882E+02 -0.96214892596E+02 -0.37780394636E+03  0.47521472979E+03  0.26298305102E+03 0.  0.
         25    1    4    4    0    0  0.61812085773E+02 -0.18464300867E+02 -0.19022946842E+03  0.23663563364E+03  0.12509000000E+03 0.  0.
         25    1    4    4    0    0  0.65679321089E+01 -0.77750591729E+02 -0.18757447794E+03  0.23857909615E+03  0.12509000000E+03 0.  0.
         25    1    3    3    0    0 -0.68380017882E+02  0.96214892596E+02 -0.23859658206E+03  0.29412407157E+03  0.12509000000E+03 0.  0.
<mgrwt>
<rscale>  2 0.46036136E+03</rscale>
<asrwt>0</asrwt>
<pdfrwt beam="1">  1       21 0.11245461E-01 0.46036136E+03</pdfrwt>
<pdfrwt beam="2">  1       21 0.10189260E+00 0.46036136E+03</pdfrwt>
<totfact> 0.47262757E+04</totfact>
</mgrwt>
</event>
<event>
 7    0  0.4712189E-002  0.4647510E+03  0.7546771E-02  0.1023412E+00
         21   -1    0    0  502  501  0.00000000000E+00  0.00000000000E+00  0.73262116261E+03  0.73262116261E+03  0.00000000000E+00 0. -1.
         21   -1    0    0  501  502 -0.00000000000E+00 -0.00000000000E+00 -0.73705722758E+02  0.73705722758E+02  0.00000000000E+00 0. -1.
      99926    2    1    2    0    0  0.71054273576E-14  0.00000000000E+00  0.65891543985E+03  0.80632688537E+03  0.46475099698E+03 0.  0.
      99925    2    3    3    0    0  0.38508884258E+02 -0.10584975290E+03  0.32499756809E+03  0.43238068932E+03  0.26199720777E+03 0.  0.
         25    1    4    4    0    0 -0.17872130629E+02 -0.51753986964E+02  0.13693037223E+03  0.19337870400E+03  0.12509000000E+03 0.  0.
         25    1    3    3    0    0 -0.38508884258E+02  0.10584975290E+03  0.33391787176E+03  0.37394619605E+03  0.12509000000E+03 0.  0.
         25    1    4    4    0    0  0.56381014887E+02 -0.54095765932E+02  0.18806719586E+03  0.23900198532E+03  0.12509000000E+03 0.  0.
<mgrwt>
<rscale>  2 0.46475100E+03</rscale>
<asrwt>0</asrwt>
<pdfrwt beam="1">  1       21 0.10773840E+00 0.46475100E+03</pdfrwt>
<pdfrwt beam="2">  1       21 0.10839077E-01 0.46475100E+03</pdfrwt>
<totfact> 0.43995885E+04</totfact>
</mgrwt>
</event>
<event>
 7    0  0.4712189E-002  0.4605109E+03  0.7546771E-02  0.1024633E+00
         21   -1    0    0  502  501  0.00000000000E+00  0.00000000000E+00  0.42099967739E+03  0.42099967739E+03  0.00000000000E+00 0.  1.
         21   -1    0    0  501  502 -0.00000000000E+00 -0.00000000000E+00 -0.12593255155E+03  0.12593255155E+03  0.00000000000E+00 0.  1.
      99926    2    1    2    0    0  0.00000000000E+00  0.00000000000E+00  0.29506712584E+03  0.54693222893E+03  0.46051086230E+03 0.  0.
      99925    2    3    3    0    0  0.11999727644E+02 -0.11487772830E+03  0.21538877185E+03  0.35895075613E+03  0.26289244257E+03 0.  0.
         25    1    4    4    0    0  0.74530694513E+01 -0.63594940573E+02  0.59632440029E+02  0.15265451423E+03  0.12509000000E+03 0.  0.
         25    1    3    3    0    0 -0.11999727644E+02  0.11487772830E+03  0.79678353985E+02  0.18798147280E+03  0.12509000000E+03 0.  0.
         25    1    4    4    0    0  0.45466581931E+01 -0.51282787730E+02  0.15575633183E+03  0.20629624190E+03  0.12509000000E+03 0.  0.
<mgrwt>
<rscale>  2 0.46051086E+03</rscale>
<asrwt>0</asrwt>
<pdfrwt beam="1">  1       21 0.61911717E-01 0.46051086E+03</pdfrwt>
<pdfrwt beam="2">  1       21 0.18519493E-01 0.46051086E+03</pdfrwt>
<totfact> 0.59435276E+04</totfact>
</mgrwt>
</event>
<event>
 7    0  0.4712189E-002  0.4568456E+03  0.7546771E-02  0.1025700E+00
         21   -1    0    0  502  501  0.00000000000E+00  0.00000000000E+00  0.68720140276E+03  0.68720140276E+03  0.00000000000E+00 0. -1.
         21   -1    0    0  501  502 -0.00000000000E+00 -0.00000000000E+00 -0.75926744486E+02  0.75926744486E+02  0.00000000000E+00 0. -1.
      99926    2    1    2    0    0  0.00000000000E+00  0.00000000000E+00  0.61127465828E+03  0.76312814725E+03  0.45684555516E+03 0.  0.
      99925    2    3    3    0    0  0.72224877085E+02  0.89144313692E+02  0.37737647663E+03  0.47413159188E+03  0.26310571977E+03 0.  0.
         25    1    4    4    0    0  0.28786339943E+02  0.53369860163E+02  0.25443439134E+03  0.28993337672E+03  0.12509000000E+03 0.  0.
         25    1    4    4    0    0  0.43438537143E+02  0.35774453529E+02  0.12294208529E+03  0.18419821516E+03  0.12509000000E+03 0.  0.
         25    1    3    3    0    0 -0.72224877085E+02 -0.89144313692E+02  0.23389818165E+03  0.28899655537E+03  0.12509000000E+03 0.  0.
<mgrwt>
<rscale>  2 0.45684556E+03</rscale>
<asrwt>0</asrwt>
<pdfrwt beam="1">  1       21 0.10105903E+00 0.45684556E+03</pdfrwt>
<pdfrwt beam="2">  1       21 0.11165698E-01 0.45684556E+03</pdfrwt>
<totfact> 0.48887482E+04</totfact>
</mgrwt>
</event>
<event>
 7    0  0.4712189E-002  0.4539300E+03  0.7546771E-02  0.1026557E+00
         21   -1    0    0  502  501  0.00000000000E+00  0.00000000000E+00  0.96634144624E+02  0.96634144624E+02  0.00000000000E+00 0.  1.
         21   -1    0    0  501  502 -0.00000000000E+00 -0.00000000000E+00 -0.53307366251E+03  0.53307366251E+03  0.00000000000E+00 0.  1.
      99926    2    1    2    0    0 -0.17763568394E-14  0.00000000000E+00 -0.43643951788E+03  0.62970780713E+03  0.45393002720E+03 0.  0.
      99925    2    3    3    0    0  0.82341178892E+01 -0.10594171409E+03 -0.22493029487E+03  0.36198573669E+03  0.26296119207E+03 0.  0.
         25    1    4    4    0    0 -0.33225164926E+02 -0.60816036793E+02 -0.13138542122E+03  0.19419613520E+03  0.12509000000E+03 0.  0.
         25    1    4    4    0    0  0.41459282815E+02 -0.45125677299E+02 -0.93544873649E+02  0.16778960149E+03  0.12509000000E+03 0.  0.
         25    1    3    3    0    0 -0.82341178892E+01  0.10594171409E+03 -0.21150922301E+03  0.26772207044E+03  0.12509000000E+03 0.  0.
<mgrwt>
<rscale>  2 0.45393003E+03</rscale>
<asrwt>0</asrwt>
<pdfrwt beam="1">  1       21 0.14210904E-01 0.45393003E+03</pdfrwt>
<pdfrwt beam="2">  1       21 0.78393185E-01 0.45393003E+03</pdfrwt>
<totfact> 0.57368971E+04</totfact>
</mgrwt>
</event>
<event>
 7    0  0.4712189E-002  0.4503342E+03  0.7546771E-02  0.1027622E+00
         21   -1    0    0  502  501  0.00000000000E+00  0.00000000000E+00  0.51258657512E+02  0.51258657512E+02  0.00000000000E+00 0. -1.
         21   -1    0    0  501  502 -0.00000000000E+00 -0.00000000000E+00 -0.98910546223E+03  0.98910546223E+03  0.00000000000E+00 0. -1.
      99926    2    1    2    0    0  0.00000000000E+00 -0.71054273576E-14 -0.93784680472E+03  0.10403641197E+04  0.45033417872E+03 0.  0.
      99925    2    3    3    0    0 -0.19509019777E+01 -0.43293255697E+02 -0.36230020350E+03  0.44978854432E+03  0.26300225311E+03 0.  0.
         25    1    3    3    0    0  0.19509019777E+01  0.43293255697E+02 -0.57554660122E+03  0.59057557542E+03  0.12509000000E+03 0.  0.
         25    1    4    4    0    0 -0.21691298749E+02 -0.19213822498E+02 -0.12212018859E+03  0.17720195252E+03  0.12509000000E+03 0.  0.
         25    1    4    4    0    0  0.19740396771E+02 -0.24079433200E+02 -0.24018001491E+03  0.27258659180E+03  0.12509000000E+03 0.  0.
<mgrwt>
<rscale>  2 0.45033418E+03</rscale>
<asrwt>0</asrwt>
<pdfrwt beam="1">  1       21 0.75380382E-02 0.45033418E+03</pdfrwt>
<pdfrwt beam="2">  1       21 0.14545668E+00 0.45033418E+03</pdfrwt>
<totfact> 0.39035424E+04</totfact>
</mgrwt>
</event>
<event>
 7    0  0.4712189E-002  0.4807587E+03  0.7546771E-02  0.1018927E+00
         21   -1    0    0  502  501  0.00000000000E+00  0.00000000000E+00  0.66175064199E+02  0.66175064199E+02  0.00000000000E+00 0.  1.
         21   -1    0    0  501  502 -0.00000000000E+00 -0.00000000000E+00 -0.87317221023E+03  0.87317221023E+03  0.00000000000E+00 0.  1.
      99926    2    1    2    0    0 -0.71054273576E-14  0.00000000000E+00 -0.80699714603E+03  0.93934727442E+03  0.48075867987E+03 0.  0.
      99925    2    3    3    0    0  0.46526816038E+02  0.11934824345E+03 -0.40659805574E+03  0.50074074526E+03  0.26269862429E+03 0.  0.
         25    1    4    4    0    0 -0.31647168765E+01  0.90543197463E+02 -0.20653345209E+03  0.25789854783E+03  0.12509000000E+03 0.  0.
         25    1    3    3    0    0 -0.46526816038E+02 -0.11934824345E+03 -0.40039909028E+03  0.43860652916E+03  0.12509000000E+03 0.  0.
         25    1    4    4    0    0  0.49691532914E+02  0.28805045991E+02 -0.20006460365E+03  0.24284219743E+03  0.12509000000E+03 0.  0.
<mgrwt>
<rscale>  2 0.48075868E+03</rscale>
<asrwt>0</asrwt>
<pdfrwt beam="1">  1       21 0.97316270E-02 0.48075868E+03</pdfrwt>
<pdfrwt beam="2">  1       21 0.12840768E+00 0.48075868E+03</pdfrwt>
<totfact> 0.34153226E+04</totfact>
</mgrwt>
</event>
<event>
 7    0  0.4712189E-002  0.4578954E+03  0.7546771E-02  0.1025393E+00
         21   -1    0    0  502  501  0.00000000000E+00  0.00000000000E+00  0.41773978409E+02  0.41773978409E+02  0.00000000000E+00 0.  1.
         21   -1    0    0  501  502 -0.00000000000E+00 -0.00000000000E+00 -0.12547773282E+04  0.12547773282E+04  0.00000000000E+00 0.  1.
      99926    2    1    2    0    0  0.00000000000E+00  0.00000000000E+00 -0.12130033497E+04  0.12965513066E+04  0.45789536366E+03 0.  0.
      99925    2    3    3    0    0 -0.85026362600E+02 -0.68703684651E+02 -0.86987383163E+03  0.91532295908E+03  0.26303223728E+03 0.  0.
         25    1    4    4    0    0 -0.58268550897E+02 -0.18200029137E+02 -0.54592463697E+03  0.56338945894E+03  0.12509000000E+03 0.  0.
         25    1    4    4    0    0 -0.26757811704E+02 -0.50503655514E+02 -0.32394919466E+03  0.35193350015E+03  0.12509000000E+03 0.  0.
         25    1    3    3    0    0  0.85026362600E+02  0.68703684651E+02 -0.34312951812E+03  0.38122834748E+03  0.12509000000E+03 0.  0.
<mgrwt>
<rscale>  2 0.45789536E+03</rscale>
<asrwt>0</asrwt>
<pdfrwt beam="1">  1       21 0.61432337E-02 0.45789536E+03</pdfrwt>
<pdfrwt beam="2">  1       21 0.18452603E+00 0.45789536E+03</pdfrwt>
<totfact> 0.28566303E+04</totfact>
</mgrwt>
</event>
<event>
 7    0  0.4712189E-002  0.4471695E+03  0.7546771E-02  0.1028569E+00
         21   -1    0    0  502  501  0.00000000000E+00  0.00000000000E+00  0.63685684041E+03  0.63685684041E+03  0.00000000000E+00 0. -1.
         21   -1    0    0  501  502 -0.00000000000E+00 -0.00000000000E+00 -0.78495103198E+02  0.78495103198E+02  0.00000000000E+00 0. -1.
      99926    2    1    2    0    0  0.00000000000E+00  0.00000000000E+00  0.55836173721E+03  0.71535194361E+03  0.44716951332E+03 0.  0.
      99925    2    3    3    0    0  0.71375963475E+01 -0.10295984063E+03  0.39117552515E+03  0.48243476590E+03  0.26281806980E+03 0.  0.
         25    1    4    4    0    0  0.29063288655E+01 -0.71610130623E+02  0.26659469327E+03  0.30307869628E+03  0.12509000000E+03 0.  0.
         25    1    4    4    0    0  0.42312674820E+01 -0.31349710007E+02  0.12458083187E+03  0.17935606963E+03  0.12509000000E+03 0.  0.
         25    1    3    3    0    0 -0.71375963475E+01  0.10295984063E+03  0.16718621206E+03  0.23291717770E+03  0.12509000000E+03 0.  0.
<mgrwt>
<rscale>  2 0.44716951E+03</rscale>
<asrwt>0</asrwt>
<pdfrwt beam="1">  1       21 0.93655415E-01 0.44716951E+03</pdfrwt>
<pdfrwt beam="2">  1       21 0.11543398E-01 0.44716951E+03</pdfrwt>
<totfact> 0.55412628E+04</totfact>
</mgrwt>
</event>
<event>
 7    0  0.4712189E-002  0.4678074E+03  0.7546771E-02  0.1022541E+00
         21   -1    0    0  502  501  0.00000000000E+00  0.00000000000E+00  0.24266411627E+03  0.24266411627E+03  0.00000000000E+00 0. -1.
         21   -1    0    0  501  502 -0.00000000000E+00 -0.00000000000E+00 -0.22545954111E+03  0.22545954111E+03  0.00000000000E+00 0. -1.
      99926    2    1    2    0    0 -0.71054273576E-14  0.00000000000E+00  0.17204575166E+02  0.46812365738E+03  0.46780739754E+03 0.  0.
      99925    2    3    3    0    0  0.44810880220E+02  0.67438184788E+02 -0.84270227415E+02  0.28784451989E+03  0.26305336464E+03 0.  0.
         25    1    3    3    0    0 -0.44810880220E+02 -0.67438184788E+02  0.10147480258E+03  0.18027913749E+03  0.12509000000E+03 0.  0.
         25    1    4    4    0    0 -0.18513075159E+02  0.27490954013E+02 -0.42122592926E+02  0.13608933624E+03  0.12509000000E+03 0.  0.
         25    1    4    4    0    0  0.63323955379E+02  0.39947230774E+02 -0.42147634489E+02  0.15175518365E+03  0.12509000000E+03 0.  0.
<mgrwt>
<rscale>  2 0.46780740E+03</rscale>
<asrwt>0</asrwt>
<pdfrwt beam="1">  1       21 0.35685899E-01 0.46780740E+03</pdfrwt>
<pdfrwt beam="2">  1       21 0.33155815E-01 0.46780740E+03</pdfrwt>
<totfact> 0.61107524E+04</totfact>
</mgrwt>
</event>
<event>
 7    0  0.4712189E-002  0.4664395E+03  0.7546771E-02  0.1022930E+00
         21   -1    0    0  502  501  0.00000000000E+00  0.00000000000E+00  0.38270881679E+02  0.38270881679E+02  0.00000000000E+00 0. -1.
         21   -1    0    0  501  502 -0.00000000000E+00 -0.00000000000E+00 -0.14212228274E+04  0.14212228274E+04  0.00000000000E+00 0. -1.
      99926    2    1    2    0    0 -0.71054273576E-14  0.00000000000E+00 -0.13829519457E+04  0.14594937091E+04  0.46643949518E+03 0.  0.
      99925    2    3    3    0    0 -0.40542825974E+02  0.27424333320E+02 -0.12167190025E+04  0.12457725957E+04  0.26296086085E+03 0.  0.
         25    1    3    3    0    0  0.40542825974E+02 -0.27424333320E+02 -0.16623294324E+03  0.21372111340E+03  0.12509000000E+03 0.  0.
         25    1    4    4    0    0 -0.43935077864E+01  0.49357734254E+02 -0.66472383395E+03  0.67820407870E+03  0.12509000000E+03 0.  0.
         25    1    4    4    0    0 -0.36149318188E+02 -0.21933400934E+02 -0.55199516852E+03  0.56756851697E+03  0.12509000000E+03 0.  0.
<mgrwt>
<rscale>  2 0.46643950E+03</rscale>
<asrwt>0</asrwt>
<pdfrwt beam="1">  1       21 0.56280718E-02 0.46643950E+03</pdfrwt>
<pdfrwt beam="2">  1       21 0.20900332E+00 0.46643950E+03</pdfrwt>
<totfact> 0.22702962E+04</totfact>
</mgrwt>
</event>
<event>
 7    0  0.4712189E-002  0.4268420E+03  0.7546771E-02  0.1034862E+00
         21   -1    0    0  502  501  0.00000000000E+00  0.00000000000E+00  0.31743098414E+02  0.31743098414E+02  0.00000000000E+00 0.  1.
         21   -1    0    0  501  502 -0.00000000000E+00 -0.00000000000E+00 -0.14349110840E+04  0.14349110840E+04  0.00000000000E+00 0.  1.
      99926    2    1    2    0    0  0.00000000000E+00  0.00000000000E+00 -0.14031679856E+04  0.14666541824E+04  0.42684200240E+03 0.  0.
      99925    2    3    3    0    0 -0.68122896264E+02  0.48418526855E+02 -0.94032347135E+03  0.97997396380E+03  0.26297463033E+03 0.  0.
         25    1    3    3    0    0  0.68122896264E+02 -0.48418526855E+02 -0.46284451421E+03  0.48668021860E+03  0.12509000000E+03 0.  0.
         25    1    4    4    0    0 -0.72773752007E+02  0.37215850622E+02 -0.47262768310E+03  0.49568687036E+03  0.12509000000E+03 0.  0.
         25    1    4    4    0    0  0.46508557430E+01  0.11202676233E+02 -0.46769578826E+03  0.48428709344E+03  0.12509000000E+03 0.  0.
<mgrwt>
<rscale>  2 0.42684200E+03</rscale>
<asrwt>0</asrwt>
<pdfrwt beam="1">  1       21 0.46681043E-02 0.42684200E+03</pdfrwt>
<pdfrwt beam="2">  1       21 0.21101627E+00 0.42684200E+03</pdfrwt>
<totfact> 0.30818601E+04</totfact>
</mgrwt>
</event>
<event>
 7    0  0.4712189E-002  0.4578745E+03  0.7546771E-02  0.1025399E+00
         21   -1    0    0  502  501  0.00000000000E+00  0.00000000000E+00  0.65927422300E+02  0.65927422300E+02  0.00000000000E+00 0.  1.
         21   -1    0    0  501  502 -0.00000000000E+00 -0.00000000000E+00 -0.79499927713E+03  0.79499927713E+03  0.00000000000E+00 0.  1.
      99926    2    1    2    0    0  0.00000000000E+00  0.00000000000E+00 -0.72907185483E+03  0.86092669943E+03  0.45787445035E+03 0.  0.
      99925    2    3    3    0    0  0.50434940965E+02  0.69800260183E+02 -0.60381464590E+03  0.66406980704E+03  0.26264200431E+03 0.  0.
         25    1    4    4    0    0  0.30639306220E+02  0.44384619450E+02 -0.21656659379E+03  0.25584635853E+03  0.12509000000E+03 0.  0.
         25    1    4    4    0    0  0.19795634745E+02  0.25415640734E+02 -0.38724805211E+03  0.40822344851E+03  0.12509000000E+03 0.  0.
         25    1    3    3    0    0 -0.50434940965E+02 -0.69800260183E+02 -0.12525720893E+03  0.19685689239E+03  0.12509000000E+03 0.  0.
<mgrwt>
<rscale>  2 0.45787445E+03</rscale>
<asrwt>0</asrwt>
<pdfrwt beam="1">  1       21 0.96952091E-02 0.45787445E+03</pdfrwt>
<pdfrwt beam="2">  1       21 0.11691166E+00 0.45787445E+03</pdfrwt>
<totfact> 0.43955024E+04</totfact>
</mgrwt>
</event>
<event>
 7    0  0.4712189E-002  0.4532702E+03  0.7546771E-02  0.1026751E+00
         21   -1    0    0  502  501  0.00000000000E+00  0.00000000000E+00  0.33710945516E+03  0.33710945516E+03  0.00000000000E+00 0. -1.
         21   -1    0    0  501  502 -0.00000000000E+00 -0.00000000000E+00 -0.15236438566E+03  0.15236438566E+03  0.00000000000E+00 0. -1.
      99926    2    1    2    0    0  0.71054273576E-14  0.14210854715E-13  0.18474506950E+03  0.48947384082E+03  0.45327022861E+03 0.  0.
      99925    2    3    3    0    0 -0.34220422942E+02 -0.10474369046E+03  0.97446529777E+02  0.30129620885E+03  0.26294733553E+03 0.  0.
         25    1    4    4    0    0  0.41712301756E+01 -0.86362338719E+02  0.64085742246E+02  0.16501619063E+03  0.12509000000E+03 0.  0.
         25    1    3    3    0    0  0.34220422942E+02  0.10474369046E+03  0.87298539724E+02  0.18817763198E+03  0.12509000000E+03 0.  0.
         25    1    4    4    0    0 -0.38391653118E+02 -0.18381351744E+02  0.33360787532E+02  0.13628001822E+03  0.12509000000E+03 0.  0.
<mgrwt>
<rscale>  2 0.45327023E+03</rscale>
<asrwt>0</asrwt>
<pdfrwt beam="1">  1       21 0.49574920E-01 0.45327023E+03</pdfrwt>
<pdfrwt beam="2">  1       21 0.22406527E-01 0.45327023E+03</pdfrwt>
<totfact> 0.66931064E+04</totfact>
</mgrwt>
</event>
<event>
 6    0  0.5249543E-002  0.4319765E+03  0.7546771E-02  0.1033237E+00
         21   -1    0    0  502  501  0.00000000000E+00  0.00000000000E+00  0.29878375388E+03  0.29878375388E+03  0.00000000000E+00 0.  1.
         21   -1    0    0  501  502 -0.00000000000E+00 -0.00000000000E+00 -0.15613607386E+03  0.15613607386E+03  0.00000000000E+00 0.  1.
      99926    2    1    2    0    0  0.00000000000E+00 -0.35527136788E-14  0.14264768002E+03  0.45491982775E+03  0.43197649133E+03 0.  0.
         25    1    3    3    0    0 -0.79952081859E+02  0.25409767454E+02  0.32037229463E+02  0.15398663529E+03  0.12509000000E+03 0.  0.
         25    1    3    3    0    0  0.21067782495E+01 -0.40233543931E+02  0.44276865180E+02  0.13867633346E+03  0.12509000000E+03 0.  0.
         25    1    3    3    0    0  0.77845303609E+02  0.14823776477E+02  0.66333585378E+02  0.16225685900E+03  0.12509000000E+03 0.  0.
<mgrwt>
<rscale>  2 0.43197649E+03</rscale>
<asrwt>0</asrwt>
<pdfrwt beam="1">  1       21 0.43938787E-01 0.43197649E+03</pdfrwt>
<pdfrwt beam="2">  1       21 0.22961187E-01 0.43197649E+03</pdfrwt>
<totfact> 0.82674782E+04</totfact>
</mgrwt>
</event>
<event>
 7    0  0.4712189E-002  0.4531623E+03  0.7546771E-02  0.1026783E+00
         21   -1    0    0  502  501  0.00000000000E+00  0.00000000000E+00  0.31306747899E+03  0.31306747899E+03  0.00000000000E+00 0.  1.
         21   -1    0    0  501  502 -0.00000000000E+00 -0.00000000000E+00 -0.16398706084E+03  0.16398706084E+03  0.00000000000E+00 0.  1.
      99926    2    1    2    0    0  0.00000000000E+00  0.00000000000E+00  0.14908041815E+03  0.47705453983E+03  0.45316229201E+03 0.  0.
      99925    2    3    3    0    0  0.49919927707E+02  0.29935470930E+02  0.19393277475E+03  0.33197741001E+03  0.26307973703E+03 0.  0.
         25    1    4    4    0    0  0.55725906393E+02 -0.11393216068E+02  0.10466951250E+03  0.17273794303E+03  0.12509000000E+03 0.  0.
         25    1    4    4    0    0 -0.58059786856E+01  0.41328686999E+02  0.89263262252E+02  0.15923946698E+03  0.12509000000E+03 0.  0.
         25    1    3    3    0    0 -0.49919927707E+02 -0.29935470930E+02 -0.44852356604E+02  0.14507712981E+03  0.12509000000E+03 0.  0.
<mgrwt>
<rscale>  2 0.45316229E+03</rscale>
<asrwt>0</asrwt>
<pdfrwt beam="1">  1       21 0.46039335E-01 0.45316229E+03</pdfrwt>
<pdfrwt beam="2">  1       21 0.24115744E-01 0.45316229E+03</pdfrwt>
<totfact> 0.67900117E+04</totfact>
</mgrwt>
</event>
<event>
 7    0  0.4712189E-002  0.4430146E+03  0.7546771E-02  0.1029826E+00
         21   -1    0    0  502  501  0.00000000000E+00  0.00000000000E+00  0.40730264301E+03  0.40730264301E+03  0.00000000000E+00 0. -1.
         21   -1    0    0  501  502 -0.00000000000E+00 -0.00000000000E+00 -0.12046441670E+03  0.12046441670E+03  0.00000000000E+00 0. -1.
      99926    2    1    2    0    0 -0.35527136788E-14  0.00000000000E+00  0.28683822631E+03  0.52776705971E+03  0.44301456099E+03 0.  0.
      99925    2    3    3    0    0 -0.16861297459E+02 -0.99900584472E+02  0.18946707709E+03  0.33963657592E+03  0.26304144213E+03 0.  0.
         25    1    4    4    0    0  0.21942126649E+02 -0.50431447975E+02  0.61068504081E+02  0.14967183488E+03  0.12509000000E+03 0.  0.
         25    1    4    4    0    0 -0.38803424108E+02 -0.49469136497E+02  0.12839857301E+03  0.18996474104E+03  0.12509000000E+03 0.  0.
         25    1    3    3    0    0  0.16861297459E+02  0.99900584472E+02  0.97371149219E+02  0.18813048379E+03  0.12509000000E+03 0.  0.
<mgrwt>
<rscale>  2 0.44301456E+03</rscale>
<asrwt>0</asrwt>
<pdfrwt beam="1">  1       21 0.59897447E-01 0.44301456E+03</pdfrwt>
<pdfrwt beam="2">  1       21 0.17715356E-01 0.44301456E+03</pdfrwt>
<totfact> 0.69745639E+04</totfact>
</mgrwt>
</event>
<event>
 7    0  0.4712189E-002  0.4574137E+03  0.7546771E-02  0.1025534E+00
         21   -1    0    0  502  501  0.00000000000E+00  0.00000000000E+00  0.50961327230E+03  0.50961327230E+03  0.00000000000E+00 0. -1.
         21   -1    0    0  501  502 -0.00000000000E+00 -0.00000000000E+00 -0.10264021313E+03  0.10264021313E+03  0.00000000000E+00 0. -1.
      99926    2    1    2    0    0 -0.14210854715E-13  0.17763568394E-14  0.40697305918E+03  0.61225348543E+03  0.45741366347E+03 0.  0.
      99925    2    3    3    0    0 -0.90924569742E+02 -0.10840909519E+02  0.34951186976E+03  0.44692321267E+03  0.26305324217E+03 0.  0.
         25    1    4    4    0    0 -0.72109315870E+02 -0.34191439713E+02  0.16380693834E+03  0.22101816471E+03  0.12509000000E+03 0.  0.
         25    1    3    3    0    0  0.90924569742E+02  0.10840909519E+02  0.57461189417E+02  0.16533027276E+03  0.12509000000E+03 0.  0.
         25    1    4    4    0    0 -0.18815253872E+02  0.23350530194E+02  0.18570493142E+03  0.22590504796E+03  0.12509000000E+03 0.  0.
<mgrwt>
<rscale>  2 0.45741366E+03</rscale>
<asrwt>0</asrwt>
<pdfrwt beam="1">  1       21 0.74943127E-01 0.45741366E+03</pdfrwt>
<pdfrwt beam="2">  1       21 0.15094149E-01 0.45741366E+03</pdfrwt>
<totfact> 0.56838934E+04</totfact>
</mgrwt>
</event>
<event>
 7    0  0.4712189E-002  0.4516499E+03  0.7546771E-02  0.1027231E+00
         21   -1    0    0  502  501  0.00000000000E+00  0.00000000000E+00  0.44202216076E+02  0.44202216076E+02  0.00000000000E+00 0.  1.
         21   -1    0    0  501  502 -0.00000000000E+00 -0.00000000000E+00 -0.11537181142E+04  0.11537181142E+04  0.00000000000E+00 0.  1.
      99926    2    1    2    0    0  0.71054273576E-14 -0.35527136788E-14 -0.11095158981E+04  0.11979203302E+04  0.45164985275E+03 0.  0.
      99925    2    3    3    0    0  0.52016437157E+02 -0.25623176751E+02 -0.45227083636E+03  0.52636926280E+03  0.26297040608E+03 0.  0.
         25    1    4    4    0    0  0.22518708328E+02 -0.45999519006E+02 -0.18516276466E+03  0.22925052997E+03  0.12509000000E+03 0.  0.
         25    1    4    4    0    0  0.29497728829E+02  0.20376342255E+02 -0.26710807170E+03  0.29711873283E+03  0.12509000000E+03 0.  0.
         25    1    3    3    0    0 -0.52016437157E+02  0.25623176751E+02 -0.65724506173E+03  0.67155106745E+03  0.12509000000E+03 0.  0.
<mgrwt>
<rscale>  2 0.45164985E+03</rscale>
<asrwt>0</asrwt>
<pdfrwt beam="1">  1       21 0.65003258E-02 0.45164985E+03</pdfrwt>
<pdfrwt beam="2">  1       21 0.16966443E+00 0.45164985E+03</pdfrwt>
<totfact> 0.33076764E+04</totfact>
</mgrwt>
</event>
<event>
 7    0  0.4712189E-002  0.4554553E+03  0.7546771E-02  0.1026108E+00
         21   -1    0    0  502  501  0.00000000000E+00  0.00000000000E+00  0.24930269302E+03  0.24930269302E+03  0.00000000000E+00 0. -1.
         21   -1    0    0  501  502 -0.00000000000E+00 -0.00000000000E+00 -0.20801974184E+03  0.20801974184E+03  0.00000000000E+00 0. -1.
      99926    2    1    2    0    0  0.14210854715E-13  0.00000000000E+00  0.41282951187E+02  0.45732243486E+03  0.45545529678E+03 0.  0.
      99925    2    3    3    0    0  0.95486789193E+02 -0.61455468287E+02  0.28233776823E+02  0.28787542089E+03  0.26302207190E+03 0.  0.
         25    1    4    4    0    0  0.73880736647E+02 -0.63503089576E+02  0.27476097904E+02  0.16091441728E+03  0.12509000000E+03 0.  0.
         25    1    3    3    0    0 -0.95486789193E+02  0.61455468287E+02  0.13049174364E+02  0.16944701397E+03  0.12509000000E+03 0.  0.
         25    1    4    4    0    0  0.21606052546E+02  0.20476212897E+01  0.75767891922E+00  0.12696100361E+03  0.12509000000E+03 0.  0.
<mgrwt>
<rscale>  2 0.45545530E+03</rscale>
<asrwt>0</asrwt>
<pdfrwt beam="1">  1       21 0.36662161E-01 0.45545530E+03</pdfrwt>
<pdfrwt beam="2">  1       21 0.30591138E-01 0.45545530E+03</pdfrwt>
<totfact> 0.68128182E+04</totfact>
</mgrwt>
</event>
<event>
 7    0  0.4712189E-002  0.4515059E+03  0.7546771E-02  0.1027274E+00
         21   -1    0    0  502  501  0.00000000000E+00  0.00000000000E+00  0.16869694966E+03  0.16869694966E+03  0.00000000000E+00 0. -1.
         21   -1    0    0  501  502 -0.00000000000E+00 -0.00000000000E+00 -0.30210623853E+03  0.30210623853E+03  0.00000000000E+00 0. -1.
      99926    2    1    2    0    0  0.71054273576E-14  0.35527136788E-14 -0.13340928887E+03  0.47080318819E+03  0.45150592870E+03 0.  0.
      99925    2    3    3    0    0  0.54337172723E+02  0.24191906392E+02  0.12914787559E+02  0.26931864755E+03  0.26235084430E+03 0.  0.
         25    1    4    4    0    0 -0.39103823187E+01 -0.86278195631E+01  0.21262543103E+02  0.12723731449E+03  0.12509000000E+03 0.  0.
         25    1    4    4    0    0  0.58247555042E+02  0.32819725955E+02 -0.83477555445E+01  0.14208133306E+03  0.12509000000E+03 0.  0.
         25    1    3    3    0    0 -0.54337172723E+02 -0.24191906392E+02 -0.14632407643E+03  0.20148454064E+03  0.12509000000E+03 0.  0.
<mgrwt>
<rscale>  2 0.45150593E+03</rscale>
<asrwt>0</asrwt>
<pdfrwt beam="1">  1       21 0.24808375E-01 0.45150593E+03</pdfrwt>
<pdfrwt beam="2">  1       21 0.44427388E-01 0.45150593E+03</pdfrwt>
<totfact> 0.69276818E+04</totfact>
</mgrwt>
</event>
<event>
 7    0  0.4712189E-002  0.4576808E+03  0.7546771E-02  0.1025456E+00
         21   -1    0    0  502  501  0.00000000000E+00  0.00000000000E+00  0.51842760852E+03  0.51842760852E+03  0.00000000000E+00 0.  1.
         21   -1    0    0  501  502 -0.00000000000E+00 -0.00000000000E+00 -0.10101299525E+03  0.10101299525E+03  0.00000000000E+00 0.  1.
      99926    2    1    2    0    0  0.35527136788E-14  0.00000000000E+00  0.41741461327E+03  0.61944060377E+03  0.45768078639E+03 0.  0.
      99925    2    3    3    0    0  0.29697592322E+02 -0.97643244829E+02  0.33573237436E+03  0.43851065461E+03  0.26298140004E+03 0.  0.
         25    1    4    4    0    0  0.34933340252E+02 -0.85347512070E+02  0.16822117984E+03  0.22902054389E+03  0.12509000000E+03 0.  0.
         25    1    4    4    0    0 -0.52357479307E+01 -0.12295732760E+02  0.16751119452E+03  0.20949011072E+03  0.12509000000E+03 0.  0.
         25    1    3    3    0    0 -0.29697592322E+02  0.97643244829E+02  0.81682238909E+02  0.18092994916E+03  0.12509000000E+03 0.  0.
<mgrwt>
<rscale>  2 0.45768079E+03</rscale>
<asrwt>0</asrwt>
<pdfrwt beam="1">  1       21 0.76239353E-01 0.45768079E+03</pdfrwt>
<pdfrwt beam="2">  1       21 0.14854852E-01 0.45768079E+03</pdfrwt>
<totfact> 0.56296061E+04</totfact>
</mgrwt>
</event>
<event>
 7    0  0.4712189E-002  0.4520501E+03  0.7546771E-02  0.1027112E+00
         21   -1    0    0  502  501  0.00000000000E+00  0.00000000000E+00  0.18737423043E+04  0.18737423043E+04  0.00000000000E+00 0. -1.
         21   -1    0    0  501  502 -0.00000000000E+00 -0.00000000000E+00 -0.27264861085E+02  0.27264861085E+02  0.00000000000E+00 0. -1.
      99926    2    1    2    0    0  0.00000000000E+00 -0.88817841970E-15  0.18464774432E+04  0.19010071654E+04  0.45205010181E+03 0.  0.
      99925    2    3    3    0    0  0.10275746055E+03 -0.17146532767E+01  0.13350032429E+04  0.13645228679E+04  0.26292006922E+03 0.  0.
         25    1    4    4    0    0  0.84544805424E+02 -0.25001194567E+02  0.67679935093E+03  0.69388598010E+03  0.12509000000E+03 0.  0.
         25    1    4    4    0    0  0.18212655129E+02  0.23286541290E+02  0.65820389195E+03  0.67063688781E+03  0.12509000000E+03 0.  0.
         25    1    3    3    0    0 -0.10275746055E+03  0.17146532767E+01  0.51147420035E+03  0.53648429750E+03  0.12509000000E+03 0.  0.
<mgrwt>
<rscale>  2 0.45205010E+03</rscale>
<asrwt>0</asrwt>
<pdfrwt beam="1">  1       21 0.27555025E+00 0.45205010E+03</pdfrwt>
<pdfrwt beam="2">  1       21 0.40095397E-02 0.45205010E+03</pdfrwt>
<totfact> 0.15751558E+04</totfact>
</mgrwt>
</event>
<event>
 7    0  0.4712189E-002  0.4523536E+03  0.7546771E-02  0.1027023E+00
         21   -1    0    0  502  501  0.00000000000E+00  0.00000000000E+00  0.82961325081E+02  0.82961325081E+02  0.00000000000E+00 0. -1.
         21   -1    0    0  501  502 -0.00000000000E+00 -0.00000000000E+00 -0.61662394487E+03  0.61662394487E+03  0.00000000000E+00 0. -1.
      99926    2    1    2    0    0  0.00000000000E+00  0.00000000000E+00 -0.53366261979E+03  0.69958526995E+03  0.45235357650E+03 0.  0.
      99925    2    3    3    0    0  0.27500086599E+02 -0.97032311360E+02 -0.40700890359E+03  0.49498762544E+03  0.26303037378E+03 0.  0.
         25    1    4    4    0    0  0.13323521723E+02 -0.13994784509E+02 -0.22927661650E+03  0.26189433976E+03  0.12509000000E+03 0.  0.
         25    1    3    3    0    0 -0.27500086599E+02  0.97032311360E+02 -0.12665371620E+03  0.20459764451E+03  0.12509000000E+03 0.  0.
         25    1    4    4    0    0  0.14176564875E+02 -0.83037526851E+02 -0.17773228709E+03  0.23309328569E+03  0.12509000000E+03 0.  0.
<mgrwt>
<rscale>  2 0.45235358E+03</rscale>
<asrwt>0</asrwt>
<pdfrwt beam="1">  1       21 0.12200195E-01 0.45235358E+03</pdfrwt>
<pdfrwt beam="2">  1       21 0.90679991E-01 0.45235358E+03</pdfrwt>
<totfact> 0.54042249E+04</totfact>
</mgrwt>
</event>
<event>
 7    0  0.4712189E-002  0.4518639E+03  0.7546771E-02  0.1027168E+00
         21   -1    0    0  502  501  0.00000000000E+00  0.00000000000E+00  0.49767570231E+03  0.49767570231E+03  0.00000000000E+00 0. -1.
         21   -1    0    0  501  502 -0.00000000000E+00 -0.00000000000E+00 -0.10256727777E+03  0.10256727777E+03  0.00000000000E+00 0. -1.
      99926    2    1    2    0    0  0.00000000000E+00  0.00000000000E+00  0.39510842454E+03  0.60024298008E+03  0.45186388215E+03 0.  0.
      99925    2    3    3    0    0 -0.27303744448E+02 -0.44751086303E+02  0.12060577928E+03  0.29406106595E+03  0.26301711413E+03 0.  0.
         25    1    3    3    0    0  0.27303744448E+02  0.44751086303E+02  0.27450264526E+03  0.30618191413E+03  0.12509000000E+03 0.  0.
         25    1    4    4    0    0 -0.45699312936E+02 -0.38738494604E+02  0.41396686664E+02  0.14474215673E+03  0.12509000000E+03 0.  0.
         25    1    4    4    0    0  0.18395568487E+02 -0.60125916986E+01  0.79209092620E+02  0.14931890923E+03  0.12509000000E+03 0.  0.
<mgrwt>
<rscale>  2 0.45186388E+03</rscale>
<asrwt>0</asrwt>
<pdfrwt beam="1">  1       21 0.73187602E-01 0.45186388E+03</pdfrwt>
<pdfrwt beam="2">  1       21 0.15083423E-01 0.45186388E+03</pdfrwt>
<totfact> 0.60139703E+04</totfact>
</mgrwt>
</event>
<event>
 7    0  0.4712189E-002  0.4601740E+03  0.7546771E-02  0.1024731E+00
         21   -1    0    0  502  501  0.00000000000E+00  0.00000000000E+00  0.53031698576E+03  0.53031698576E+03  0.00000000000E+00 0.  1.
         21   -1    0    0  501  502 -0.00000000000E+00 -0.00000000000E+00 -0.99827135832E+02  0.99827135832E+02  0.00000000000E+00 0.  1.
      99926    2    1    2    0    0  0.17763568394E-14  0.14210854715E-13  0.43048984993E+03  0.63014412159E+03  0.46017399219E+03 0.  0.
      99925    2    3    3    0    0 -0.10635932297E+02  0.88509296230E+02  0.37533897240E+03  0.46693828234E+03  0.26306842595E+03 0.  0.
         25    1    3    3    0    0  0.10635932297E+02 -0.88509296230E+02  0.55150877529E+02  0.16320583926E+03  0.12509000000E+03 0.  0.
         25    1    4    4    0    0  0.16647876347E+02  0.76435239678E+02  0.22556425881E+03  0.26952966554E+03  0.12509000000E+03 0.  0.
         25    1    4    4    0    0 -0.27283808645E+02  0.12074056552E+02  0.14977471359E+03  0.19740861680E+03  0.12509000000E+03 0.  0.
<mgrwt>
<rscale>  2 0.46017399E+03</rscale>
<asrwt>0</asrwt>
<pdfrwt beam="1">  1       21 0.77987791E-01 0.46017399E+03</pdfrwt>
<pdfrwt beam="2">  1       21 0.14680461E-01 0.46017399E+03</pdfrwt>
<totfact> 0.54595763E+04</totfact>
</mgrwt>
</event>
<event>
 7    0  0.4712189E-002  0.4397827E+03  0.7546771E-02  0.1030813E+00
         21   -1    0    0  502  501  0.00000000000E+00  0.00000000000E+00  0.54870025165E+02  0.54870025165E+02  0.00000000000E+00 0.  1.
         21   -1    0    0  501  502 -0.00000000000E+00 -0.00000000000E+00 -0.88121351492E+03  0.88121351492E+03  0.00000000000E+00 0.  1.
      99926    2    1    2    0    0  0.00000000000E+00 -0.13322676296E-14 -0.82634348975E+03  0.93608354008E+03  0.43978270880E+03 0.  0.
      99925    2    3    3    0    0 -0.38955991342E+02  0.34922096461E+01 -0.33573955716E+03  0.42827502148E+03  0.26299938972E+03 0.  0.
         25    1    4    4    0    0 -0.58240136033E+02  0.13779482026E+02 -0.16621051949E+03  0.21646069495E+03  0.12509000000E+03 0.  0.
         25    1    4    4    0    0  0.19284144691E+02 -0.10287272380E+02 -0.16952903767E+03  0.21181432653E+03  0.12509000000E+03 0.  0.
         25    1    3    3    0    0  0.38955991342E+02 -0.34922096461E+01 -0.49060393259E+03  0.50780851860E+03  0.12509000000E+03 0.  0.
<mgrwt>
<rscale>  2 0.43978271E+03</rscale>
<asrwt>0</asrwt>
<pdfrwt beam="1">  1       21 0.80691222E-02 0.43978271E+03</pdfrwt>
<pdfrwt beam="2">  1       21 0.12959021E+00 0.43978271E+03</pdfrwt>
<totfact> 0.47066251E+04</totfact>
</mgrwt>
</event>
<event>
 7    0  0.4712189E-002  0.4478360E+03  0.7546771E-02  0.1028369E+00
         21   -1    0    0  502  501  0.00000000000E+00  0.00000000000E+00  0.22744430829E+03  0.22744430829E+03  0.00000000000E+00 0. -1.
         21   -1    0    0  501  502 -0.00000000000E+00 -0.00000000000E+00 -0.22044637620E+03  0.22044637620E+03  0.00000000000E+00 0. -1.
      99926    2    1    2    0    0  0.00000000000E+00  0.00000000000E+00  0.69979320909E+01  0.44789068449E+03  0.44783601262E+03 0.  0.
      99925    2    3    3    0    0 -0.14058192427E+02 -0.10231730044E+03  0.30620379021E+02  0.28396389949E+03  0.26273832202E+03 0.  0.
         25    1    4    4    0    0  0.54948282257E+00 -0.45339125904E+02 -0.24242759018E+02  0.13524480668E+03  0.12509000000E+03 0.  0.
         25    1    3    3    0    0  0.14058192427E+02  0.10231730044E+03 -0.23622446930E+02  0.16392678501E+03  0.12509000000E+03 0.  0.
         25    1    4    4    0    0 -0.14607675249E+02 -0.56978174538E+02  0.54863138039E+02  0.14871909281E+03  0.12509000000E+03 0.  0.
<mgrwt>
<rscale>  2 0.44783601E+03</rscale>
<asrwt>0</asrwt>
<pdfrwt beam="1">  1       21 0.33447693E-01 0.44783601E+03</pdfrwt>
<pdfrwt beam="2">  1       21 0.32418585E-01 0.44783601E+03</pdfrwt>
<totfact> 0.73163293E+04</totfact>
</mgrwt>
</event>
<event>
 7    0  0.4712189E-002  0.4399387E+03  0.7546771E-02  0.1030766E+00
         21   -1    0    0  502  501  0.00000000000E+00  0.00000000000E+00  0.56987756683E+03  0.56987756683E+03  0.00000000000E+00 0.  1.
         21   -1    0    0  501  502 -0.00000000000E+00 -0.00000000000E+00 -0.84906868455E+02  0.84906868455E+02  0.00000000000E+00 0.  1.
      99926    2    1    2    0    0  0.26645352591E-14  0.00000000000E+00  0.48497069837E+03  0.65478443529E+03  0.43993872120E+03 0.  0.
      99925    2    3    3    0    0 -0.11270916895E+01  0.75118925634E+02  0.21513747492E+03  0.34802459452E+03  0.26304536102E+03 0.  0.
         25    1    4    4    0    0 -0.27881974721E+02  0.64656935549E+02  0.13268442751E+03  0.19547529059E+03  0.12509000000E+03 0.  0.
         25    1    3    3    0    0  0.11270916895E+01 -0.75118925634E+02  0.26983322345E+03  0.30675984076E+03  0.12509000000E+03 0.  0.
         25    1    4    4    0    0  0.26754883031E+02  0.10461990085E+02  0.82453047414E+02  0.15254930393E+03  0.12509000000E+03 0.  0.
<mgrwt>
<rscale>  2 0.43993872E+03</rscale>
<asrwt>0</asrwt>
<pdfrwt beam="1">  1       21 0.83805522E-01 0.43993872E+03</pdfrwt>
<pdfrwt beam="2">  1       21 0.12486304E-01 0.43993872E+03</pdfrwt>
<totfact> 0.62526624E+04</totfact>
</mgrwt>
</event>
<event>
 7    0  0.4712189E-002  0.4504091E+03  0.7546771E-02  0.1027600E+00
         21   -1    0    0  502  501  0.00000000000E+00  0.00000000000E+00  0.11529228257E+04  0.11529228257E+04  0.00000000000E+00 0.  1.
         21   -1    0    0  501  502 -0.00000000000E+00 -0.00000000000E+00 -0.43990011413E+02  0.43990011413E+02  0.00000000000E+00 0.  1.
      99926    2    1    2    0    0  0.00000000000E+00  0.00000000000E+00  0.11089328142E+04  0.11969128371E+04  0.45040909520E+03 0.  0.
      99925    2    3    3    0    0 -0.10360105282E+03  0.10319529751E+02  0.61724572014E+03  0.67899066391E+03  0.26305203251E+03 0.  0.
         25    1    3    3    0    0  0.10360105282E+03 -0.10319529751E+02  0.49168709411E+03  0.51792217317E+03  0.12509000000E+03 0.  0.
         25    1    4    4    0    0 -0.72149168367E+02  0.50405610635E+01  0.41117233291E+03  0.43582233215E+03  0.12509000000E+03 0.  0.
         25    1    4    4    0    0 -0.31451884456E+02  0.52789686875E+01  0.20607338723E+03  0.24316833176E+03  0.12509000000E+03 0.  0.
<mgrwt>
<rscale>  2 0.45040910E+03</rscale>
<asrwt>0</asrwt>
<pdfrwt beam="1">  1       21 0.16954745E+00 0.45040910E+03</pdfrwt>
<pdfrwt beam="2">  1       21 0.64691201E-02 0.45040910E+03</pdfrwt>
<totfact> 0.33433754E+04</totfact>
</mgrwt>
</event>
<event>
 7    0  0.4712189E-002  0.4501075E+03  0.7546771E-02  0.1027690E+00
         21   -1    0    0  502  501  0.00000000000E+00  0.00000000000E+00  0.18014855560E+03  0.18014855560E+03  0.00000000000E+00 0. -1.
         21   -1    0    0  501  502 -0.00000000000E+00 -0.00000000000E+00 -0.28115240675E+03  0.28115240675E+03  0.00000000000E+00 0. -1.
      99926    2    1    2    0    0  0.00000000000E+00  0.14210854715E-13 -0.10100385115E+03  0.46130096236E+03  0.45010754262E+03 0.  0.
      99925    2    3    3    0    0  0.36258897847E+02  0.98244335696E+02 -0.34724021164E+02  0.28521240188E+03  0.26300893401E+03 0.  0.
         25    1    3    3    0    0 -0.36258897847E+02 -0.98244335696E+02 -0.66279829982E+02  0.17608856048E+03  0.12509000000E+03 0.  0.
         25    1    4    4    0    0  0.48660089876E+02  0.31952827882E+02  0.36153303156E+01  0.13801944164E+03  0.12509000000E+03 0.  0.
         25    1    4    4    0    0 -0.12401192028E+02  0.66291507814E+02 -0.38339351480E+02  0.14719296024E+03  0.12509000000E+03 0.  0.
<mgrwt>
<rscale>  2 0.45010754E+03</rscale>
<asrwt>0</asrwt>
<pdfrwt beam="1">  1       21 0.26492435E-01 0.45010754E+03</pdfrwt>
<pdfrwt beam="2">  1       21 0.41345942E-01 0.45010754E+03</pdfrwt>
<totfact> 0.70796365E+04</totfact>
</mgrwt>
</event>
<event>
 7    0  0.4712189E-002  0.4563677E+03  0.7546771E-02  0.1025840E+00
         21   -1    0    0  502  501  0.00000000000E+00  0.00000000000E+00  0.44099157098E+02  0.44099157098E+02  0.00000000000E+00 0.  1.
         21   -1    0    0  501  502 -0.00000000000E+00 -0.00000000000E+00 -0.11806999996E+04  0.11806999996E+04  0.00000000000E+00 0.  1.
      99926    2    1    2    0    0  0.71054273576E-14  0.44408920985E-15 -0.11366008425E+04  0.12247991567E+04  0.45636772351E+03 0.  0.
      99925    2    3    3    0    0 -0.48787458324E+02 -0.15125060778E+01 -0.43646198604E+03  0.51190054526E+03  0.26298402844E+03 0.  0.
         25    1    4    4    0    0 -0.48540807440E+02 -0.31371154004E+02 -0.20279519843E+03  0.24518107573E+03  0.12509000000E+03 0.  0.
         25    1    4    4    0    0 -0.24665088405E+00  0.29858647926E+02 -0.23366678761E+03  0.26671946953E+03  0.12509000000E+03 0.  0.
         25    1    3    3    0    0  0.48787458324E+02  0.15125060778E+01 -0.70013885642E+03  0.71289861140E+03  0.12509000000E+03 0.  0.
<mgrwt>
<rscale>  2 0.45636772E+03</rscale>
<asrwt>0</asrwt>
<pdfrwt beam="1">  1       21 0.64851701E-02 0.45636772E+03</pdfrwt>
<pdfrwt beam="2">  1       21 0.17363235E+00 0.45636772E+03</pdfrwt>
<totfact> 0.31047293E+04</totfact>
</mgrwt>
</event>
<event>
 7    0  0.4712189E-002  0.4415321E+03  0.7546771E-02  0.1030278E+00
         21   -1    0    0  502  501  0.00000000000E+00  0.00000000000E+00  0.37685099396E+03  0.37685099396E+03  0.00000000000E+00 0.  1.
         21   -1    0    0  501  502 -0.00000000000E+00 -0.00000000000E+00 -0.12932872362E+03  0.12932872362E+03  0.00000000000E+00 0.  1.
      99926    2    1    2    0    0  0.00000000000E+00  0.71054273576E-14  0.24752227034E+03  0.50617971758E+03  0.44153214172E+03 0.  0.
      99925    2    3    3    0    0  0.17063037618E+02 -0.60314429125E+02  0.24713808730E+03  0.36626319493E+03  0.26294964565E+03 0.  0.
         25    1    4    4    0    0  0.56463247559E+01  0.11186222042E+02  0.11090270931E+03  0.16764227265E+03  0.12509000000E+03 0.  0.
         25    1    4    4    0    0  0.11416712862E+02 -0.71500651167E+02  0.13623537799E+03  0.19862092228E+03  0.12509000000E+03 0.  0.
         25    1    3    3    0    0 -0.17063037618E+02  0.60314429125E+02  0.38418303271E+00  0.13991652265E+03  0.12509000000E+03 0.  0.
<mgrwt>
<rscale>  2 0.44153214E+03</rscale>
<asrwt>0</asrwt>
<pdfrwt beam="1">  1       21 0.55419264E-01 0.44153214E+03</pdfrwt>
<pdfrwt beam="2">  1       21 0.19018930E-01 0.44153214E+03</pdfrwt>
<totfact> 0.72257600E+04</totfact>
</mgrwt>
</event>
<event>
 7    0  0.4712189E-002  0.4525341E+03  0.7546771E-02  0.1026969E+00
         21   -1    0    0  502  501  0.00000000000E+00  0.00000000000E+00  0.36313119023E+02  0.36313119023E+02  0.00000000000E+00 0. -1.
         21   -1    0    0  501  502 -0.00000000000E+00 -0.00000000000E+00 -0.14098700534E+04  0.14098700534E+04  0.00000000000E+00 0. -1.
      99926    2    1    2    0    0  0.00000000000E+00  0.71054273576E-14 -0.13735569343E+04  0.14461831724E+04  0.45253410503E+03 0.  0.
      99925    2    3    3    0    0  0.10181512180E+03  0.43517617794E+02 -0.88510210137E+03  0.92995092423E+03  0.26295035565E+03 0.  0.
         25    1    4    4    0    0  0.42630144361E+02 -0.17653527192E+02 -0.44679766372E+03  0.46626670119E+03  0.12509000000E+03 0.  0.
         25    1    4    4    0    0  0.59184977437E+02  0.61171144986E+02 -0.43830443765E+03  0.46368422304E+03  0.12509000000E+03 0.  0.
         25    1    3    3    0    0 -0.10181512180E+03 -0.43517617794E+02 -0.48845483296E+03  0.51623224815E+03  0.12509000000E+03 0.  0.
<mgrwt>
<rscale>  2 0.45253411E+03</rscale>
<asrwt>0</asrwt>
<pdfrwt beam="1">  1       21 0.53401646E-02 0.45253411E+03</pdfrwt>
<pdfrwt beam="2">  1       21 0.20733383E+00 0.45253411E+03</pdfrwt>
<totfact> 0.25614111E+04</totfact>
</mgrwt>
</event>
<event>
 7    0  0.4712189E-002  0.4572677E+03  0.7546771E-02  0.1025577E+00
         21   -1    0    0  502  501  0.00000000000E+00  0.00000000000E+00  0.70886020634E+03  0.70886020634E+03  0.00000000000E+00 0.  1.
         21   -1    0    0  501  502 -0.00000000000E+00 -0.00000000000E+00 -0.73742937346E+02  0.73742937346E+02  0.00000000000E+00 0.  1.
      99926    2    1    2    0    0 -0.71054273576E-14  0.00000000000E+00  0.63511726899E+03  0.78260314368E+03  0.45726768433E+03 0.  0.
      99925    2    3    3    0    0  0.34066241909E+02  0.10845586542E+03  0.43051250933E+03  0.51720947504E+03  0.26313767650E+03 0.  0.
         25    1    3    3    0    0 -0.34066241909E+02 -0.10845586542E+03  0.20460475966E+03  0.26539366865E+03  0.12509000000E+03 0.  0.
         25    1    4    4    0    0 -0.36116784228E+01  0.89794126117E+02  0.24916111461E+03  0.29292456100E+03  0.12509000000E+03 0.  0.
         25    1    4    4    0    0  0.37677920332E+02  0.18661739305E+02  0.18135139472E+03  0.22428491403E+03  0.12509000000E+03 0.  0.
<mgrwt>
<rscale>  2 0.45726768E+03</rscale>
<asrwt>0</asrwt>
<pdfrwt beam="1">  1       21 0.10424414E+00 0.45726768E+03</pdfrwt>
<pdfrwt beam="2">  1       21 0.10844550E-01 0.45726768E+03</pdfrwt>
<totfact> 0.47762020E+04</totfact>
</mgrwt>
</event>
<event>
 7    0  0.4712189E-002  0.4532602E+03  0.7546771E-02  0.1026754E+00
         21   -1    0    0  502  501  0.00000000000E+00  0.00000000000E+00  0.27074431617E+03  0.27074431617E+03  0.00000000000E+00 0. -1.
         21   -1    0    0  501  502 -0.00000000000E+00 -0.00000000000E+00 -0.18970367197E+03  0.18970367197E+03  0.00000000000E+00 0. -1.
      99926    2    1    2    0    0  0.00000000000E+00  0.00000000000E+00  0.81040644205E+02  0.46044798814E+03  0.45326015021E+03 0.  0.
      99925    2    3    3    0    0 -0.66076795084E+02 -0.83828170673E+02  0.18410945568E+02  0.28448409327E+03  0.26305689757E+03 0.  0.
         25    1    4    4    0    0 -0.28275552883E+02  0.71214894927E+00  0.86522599706E+01  0.12853942488E+03  0.12509000000E+03 0.  0.
         25    1    4    4    0    0 -0.37801242201E+02 -0.84540319622E+02  0.97586855978E+01  0.15594466839E+03  0.12509000000E+03 0.  0.
         25    1    3    3    0    0  0.66076795084E+02  0.83828170673E+02  0.62629698636E+02  0.17596389487E+03  0.12509000000E+03 0.  0.
<mgrwt>
<rscale>  2 0.45326015E+03</rscale>
<asrwt>0</asrwt>
<pdfrwt beam="1">  1       21 0.39815341E-01 0.45326015E+03</pdfrwt>
<pdfrwt beam="2">  1       21 0.27897599E-01 0.45326015E+03</pdfrwt>
<totfact> 0.69100125E+04</totfact>
</mgrwt>
</event>
<event>
 7    0  0.4712189E-002  0.4561378E+03  0.7546771E-02  0.1025907E+00
         21   -1    0    0  502  501  0.00000000000E+00  0.00000000000E+00  0.27341550496E+03  0.27341550496E+03  0.00000000000E+00 0.  1.
         21   -1    0    0  501  502 -0.00000000000E+00 -0.00000000000E+00 -0.19024314202E+03  0.19024314202E+03  0.00000000000E+00 0.  1.
      99926    2    1    2    0    0  0.00000000000E+00  0.00000000000E+00  0.83172362935E+02  0.46365864698E+03  0.45613780699E+03 0.  0.
      99925    2    3    3    0    0  0.51014668796E+02 -0.96454250639E+02  0.86725121747E+02  0.29762838139E+03  0.26297431009E+03 0.  0.
         25    1    3    3    0    0 -0.51014668796E+02  0.96454250639E+02 -0.35527588120E+01  0.16603026560E+03  0.12509000000E+03 0.  0.
         25    1    4    4    0    0  0.18586644543E+02 -0.73299317697E+02  0.12227303454E+02  0.14668083849E+03  0.12509000000E+03 0.  0.
         25    1    4    4    0    0  0.32428024253E+02 -0.23154932943E+02  0.74497818293E+02  0.15094754290E+03  0.12509000000E+03 0.  0.
<mgrwt>
<rscale>  2 0.45613781E+03</rscale>
<asrwt>0</asrwt>
<pdfrwt beam="1">  1       21 0.40208163E-01 0.45613781E+03</pdfrwt>
<pdfrwt beam="2">  1       21 0.27976933E-01 0.45613781E+03</pdfrwt>
<totfact> 0.67299053E+04</totfact>
</mgrwt>
</event>
<event>
 7    0  0.4712189E-002  0.4561211E+03  0.7546771E-02  0.1025912E+00
         21   -1    0    0  502  501  0.00000000000E+00  0.00000000000E+00  0.10598707851E+03  0.10598707851E+03  0.00000000000E+00 0. -1.
         21   -1    0    0  501  502 -0.00000000000E+00 -0.00000000000E+00 -0.49073543960E+03  0.49073543960E+03  0.00000000000E+00 0. -1.
      99926    2    1    2    0    0 -0.71054273576E-14  0.00000000000E+00 -0.38474836109E+03  0.59672251812E+03  0.45612110483E+03 0.  0.
      99925    2    3    3    0    0  0.56004862369E+02  0.56814170929E+02 -0.13537714907E+03  0.30655376702E+03  0.26321824587E+03 0.  0.
         25    1    4    4    0    0  0.12908762293E+02  0.66730625527E+02 -0.70772083721E+02  0.15898367357E+03  0.12509000000E+03 0.  0.
         25    1    3    3    0    0 -0.56004862369E+02 -0.56814170929E+02 -0.24937121202E+03  0.29016875109E+03  0.12509000000E+03 0.  0.
         25    1    4    4    0    0  0.43096100076E+02 -0.99164545981E+01 -0.64605065350E+02  0.14757009346E+03  0.12509000000E+03 0.  0.
<mgrwt>
<rscale>  2 0.45612110E+03</rscale>
<asrwt>0</asrwt>
<pdfrwt beam="1">  1       21 0.15586335E-01 0.45612110E+03</pdfrwt>
<pdfrwt beam="2">  1       21 0.72166976E-01 0.45612110E+03</pdfrwt>
<totfact> 0.58361710E+04</totfact>
</mgrwt>
</event>
<event>
 7    0  0.4712189E-002  0.4465386E+03  0.7546771E-02  0.1028759E+00
         21   -1    0    0  502  501  0.00000000000E+00  0.00000000000E+00  0.68987295515E+02  0.68987295515E+02  0.00000000000E+00 0.  1.
         21   -1    0    0  501  502 -0.00000000000E+00 -0.00000000000E+00 -0.72258504511E+03  0.72258504511E+03  0.00000000000E+00 0.  1.
      99926    2    1    2    0    0 -0.12212453271E-14  0.00000000000E+00 -0.65359774960E+03  0.79157234062E+03  0.44653863457E+03 0.  0.
      99925    2    3    3    0    0 -0.64232798904E+00 -0.53431329107E+02 -0.25417359439E+03  0.36962153380E+03  0.26298392090E+03 0.  0.
         25    1    4    4    0    0 -0.40613546467E+02 -0.30505760275E+02 -0.13112626536E+03  0.18820644817E+03  0.12509000000E+03 0.  0.
         25    1    4    4    0    0  0.39971218477E+02 -0.22925568832E+02 -0.12304732903E+03  0.18141508563E+03  0.12509000000E+03 0.  0.
         25    1    3    3    0    0  0.64232798904E+00  0.53431329107E+02 -0.39942415521E+03  0.42195080682E+03  0.12509000000E+03 0.  0.
<mgrwt>
<rscale>  2 0.44653863E+03</rscale>
<asrwt>0</asrwt>
<pdfrwt beam="1">  1       21 0.10145191E-01 0.44653863E+03</pdfrwt>
<pdfrwt beam="2">  1       21 0.10626250E+00 0.44653863E+03</pdfrwt>
<totfact> 0.51511729E+04</totfact>
</mgrwt>
</event>
<event>
 7    0  0.4712189E-002  0.4382686E+03  0.7546771E-02  0.1031279E+00
         21   -1    0    0  502  501  0.00000000000E+00  0.00000000000E+00  0.26920505704E+03  0.26920505704E+03  0.00000000000E+00 0. -1.
         21   -1    0    0  501  502 -0.00000000000E+00 -0.00000000000E+00 -0.17837647256E+03  0.17837647256E+03  0.00000000000E+00 0. -1.
      99926    2    1    2    0    0  0.00000000000E+00  0.14210854715E-13  0.90828584479E+02  0.44758152961E+03  0.43826863210E+03 0.  0.
      99925    2    3    3    0    0 -0.55090996578E+01 -0.92733709825E+02  0.30777985607E+02  0.28059807641E+03  0.26297928620E+03 0.  0.
         25    1    4    4    0    0  0.58489792544E+00 -0.36151878920E+02 -0.24455020617E+02  0.13248719405E+03  0.12509000000E+03 0.  0.
         25    1    3    3    0    0  0.55090996578E+01  0.92733709825E+02  0.60050598872E+02  0.16698345320E+03  0.12509000000E+03 0.  0.
         25    1    4    4    0    0 -0.60939975833E+01 -0.56581830905E+02  0.55233006224E+02  0.14811088235E+03  0.12509000000E+03 0.  0.
<mgrwt>
<rscale>  2 0.43826863E+03</rscale>
<asrwt>0</asrwt>
<pdfrwt beam="1">  1       21 0.39588979E-01 0.43826863E+03</pdfrwt>
<pdfrwt beam="2">  1       21 0.26231834E-01 0.43826863E+03</pdfrwt>
<totfact> 0.79131651E+04</totfact>
</mgrwt>
</event>
<event>
 7    0  0.4712189E-002  0.4528754E+03  0.7546771E-02  0.1026868E+00
         21   -1    0    0  502  501  0.00000000000E+00  0.00000000000E+00  0.14946373210E+03  0.14946373210E+03  0.00000000000E+00 0. -1.
         21   -1    0    0  501  502 -0.00000000000E+00 -0.00000000000E+00 -0.34305335030E+03  0.34305335030E+03  0.00000000000E+00 0. -1.
      99926    2    1    2    0    0 -0.35527136788E-14  0.00000000000E+00 -0.19358961819E+03  0.49251708240E+03  0.45287540912E+03 0.  0.
      99925    2    3    3    0    0 -0.13951080573E+02 -0.10850924860E+03 -0.10094856456E+03  0.30225735834E+03  0.26305894455E+03 0.  0.
         25    1    4    4    0    0 -0.45411613203E+02 -0.68978173405E+02 -0.49091484489E+02  0.15772661465E+03  0.12509000000E+03 0.  0.
         25    1    4    4    0    0  0.31460532630E+02 -0.39531075191E+02 -0.51857080067E+02  0.14453074369E+03  0.12509000000E+03 0.  0.
         25    1    3    3    0    0  0.13951080573E+02  0.10850924860E+03 -0.92641053636E+02  0.19025972406E+03  0.12509000000E+03 0.  0.
<mgrwt>
<rscale>  2 0.45287541E+03</rscale>
<asrwt>0</asrwt>
<pdfrwt beam="1">  1       21 0.21979961E-01 0.45287541E+03</pdfrwt>
<pdfrwt beam="2">  1       21 0.50449022E-01 0.45287541E+03</pdfrwt>
<totfact> 0.66921228E+04</totfact>
</mgrwt>
</event>
<event>
 7    0  0.4712189E-002  0.4561710E+03  0.7546771E-02  0.1025898E+00
         21   -1    0    0  502  501  0.00000000000E+00  0.00000000000E+00  0.12544815888E+03  0.12544815888E+03  0.00000000000E+00 0.  1.
         21   -1    0    0  501  502 -0.00000000000E+00 -0.00000000000E+00 -0.41469717620E+03  0.41469717620E+03  0.00000000000E+00 0.  1.
      99926    2    1    2    0    0  0.17763568394E-14 -0.35527136788E-14 -0.28924901732E+03  0.54014533509E+03  0.45617100850E+03 0.  0.
      99925    2    3    3    0    0 -0.13344724440E+02 -0.14962436952E+02 -0.47673998895E+02  0.26736712149E+03  0.26231738656E+03 0.  0.
         25    1    4    4    0    0 -0.13922939551E+02  0.21253153684E+02 -0.50079056053E+02  0.13711661002E+03  0.12509000000E+03 0.  0.
         25    1    4    4    0    0  0.57821511117E+00 -0.36215590636E+02  0.24050571584E+01  0.13025051147E+03  0.12509000000E+03 0.  0.
         25    1    3    3    0    0  0.13344724440E+02  0.14962436952E+02 -0.24157501843E+03  0.27277821360E+03  0.12509000000E+03 0.  0.
<mgrwt>
<rscale>  2 0.45617101E+03</rscale>
<asrwt>0</asrwt>
<pdfrwt beam="1">  1       21 0.18448259E-01 0.45617101E+03</pdfrwt>
<pdfrwt beam="2">  1       21 0.60984878E-01 0.45617101E+03</pdfrwt>
<totfact> 0.61946379E+04</totfact>
</mgrwt>
</event>
<event>
 7    0  0.4712189E-002  0.4471027E+03  0.7546771E-02  0.1028590E+00
         21   -1    0    0  502  501  0.00000000000E+00  0.00000000000E+00  0.10147827373E+03  0.10147827373E+03  0.00000000000E+00 0. -1.
         21   -1    0    0  501  502 -0.00000000000E+00 -0.00000000000E+00 -0.49247192888E+03  0.49247192888E+03  0.00000000000E+00 0. -1.
      99926    2    1    2    0    0  0.35527136788E-14  0.00000000000E+00 -0.39099365515E+03  0.59395020261E+03  0.44710267816E+03 0.  0.
      99925    2    3    3    0    0 -0.22688307029E+02 -0.10070196414E+03 -0.27906189741E+03  0.39689216206E+03  0.26266366490E+03 0.  0.
         25    1    3    3    0    0  0.22688307029E+02  0.10070196414E+03 -0.11193175773E+03  0.19705804056E+03  0.12509000000E+03 0.  0.
         25    1    4    4    0    0 -0.36073834856E+02 -0.46960345103E+02 -0.18428255669E+03  0.23046510446E+03  0.12509000000E+03 0.  0.
         25    1    4    4    0    0  0.13385527827E+02 -0.53741619041E+02 -0.94779340716E+02  0.16642705759E+03  0.12509000000E+03 0.  0.
<mgrwt>
<rscale>  2 0.44710268E+03</rscale>
<asrwt>0</asrwt>
<pdfrwt beam="1">  1       21 0.14923276E-01 0.44710268E+03</pdfrwt>
<pdfrwt beam="2">  1       21 0.72422342E-01 0.44710268E+03</pdfrwt>
<totfact> 0.62885816E+04</totfact>
</mgrwt>
</event>
<event>
 7    0  0.4712189E-002  0.4453901E+03  0.7546771E-02  0.1029106E+00
         21   -1    0    0  502  501  0.00000000000E+00  0.00000000000E+00  0.15481892318E+03  0.15481892318E+03  0.00000000000E+00 0. -1.
         21   -1    0    0  501  502 -0.00000000000E+00 -0.00000000000E+00 -0.32032959440E+03  0.32032959440E+03  0.00000000000E+00 0. -1.
      99926    2    1    2    0    0  0.00000000000E+00  0.00000000000E+00 -0.16551067122E+03  0.47514851758E+03  0.44539008910E+03 0.  0.
      99925    2    3    3    0    0 -0.45106665445E+02 -0.66722974299E+02 -0.17488985871E+03  0.32607791744E+03  0.26316112744E+03 0.  0.
         25    1    4    4    0    0 -0.46726756327E+02 -0.15308338627E+02 -0.11975536630E+03  0.18001830697E+03  0.12509000000E+03 0.  0.
         25    1    4    4    0    0  0.16200908821E+01 -0.51414635672E+02 -0.55134492418E+02  0.14605961047E+03  0.12509000000E+03 0.  0.
         25    1    3    3    0    0  0.45106665445E+02  0.66722974299E+02  0.93791874982E+01  0.14907060014E+03  0.12509000000E+03 0.  0.
<mgrwt>
<rscale>  2 0.44539009E+03</rscale>
<asrwt>0</asrwt>
<pdfrwt beam="1">  1       21 0.22767489E-01 0.44539009E+03</pdfrwt>
<pdfrwt beam="2">  1       21 0.47107293E-01 0.44539009E+03</pdfrwt>
<totfact> 0.72423727E+04</totfact>
</mgrwt>
</event>
<event>
 7    0  0.4712189E-002  0.4521397E+03  0.7546771E-02  0.1027086E+00
         21   -1    0    0  502  501  0.00000000000E+00  0.00000000000E+00  0.15652076441E+03  0.15652076441E+03  0.00000000000E+00 0. -1.
         21   -1    0    0  501  502 -0.00000000000E+00 -0.00000000000E+00 -0.32652262032E+03  0.32652262032E+03  0.00000000000E+00 0. -1.
      99926    2    1    2    0    0  0.00000000000E+00  0.00000000000E+00 -0.17000185590E+03  0.48304338473E+03  0.45213966926E+03 0.  0.
      99925    2    3    3    0    0 -0.77102186074E+02  0.78860062677E+02 -0.10307158374E+03  0.30334690170E+03  0.26311962073E+03 0.  0.
         25    1    4    4    0    0 -0.40618522749E+02 -0.27280130722E+01 -0.49025066759E+02  0.14038615215E+03  0.12509000000E+03 0.  0.
         25    1    4    4    0    0 -0.36483663325E+02  0.81588075750E+02 -0.54046516986E+02  0.16296074955E+03  0.12509000000E+03 0.  0.
         25    1    3    3    0    0  0.77102186074E+02 -0.78860062677E+02 -0.66930272157E+02  0.17969648303E+03  0.12509000000E+03 0.  0.
<mgrwt>
<rscale>  2 0.45213967E+03</rscale>
<asrwt>0</asrwt>
<pdfrwt beam="1">  1       21 0.23017760E-01 0.45213967E+03</pdfrwt>
<pdfrwt beam="2">  1       21 0.48018031E-01 0.45213967E+03</pdfrwt>
<totfact> 0.68010416E+04</totfact>
</mgrwt>
</event>
<event>
 7    0  0.4712189E-002  0.4533733E+03  0.7546771E-02  0.1026721E+00
         21   -1    0    0  502  501  0.00000000000E+00  0.00000000000E+00  0.86612826100E+02  0.86612826100E+02  0.00000000000E+00 0.  1.
         21   -1    0    0  501  502 -0.00000000000E+00 -0.00000000000E+00 -0.59329374701E+03  0.59329374701E+03  0.00000000000E+00 0.  1.
      99926    2    1    2    0    0  0.00000000000E+00  0.00000000000E+00 -0.50668092091E+03  0.67990657311E+03  0.45337334785E+03 0.  0.
      99925    2    3    3    0    0 -0.36296378892E+02 -0.28659324949E+02 -0.47169111270E+03  0.54202771757E+03  0.26298813050E+03 0.  0.
         25    1    3    3    0    0  0.36296378892E+02  0.28659324949E+02 -0.34989808209E+02  0.13787885554E+03  0.12509000000E+03 0.  0.
         25    1    4    4    0    0 -0.46448841375E+02 -0.34644577814E+02 -0.20267868363E+03  0.24512017162E+03  0.12509000000E+03 0.  0.
         25    1    4    4    0    0  0.10152462483E+02  0.59852528642E+01 -0.26901242907E+03  0.29690754594E+03  0.12509000000E+03 0.  0.
<mgrwt>
<rscale>  2 0.45337335E+03</rscale>
<asrwt>0</asrwt>
<pdfrwt beam="1">  1       21 0.12737180E-01 0.45337335E+03</pdfrwt>
<pdfrwt beam="2">  1       21 0.87249081E-01 0.45337335E+03</pdfrwt>
<totfact> 0.54705298E+04</totfact>
</mgrwt>
</event>
<event>
 7    0  0.4712189E-002  0.4596146E+03  0.7546771E-02  0.1024893E+00
         21   -1    0    0  502  501  0.00000000000E+00  0.00000000000E+00  0.26183058469E+03  0.26183058469E+03  0.00000000000E+00 0.  1.
         21   -1    0    0  501  502 -0.00000000000E+00 -0.00000000000E+00 -0.20170065319E+03  0.20170065319E+03  0.00000000000E+00 0.  1.
      99926    2    1    2    0    0  0.00000000000E+00  0.00000000000E+00  0.60129931502E+02  0.46353123787E+03  0.45961462098E+03 0.  0.
      99925    2    3    3    0    0 -0.11482862356E+03  0.24896572442E+02  0.37448688850E+02  0.29042029375E+03  0.26293742719E+03 0.  0.
         25    1    4    4    0    0 -0.41760312092E+02 -0.25481166824E+02  0.24134445710E+02  0.13646682050E+03  0.12509000000E+03 0.  0.
         25    1    3    3    0    0  0.11482862356E+03 -0.24896572442E+02  0.22681242652E+02  0.17311094412E+03  0.12509000000E+03 0.  0.
         25    1    4    4    0    0 -0.73068311465E+02  0.50377739266E+02  0.13314243140E+02  0.15395347325E+03  0.12509000000E+03 0.  0.
<mgrwt>
<rscale>  2 0.45961462E+03</rscale>
<asrwt>0</asrwt>
<pdfrwt beam="1">  1       21 0.38504498E-01 0.45961462E+03</pdfrwt>
<pdfrwt beam="2">  1       21 0.29661861E-01 0.45961462E+03</pdfrwt>
<totfact> 0.65480835E+04</totfact>
</mgrwt>
</event>
<event>
 7    0  0.4712189E-002  0.4355844E+03  0.7546771E-02  0.1032110E+00
         21   -1    0    0  502  501  0.00000000000E+00  0.00000000000E+00  0.80850725779E+03  0.80850725779E+03  0.00000000000E+00 0.  1.
         21   -1    0    0  501  502 -0.00000000000E+00 -0.00000000000E+00 -0.58667916047E+02  0.58667916047E+02  0.00000000000E+00 0.  1.
      99926    2    1    2    0    0  0.71054273576E-14  0.88817841970E-15  0.74983934174E+03  0.86717517383E+03  0.43558437035E+03 0.  0.
      99925    2    3    3    0    0  0.38325745370E+02  0.61690380989E+01  0.65071882770E+03  0.70292139399E+03  0.26297637463E+03 0.  0.
         25    1    3    3    0    0 -0.38325745370E+02 -0.61690380989E+01  0.99120514035E+02  0.16425377984E+03  0.12509000000E+03 0.  0.
         25    1    4    4    0    0  0.50828032260E+02  0.28231497112E+02  0.32275164196E+03  0.35099378453E+03  0.12509000000E+03 0.  0.
         25    1    4    4    0    0 -0.12502286889E+02 -0.22062459014E+02  0.32796718574E+03  0.35192760946E+03  0.12509000000E+03 0.  0.
<mgrwt>
<rscale>  2 0.43558437E+03</rscale>
<asrwt>0</asrwt>
<pdfrwt beam="1">  1       21 0.11889812E+00 0.43558437E+03</pdfrwt>
<pdfrwt beam="2">  1       21 0.86276352E-02 0.43558437E+03</pdfrwt>
<totfact> 0.52176426E+04</totfact>
</mgrwt>
</event>
<event>
 7    0  0.4712189E-002  0.4653160E+03  0.7546771E-02  0.1023251E+00
         21   -1    0    0  502  501  0.00000000000E+00  0.00000000000E+00  0.10167480079E+03  0.10167480079E+03  0.00000000000E+00 0.  1.
         21   -1    0    0  501  502 -0.00000000000E+00 -0.00000000000E+00 -0.53238114057E+03  0.53238114057E+03  0.00000000000E+00 0.  1.
      99926    2    1    2    0    0 -0.71054273576E-14  0.00000000000E+00 -0.43070633978E+03  0.63405594135E+03  0.46531600621E+03 0.  0.
      99925    2    3    3    0    0 -0.39082646791E+02 -0.59278272442E+02 -0.13212930064E+03  0.30263909920E+03  0.26285148927E+03 0.  0.
         25    1    4    4    0    0 -0.81742187484E+01  0.93195916140E+01 -0.71130157184E+02  0.14443226787E+03  0.12509000000E+03 0.  0.
         25    1    3    3    0    0  0.39082646791E+02  0.59278272442E+02 -0.29857703914E+03  0.33141684216E+03  0.12509000000E+03 0.  0.
         25    1    4    4    0    0 -0.30908428042E+02 -0.68597864056E+02 -0.60999143459E+02  0.15820683133E+03  0.12509000000E+03 0.  0.
<mgrwt>
<rscale>  2 0.46531601E+03</rscale>
<asrwt>0</asrwt>
<pdfrwt beam="1">  1       21 0.14952176E-01 0.46531601E+03</pdfrwt>
<pdfrwt beam="2">  1       21 0.78291345E-01 0.46531601E+03</pdfrwt>
<totfact> 0.52243508E+04</totfact>
</mgrwt>
</event>
<event>
 7    0  0.4712189E-002  0.4542358E+03  0.7546771E-02  0.1026466E+00
         21   -1    0    0  502  501  0.00000000000E+00  0.00000000000E+00  0.20179502966E+03  0.20179502966E+03  0.00000000000E+00 0.  1.
         21   -1    0    0  501  502 -0.00000000000E+00 -0.00000000000E+00 -0.25561852322E+03  0.25561852322E+03  0.00000000000E+00 0.  1.
      99926    2    1    2    0    0  0.00000000000E+00  0.00000000000E+00 -0.53823493562E+02  0.45741355289E+03  0.45423583072E+03 0.  0.
      99925    2    3    3    0    0  0.85661963698E+02  0.63942274254E+02 -0.69131782069E+02  0.29216090311E+03  0.26296806565E+03 0.  0.
         25    1    4    4    0    0  0.22606652766E+01  0.40817606961E+02 -0.27308429182E+02  0.13440404030E+03  0.12509000000E+03 0.  0.
         25    1    4    4    0    0  0.83401298422E+02  0.23124667293E+02 -0.41823352887E+02  0.15775686281E+03  0.12509000000E+03 0.  0.
         25    1    3    3    0    0 -0.85661963698E+02 -0.63942274254E+02  0.15308288507E+02  0.16525264978E+03  0.12509000000E+03 0.  0.
<mgrwt>
<rscale>  2 0.45423583E+03</rscale>
<asrwt>0</asrwt>
<pdfrwt beam="1">  1       21 0.29675740E-01 0.45423583E+03</pdfrwt>
<pdfrwt beam="2">  1       21 0.37590959E-01 0.45423583E+03</pdfrwt>
<totfact> 0.68787663E+04</totfact>
</mgrwt>
</event>
<event>
 7    0  0.4712189E-002  0.4582063E+03  0.7546771E-02  0.1025303E+00
         21   -1    0    0  502  501  0.00000000000E+00  0.00000000000E+00  0.61798107114E+03  0.61798107114E+03  0.00000000000E+00 0.  1.
         21   -1    0    0  501  502 -0.00000000000E+00 -0.00000000000E+00 -0.84935037411E+02  0.84935037411E+02  0.00000000000E+00 0.  1.
      99926    2    1    2    0    0  0.00000000000E+00  0.00000000000E+00  0.53304603373E+03  0.70291610855E+03  0.45820626533E+03 0.  0.
      99925    2    3    3    0    0  0.22475296971E+02 -0.10064528350E+03  0.41612674435E+03  0.50303554323E+03  0.26315143611E+03 0.  0.
         25    1    4    4    0    0 -0.31242820316E+01 -0.12936935620E+02  0.15755523695E+03  0.20161420147E+03  0.12509000000E+03 0.  0.
         25    1    4    4    0    0  0.25599579003E+02 -0.87708347882E+02  0.25857150739E+03  0.30142134176E+03  0.12509000000E+03 0.  0.
         25    1    3    3    0    0 -0.22475296971E+02  0.10064528350E+03  0.11691928938E+03  0.19988056533E+03  0.12509000000E+03 0.  0.
<mgrwt>
<rscale>  2 0.45820627E+03</rscale>
<asrwt>0</asrwt>
<pdfrwt beam="1">  1       21 0.90879567E-01 0.45820627E+03</pdfrwt>
<pdfrwt beam="2">  1       21 0.12490447E-01 0.45820627E+03</pdfrwt>
<totfact> 0.51434830E+04</totfact>
</mgrwt>
</event>
<event>
 7    0  0.4712189E-002  0.4562727E+03  0.7546771E-02  0.1025868E+00
         21   -1    0    0  502  501  0.00000000000E+00  0.00000000000E+00  0.10418635676E+03  0.10418635676E+03  0.00000000000E+00 0.  1.
         21   -1    0    0  501  502 -0.00000000000E+00 -0.00000000000E+00 -0.49954902372E+03  0.49954902372E+03  0.00000000000E+00 0.  1.
      99926    2    1    2    0    0 -0.88817841970E-15  0.00000000000E+00 -0.39536266696E+03  0.60373538048E+03  0.45627269392E+03 0.  0.
      99925    2    3    3    0    0 -0.44986400691E+01 -0.54454061953E+02 -0.38162438951E+03  0.46654306659E+03  0.26275421154E+03 0.  0.
         25    1    4    4    0    0  0.19659721227E+02 -0.24844326588E+02 -0.24797429488E+03  0.27953980794E+03  0.12509000000E+03 0.  0.
         25    1    4    4    0    0 -0.24158361296E+02 -0.29609735365E+02 -0.13365009463E+03  0.18700325865E+03  0.12509000000E+03 0.  0.
         25    1    3    3    0    0  0.44986400691E+01  0.54454061953E+02 -0.13738277452E+02  0.13719231390E+03  0.12509000000E+03 0.  0.
<mgrwt>
<rscale>  2 0.45627269E+03</rscale>
<asrwt>0</asrwt>
<pdfrwt beam="1">  1       21 0.15321523E-01 0.45627269E+03</pdfrwt>
<pdfrwt beam="2">  1       21 0.73463092E-01 0.45627269E+03</pdfrwt>
<totfact> 0.57864911E+04</totfact>
</mgrwt>
</event>
<event>
 7    0  0.4712189E-002  0.4648445E+03  0.7546771E-02  0.1023385E+00
         21   -1    0    0  502  501  0.00000000000E+00  0.00000000000E+00  0.77693113449E+03  0.77693113449E+03  0.00000000000E+00 0. -1.
         21   -1    0    0  501  502 -0.00000000000E+00 -0.00000000000E+00 -0.69530095960E+02  0.69530095960E+02  0.00000000000E+00 0. -1.
      99926    2    1    2    0    0  0.00000000000E+00 -0.71054273576E-14  0.70740103853E+03  0.84646123045E+03  0.46484447436E+03 0.  0.
      99925    2    3    3    0    0 -0.68384304209E+02 -0.63293045962E+02  0.58527726785E+03  0.64835987711E+03  0.26294225081E+03 0.  0.
         25    1    4    4    0    0 -0.31481693583E+02 -0.53984766747E+02  0.22305478359E+03  0.26326108078E+03  0.12509000000E+03 0.  0.
         25    1    3    3    0    0  0.68384304209E+02  0.63293045962E+02  0.12212377068E+03  0.19810135334E+03  0.12509000000E+03 0.  0.
         25    1    4    4    0    0 -0.36902610626E+02 -0.93082792148E+01  0.36222248426E+03  0.38509879633E+03  0.12509000000E+03 0.  0.
<mgrwt>
<rscale>  2 0.46484447E+03</rscale>
<asrwt>0</asrwt>
<pdfrwt beam="1">  1       21 0.11425457E+00 0.46484447E+03</pdfrwt>
<pdfrwt beam="2">  1       21 0.10225015E-01 0.46484447E+03</pdfrwt>
<totfact> 0.42240153E+04</totfact>
</mgrwt>
</event>
<event>
 7    0  0.4712189E-002  0.4384423E+03  0.7546771E-02  0.1031226E+00
         21   -1    0    0  502  501  0.00000000000E+00  0.00000000000E+00  0.53668285938E+02  0.53668285938E+02  0.00000000000E+00 0.  1.
         21   -1    0    0  501  502 -0.00000000000E+00 -0.00000000000E+00 -0.89546183329E+03  0.89546183329E+03  0.00000000000E+00 0.  1.
      99926    2    1    2    0    0 -0.17763568394E-14  0.14210854715E-13 -0.84179354735E+03  0.94913011922E+03  0.43844225032E+03 0.  0.
      99925    2    3    3    0    0 -0.15553201966E+02 -0.79641578748E+02 -0.43086931909E+03  0.51199065335E+03  0.26438868324E+03 0.  0.
         25    1    4    4    0    0  0.89171631595E+01 -0.14367634731E+01 -0.22418732796E+03  0.25688333189E+03  0.12509000000E+03 0.  0.
         25    1    4    4    0    0 -0.24470365126E+02 -0.78204815275E+02 -0.20668199113E+03  0.25510732146E+03  0.12509000000E+03 0.  0.
         25    1    3    3    0    0  0.15553201966E+02  0.79641578748E+02 -0.41092422826E+03  0.43713946587E+03  0.12509000000E+03 0.  0.
<mgrwt>
<rscale>  2 0.43844225E+03</rscale>
<asrwt>0</asrwt>
<pdfrwt beam="1">  1       21 0.78923956E-02 0.43844225E+03</pdfrwt>
<pdfrwt beam="2">  1       21 0.13168555E+00 0.43844225E+03</pdfrwt>
<totfact> 0.46968896E+04</totfact>
</mgrwt>
</event>
<event>
 7    0  0.4712189E-002  0.4553447E+03  0.7546771E-02  0.1026140E+00
         21   -1    0    0  502  501  0.00000000000E+00  0.00000000000E+00  0.96972036756E+02  0.96972036756E+02  0.00000000000E+00 0.  1.
         21   -1    0    0  501  502 -0.00000000000E+00 -0.00000000000E+00 -0.53453248822E+03  0.53453248822E+03  0.00000000000E+00 0.  1.
      99926    2    1    2    0    0  0.00000000000E+00  0.00000000000E+00 -0.43756045146E+03  0.63150452497E+03  0.45534472258E+03 0.  0.
      99925    2    3    3    0    0  0.10439115942E+03 -0.42281080779E+02 -0.29533572259E+03  0.41113986002E+03  0.26292126484E+03 0.  0.
         25    1    4    4    0    0  0.15760852436E+02 -0.41049402989E+02 -0.13091994404E+03  0.18633571263E+03  0.12509000000E+03 0.  0.
         25    1    3    3    0    0 -0.10439115942E+03  0.42281080779E+02 -0.14222472886E+03  0.22036466495E+03  0.12509000000E+03 0.  0.
         25    1    4    4    0    0  0.88630306982E+02 -0.12316777898E+01 -0.16441577856E+03  0.22480414739E+03  0.12509000000E+03 0.  0.
<mgrwt>
<rscale>  2 0.45534472E+03</rscale>
<asrwt>0</asrwt>
<pdfrwt beam="1">  1       21 0.14260594E-01 0.45534472E+03</pdfrwt>
<pdfrwt beam="2">  1       21 0.78607719E-01 0.45534472E+03</pdfrwt>
<totfact> 0.56625556E+04</totfact>
</mgrwt>
</event>
<event>
 7    0  0.4712189E-002  0.4396728E+03  0.7546771E-02  0.1030847E+00
         21   -1    0    0  502  501  0.00000000000E+00  0.00000000000E+00  0.12624028645E+03  0.12624028645E+03  0.00000000000E+00 0.  1.
         21   -1    0    0  501  502 -0.00000000000E+00 -0.00000000000E+00 -0.38282574674E+03  0.38282574674E+03  0.00000000000E+00 0.  1.
      99926    2    1    2    0    0 -0.17763568394E-14  0.00000000000E+00 -0.25658546029E+03  0.50906603318E+03  0.43967275070E+03 0.  0.
      99925    2    3    3    0    0 -0.14537765358E+02 -0.91096449329E+02 -0.12496170203E+03  0.30539416094E+03  0.26294534957E+03 0.  0.
         25    1    4    4    0    0 -0.46312082394E+02 -0.35051302155E+02 -0.64292366512E+02  0.15216576241E+03  0.12509000000E+03 0.  0.
         25    1    3    3    0    0  0.14537765358E+02  0.91096449329E+02 -0.13162375826E+03  0.20367187224E+03  0.12509000000E+03 0.  0.
         25    1    4    4    0    0  0.31774317036E+02 -0.56045147175E+02 -0.60669335516E+02  0.15322839853E+03  0.12509000000E+03 0.  0.
<mgrwt>
<rscale>  2 0.43967275E+03</rscale>
<asrwt>0</asrwt>
<pdfrwt beam="1">  1       21 0.18564748E-01 0.43967275E+03</pdfrwt>
<pdfrwt beam="2">  1       21 0.56297903E-01 0.43967275E+03</pdfrwt>
<totfact> 0.73134794E+04</totfact>
</mgrwt>
</event>
<event>
 7    0  0.4712189E-002  0.4525004E+03  0.7546771E-02  0.1026979E+00
         21   -1    0    0  502  501  0.00000000000E+00  0.00000000000E+00  0.68972352879E+02  0.68972352879E+02  0.00000000000E+00 0.  1.
         21   -1    0    0  501  502 -0.00000000000E+00 -0.00000000000E+00 -0.74216912442E+03  0.74216912442E+03  0.00000000000E+00 0.  1.
      99926    2    1    2    0    0  0.00000000000E+00  0.71054273576E-14 -0.67319677154E+03  0.81114147730E+03  0.45250039004E+03 0.  0.
      99925    2    3    3    0    0 -0.14357082924E+02 -0.60813488931E+02 -0.58850969007E+03  0.64766727097E+03  0.26310612368E+03 0.  0.
         25    1    3    3    0    0  0.14357082924E+02  0.60813488931E+02 -0.84687081473E+02  0.16347420633E+03  0.12509000000E+03 0.  0.
         25    1    4    4    0    0  0.10310372130E+02  0.49872345230E+01 -0.24286049833E+03  0.27342257776E+03  0.12509000000E+03 0.  0.
         25    1    4    4    0    0 -0.24667455054E+02 -0.65800723454E+02 -0.34564919174E+03  0.37424469321E+03  0.12509000000E+03 0.  0.
<mgrwt>
<rscale>  2 0.45250039E+03</rscale>
<asrwt>0</asrwt>
<pdfrwt beam="1">  1       21 0.10142992E-01 0.45250039E+03</pdfrwt>
<pdfrwt beam="2">  1       21 0.10914253E+00 0.45250039E+03</pdfrwt>
<totfact> 0.48168516E+04</totfact>
</mgrwt>
</event>
<event>
 7    0  0.4712189E-002  0.4498093E+03  0.7546771E-02  0.1027779E+00
         21   -1    0    0  502  501  0.00000000000E+00  0.00000000000E+00  0.21297501615E+03  0.21297501615E+03  0.00000000000E+00 0.  1.
         21   -1    0    0  501  502 -0.00000000000E+00 -0.00000000000E+00 -0.23750250802E+03  0.23750250802E+03  0.00000000000E+00 0.  1.
      99926    2    1    2    0    0  0.00000000000E+00  0.00000000000E+00 -0.24527491872E+02  0.45047752417E+03  0.44980929506E+03 0.  0.
      99925    2    3    3    0    0  0.46892527360E+02  0.97485025230E+02 -0.15628342840E+02  0.28486067050E+03  0.26305725086E+03 0.  0.
         25    1    4    4    0    0  0.24671791004E+02  0.82989866168E+02 -0.33416586305E+02  0.15575683452E+03  0.12509000000E+03 0.  0.
         25    1    4    4    0    0  0.22220736356E+02  0.14495159061E+02  0.17788243465E+02  0.12910383598E+03  0.12509000000E+03 0.  0.
         25    1    3    3    0    0 -0.46892527360E+02 -0.97485025230E+02 -0.88991490318E+01  0.16561685367E+03  0.12509000000E+03 0.  0.
<mgrwt>
<rscale>  2 0.44980930E+03</rscale>
<asrwt>0</asrwt>
<pdfrwt beam="1">  1       21 0.31319855E-01 0.44980930E+03</pdfrwt>
<pdfrwt beam="2">  1       21 0.34926839E-01 0.44980930E+03</pdfrwt>
<totfact> 0.71806577E+04</totfact>
</mgrwt>
</event>
<event>
 7    0  0.4712189E-002  0.4545998E+03  0.7546771E-02  0.1026359E+00
         21   -1    0    0  502  501  0.00000000000E+00  0.00000000000E+00  0.18293437652E+02  0.18293437652E+02  0.00000000000E+00 0.  1.
         21   -1    0    0  501  502 -0.00000000000E+00 -0.00000000000E+00 -0.28242503049E+04  0.28242503049E+04  0.00000000000E+00 0.  1.
      99926    2    1    2    0    0  0.00000000000E+00  0.00000000000E+00 -0.28059568673E+04  0.28425437426E+04  0.45459981024E+03 0.  0.
      99925    2    3    3    0    0  0.32790283636E+02 -0.99003985303E+02 -0.20341452176E+04  0.20537359571E+04  0.26307341801E+03 0.  0.
         25    1    4    4    0    0  0.89838217015E+01 -0.20108410601E+02 -0.11497617736E+04  0.11567561115E+04  0.12509000000E+03 0.  0.
         25    1    3    3    0    0 -0.32790283636E+02  0.99003985303E+02 -0.77181164964E+03  0.78880778548E+03  0.12509000000E+03 0.  0.
         25    1    4    4    0    0  0.23806461935E+02 -0.78895574701E+02 -0.88438344403E+03  0.89697984565E+03  0.12509000000E+03 0.  0.
<mgrwt>
<rscale>  2 0.45459981E+03</rscale>
<asrwt>0</asrwt>
<pdfrwt beam="1">  1       21 0.26902120E-02 0.45459981E+03</pdfrwt>
<pdfrwt beam="2">  1       21 0.41533084E+00 0.45459981E+03</pdfrwt>
<totfact> 0.42369067E+03</totfact>
</mgrwt>
</event>
<event>
 7    0  0.4712189E-002  0.4525812E+03  0.7546771E-02  0.1026955E+00
         21   -1    0    0  502  501  0.00000000000E+00  0.00000000000E+00  0.82884312688E+03  0.82884312688E+03  0.00000000000E+00 0.  1.
         21   -1    0    0  501  502 -0.00000000000E+00 -0.00000000000E+00 -0.61781810979E+02  0.61781810979E+02  0.00000000000E+00 0.  1.
      99926    2    1    2    0    0  0.00000000000E+00 -0.71054273576E-14  0.76706131590E+03  0.89062493786E+03  0.45258117237E+03 0.  0.
      99925    2    3    3    0    0 -0.10275973062E+03 -0.40193508884E+02  0.46193290380E+03  0.54288087053E+03  0.26298774036E+03 0.  0.
         25    1    4    4    0    0 -0.21852381499E+02 -0.50147752402E+01  0.15968773221E+03  0.20408418475E+03  0.12509000000E+03 0.  0.
         25    1    4    4    0    0 -0.80907349120E+02 -0.35178733644E+02  0.30224517159E+03  0.33879668578E+03  0.12509000000E+03 0.  0.
         25    1    3    3    0    0  0.10275973062E+03  0.40193508884E+02  0.30512841210E+03  0.34774406733E+03  0.12509000000E+03 0.  0.
<mgrwt>
<rscale>  2 0.45258117E+03</rscale>
<asrwt>0</asrwt>
<pdfrwt beam="1">  1       21 0.12188869E+00 0.45258117E+03</pdfrwt>
<pdfrwt beam="2">  1       21 0.90855609E-02 0.45258117E+03</pdfrwt>
<totfact> 0.44477998E+04</totfact>
</mgrwt>
</event>
<event>
 7    0  0.4712189E-002  0.4692965E+03  0.7546771E-02  0.1022119E+00
         21   -1    0    0  502  501  0.00000000000E+00  0.00000000000E+00  0.23388930264E+03  0.23388930264E+03  0.00000000000E+00 0.  1.
         21   -1    0    0  501  502 -0.00000000000E+00 -0.00000000000E+00 -0.23540964939E+03  0.23540964939E+03  0.00000000000E+00 0.  1.
      99926    2    1    2    0    0  0.00000000000E+00  0.71054273576E-14 -0.15203467521E+01  0.46929895203E+03  0.46929648936E+03 0.  0.
      99925    2    3    3    0    0 -0.97012144393E+02  0.52149489014E+02  0.60508013402E+02  0.29146208598E+03  0.26297909140E+03 0.  0.
         25    1    4    4    0    0 -0.21091626059E+02  0.16857750097E+02 -0.32047325485E+01  0.12801101062E+03  0.12509000000E+03 0.  0.
         25    1    4    4    0    0 -0.75920518334E+02  0.35291738917E+02  0.63712745951E+02  0.16345107536E+03  0.12509000000E+03 0.  0.
         25    1    3    3    0    0  0.97012144393E+02 -0.52149489014E+02 -0.62028360154E+02  0.17783686605E+03  0.12509000000E+03 0.  0.
<mgrwt>
<rscale>  2 0.46929649E+03</rscale>
<asrwt>0</asrwt>
<pdfrwt beam="1">  1       21 0.34395486E-01 0.46929649E+03</pdfrwt>
<pdfrwt beam="2">  1       21 0.34619066E-01 0.46929649E+03</pdfrwt>
<totfact> 0.60329521E+04</totfact>
</mgrwt>
</event>
<event>
 7    0  0.4712189E-002  0.4400642E+03  0.7546771E-02  0.1030727E+00
         21   -1    0    0  502  501  0.00000000000E+00  0.00000000000E+00  0.11564538745E+03  0.11564538745E+03  0.00000000000E+00 0.  1.
         21   -1    0    0  501  502 -0.00000000000E+00 -0.00000000000E+00 -0.41864302308E+03  0.41864302308E+03  0.00000000000E+00 0.  1.
      99926    2    1    2    0    0  0.00000000000E+00  0.17763568394E-14 -0.30299763563E+03  0.53428841053E+03  0.44006424352E+03 0.  0.
      99925    2    3    3    0    0 -0.96489665994E+02  0.11745972549E+02 -0.21248102448E+03  0.35183570842E+03  0.26304363979E+03 0.  0.
         25    1    4    4    0    0 -0.69889661054E+02 -0.25199287545E+02 -0.13090361649E+03  0.19571109761E+03  0.12509000000E+03 0.  0.
         25    1    4    4    0    0 -0.26600004940E+02  0.36945260094E+02 -0.81577407989E+02  0.15612461081E+03  0.12509000000E+03 0.  0.
         25    1    3    3    0    0  0.96489665994E+02 -0.11745972549E+02 -0.90516611144E+02  0.18245270211E+03  0.12509000000E+03 0.  0.
<mgrwt>
<rscale>  2 0.44006424E+03</rscale>
<asrwt>0</asrwt>
<pdfrwt beam="1">  1       21 0.17006675E-01 0.44006424E+03</pdfrwt>
<pdfrwt beam="2">  1       21 0.61565150E-01 0.44006424E+03</pdfrwt>
<totfact> 0.70938223E+04</totfact>
</mgrwt>
</event>
<event>
 7    0  0.4712189E-002  0.4533761E+03  0.7546771E-02  0.1026720E+00
         21   -1    0    0  502  501  0.00000000000E+00  0.00000000000E+00  0.47109314005E+02  0.47109314005E+02  0.00000000000E+00 0.  1.
         21   -1    0    0  501  502 -0.00000000000E+00 -0.00000000000E+00 -0.10908133336E+04  0.10908133336E+04  0.00000000000E+00 0.  1.
      99926    2    1    2    0    0 -0.17763568394E-14  0.00000000000E+00 -0.10437040196E+04  0.11379226476E+04  0.45337608165E+03 0.  0.
      99925    2    3    3    0    0  0.47260687252E+01 -0.31833161053E+02 -0.38934447284E+03  0.47093718269E+03  0.26297723409E+03 0.  0.
         25    1    3    3    0    0 -0.47260687252E+01  0.31833161053E+02 -0.65435954676E+03  0.66698546491E+03  0.12509000000E+03 0.  0.
         25    1    4    4    0    0  0.41872232762E+02 -0.21375916487E+02 -0.20959039129E+03  0.24856760429E+03  0.12509000000E+03 0.  0.
         25    1    4    4    0    0 -0.37146164037E+02 -0.10457244566E+02 -0.17975408154E+03  0.22236957840E+03  0.12509000000E+03 0.  0.
<mgrwt>
<rscale>  2 0.45337608E+03</rscale>
<asrwt>0</asrwt>
<pdfrwt beam="1">  1       21 0.69278414E-02 0.45337608E+03</pdfrwt>
<pdfrwt beam="2">  1       21 0.16041370E+00 0.45337608E+03</pdfrwt>
<totfact> 0.34624378E+04</totfact>
</mgrwt>
</event>
<event>
 7    0  0.4712189E-002  0.4261075E+03  0.7546771E-02  0.1035097E+00
         21   -1    0    0  502  501  0.00000000000E+00  0.00000000000E+00  0.67327606522E+02  0.67327606522E+02  0.00000000000E+00 0. -1.
         21   -1    0    0  501  502 -0.00000000000E+00 -0.00000000000E+00 -0.67419433630E+03  0.67419433630E+03  0.00000000000E+00 0. -1.
      99926    2    1    2    0    0  0.00000000000E+00  0.00000000000E+00 -0.60686672978E+03  0.74152194282E+03  0.42610745590E+03 0.  0.
      99925    2    3    3    0    0  0.19852489153E+02  0.29339875440E+02 -0.26189971976E+03  0.37286940219E+03  0.26303075535E+03 0.  0.
         25    1    3    3    0    0 -0.19852489153E+02 -0.29339875440E+02 -0.34496701002E+03  0.36865254064E+03  0.12509000000E+03 0.  0.
         25    1    4    4    0    0  0.23657055182E+02  0.27661411917E+01 -0.79648525023E+02  0.15019555065E+03  0.12509000000E+03 0.  0.
         25    1    4    4    0    0 -0.38045660291E+01  0.26573734248E+02 -0.18225119474E+03  0.22267385154E+03  0.12509000000E+03 0.  0.
<mgrwt>
<rscale>  2 0.42610746E+03</rscale>
<asrwt>0</asrwt>
<pdfrwt beam="1">  1       21 0.99011194E-02 0.42610746E+03</pdfrwt>
<pdfrwt beam="2">  1       21 0.99146218E-01 0.42610746E+03</pdfrwt>
<totfact> 0.64063106E+04</totfact>
</mgrwt>
</event>
<event>
 7    0  0.4712189E-002  0.4612648E+03  0.7546771E-02  0.1024415E+00
         21   -1    0    0  502  501  0.00000000000E+00  0.00000000000E+00  0.67805688248E+03  0.67805688248E+03  0.00000000000E+00 0.  1.
         21   -1    0    0  501  502 -0.00000000000E+00 -0.00000000000E+00 -0.78446669792E+02  0.78446669792E+02  0.00000000000E+00 0.  1.
      99926    2    1    2    0    0  0.00000000000E+00  0.00000000000E+00  0.59961021269E+03  0.75650355227E+03  0.46126480186E+03 0.  0.
      99925    2    3    3    0    0  0.97154251735E+02 -0.21802057633E+02  0.48209895642E+03  0.55808308509E+03  0.26291262376E+03 0.  0.
         25    1    3    3    0    0 -0.97154251735E+02  0.21802057633E+02  0.11751125626E+03  0.19842046718E+03  0.12509000000E+03 0.  0.
         25    1    4    4    0    0  0.50387931825E+02 -0.19796324322E+02  0.16508698089E+03  0.21408422989E+03  0.12509000000E+03 0.  0.
         25    1    4    4    0    0  0.46766319910E+02 -0.20057333108E+01  0.31701197554E+03  0.34399885520E+03  0.12509000000E+03 0.  0.
<mgrwt>
<rscale>  2 0.46126480E+03</rscale>
<asrwt>0</asrwt>
<pdfrwt beam="1">  1       21 0.99714244E-01 0.46126480E+03</pdfrwt>
<pdfrwt beam="2">  1       21 0.11536275E-01 0.46126480E+03</pdfrwt>
<totfact> 0.47555511E+04</totfact>
</mgrwt>
</event>
<event>
 7    0  0.4712189E-002  0.4529639E+03  0.7546771E-02  0.1026842E+00
         21   -1    0    0  502  501  0.00000000000E+00  0.00000000000E+00  0.44860396044E+03  0.44860396044E+03  0.00000000000E+00 0.  1.
         21   -1    0    0  501  502 -0.00000000000E+00 -0.00000000000E+00 -0.11434153167E+03  0.11434153167E+03  0.00000000000E+00 0.  1.
      99926    2    1    2    0    0  0.00000000000E+00  0.00000000000E+00  0.33426242876E+03  0.56294549211E+03  0.45296385706E+03 0.  0.
      99925    2    3    3    0    0 -0.65303722162E+02 -0.85261219135E+02  0.17474296908E+03  0.33353751985E+03  0.26301733838E+03 0.  0.
         25    1    4    4    0    0 -0.22187884383E+02 -0.15212287005E+01  0.68846226761E+02  0.14450580400E+03  0.12509000000E+03 0.  0.
         25    1    3    3    0    0  0.65303722162E+02  0.85261219135E+02  0.15951945969E+03  0.22940797226E+03  0.12509000000E+03 0.  0.
         25    1    4    4    0    0 -0.43115837779E+02 -0.83739990434E+02  0.10589674232E+03  0.18903171585E+03  0.12509000000E+03 0.  0.
<mgrwt>
<rscale>  2 0.45296386E+03</rscale>
<asrwt>0</asrwt>
<pdfrwt beam="1">  1       21 0.65971170E-01 0.45296386E+03</pdfrwt>
<pdfrwt beam="2">  1       21 0.16814931E-01 0.45296386E+03</pdfrwt>
<totfact> 0.62011724E+04</totfact>
</mgrwt>
</event>
<event>
 7    0  0.4712189E-002  0.4767804E+03  0.7546771E-02  0.1020024E+00
         21   -1    0    0  502  501  0.00000000000E+00  0.00000000000E+00  0.72327640212E+02  0.72327640212E+02  0.00000000000E+00 0. -1.
         21   -1    0    0  501  502 -0.00000000000E+00 -0.00000000000E+00 -0.78572852136E+03  0.78572852136E+03  0.00000000000E+00 0. -1.
      99926    2    1    2    0    0 -0.14210854715E-13  0.00000000000E+00 -0.71340088114E+03  0.85805616157E+03  0.47678040982E+03 0.  0.
      99925    2    3    3    0    0 -0.87451731912E+02 -0.95370490719E+02 -0.49215674771E+03  0.57285481060E+03  0.26306089371E+03 0.  0.
         25    1    4    4    0    0 -0.83203822338E+02 -0.67748982126E+02 -0.26670788704E+03  0.31351779175E+03  0.12509000000E+03 0.  0.
         25    1    4    4    0    0 -0.42479095731E+01 -0.27621508592E+02 -0.22544886066E+03  0.25933701885E+03  0.12509000000E+03 0.  0.
         25    1    3    3    0    0  0.87451731912E+02  0.95370490719E+02 -0.22124413344E+03  0.28520135097E+03  0.12509000000E+03 0.  0.
<mgrwt>
<rscale>  2 0.47678041E+03</rscale>
<asrwt>0</asrwt>
<pdfrwt beam="1">  1       21 0.10636418E-01 0.47678041E+03</pdfrwt>
<pdfrwt beam="2">  1       21 0.11554831E+00 0.47678041E+03</pdfrwt>
<totfact> 0.38135831E+04</totfact>
</mgrwt>
</event>
<event>
 7    0  0.4712189E-002  0.4666861E+03  0.7546771E-02  0.1022860E+00
         21   -1    0    0  502  501  0.00000000000E+00  0.00000000000E+00  0.23096128236E+04  0.23096128236E+04  0.00000000000E+00 0. -1.
         21   -1    0    0  501  502 -0.00000000000E+00 -0.00000000000E+00 -0.23574934754E+02  0.23574934754E+02  0.00000000000E+00 0. -1.
      99926    2    1    2    0    0  0.00000000000E+00  0.44408920985E-15  0.22860378888E+04  0.23331877583E+04  0.46668606845E+03 0.  0.
      99925    2    3    3    0    0 -0.11820472352E+03 -0.34541422914E+01  0.16075567891E+04  0.16332103312E+04  0.26296932878E+03 0.  0.
         25    1    4    4    0    0 -0.92463420850E+02 -0.61758551928E+01  0.73084264974E+03  0.74723899267E+03  0.12509000000E+03 0.  0.
         25    1    4    4    0    0 -0.25741302666E+02  0.27217129014E+01  0.87671413936E+03  0.88597133850E+03  0.12509000000E+03 0.  0.
         25    1    3    3    0    0  0.11820472352E+03  0.34541422914E+01  0.67848109969E+03  0.69997742714E+03  0.12509000000E+03 0.  0.
<mgrwt>
<rscale>  2 0.46668607E+03</rscale>
<asrwt>0</asrwt>
<pdfrwt beam="1">  1       21 0.33964879E+00 0.46668607E+03</pdfrwt>
<pdfrwt beam="2">  1       21 0.34669038E-02 0.46668607E+03</pdfrwt>
<totfact> 0.82207635E+03</totfact>
</mgrwt>
</event>
<event>
 7    0  0.4712189E-002  0.4567191E+03  0.7546771E-02  0.1025737E+00
         21   -1    0    0  502  501  0.00000000000E+00  0.00000000000E+00  0.15579022805E+04  0.15579022805E+04  0.00000000000E+00 0. -1.
         21   -1    0    0  501  502 -0.00000000000E+00 -0.00000000000E+00 -0.33473273062E+02  0.33473273062E+02  0.00000000000E+00 0. -1.
      99926    2    1    2    0    0  0.00000000000E+00 -0.14210854715E-13  0.15244290074E+04  0.15913755536E+04  0.45671911910E+03 0.  0.
      99925    2    3    3    0    0 -0.72335956547E+02 -0.66731550502E+02  0.11633192867E+04  0.11967449302E+04  0.26306097112E+03 0.  0.
         25    1    4    4    0    0 -0.64294912626E+02 -0.27396968214E+02  0.73073941550E+03  0.74465564600E+03  0.12509000000E+03 0.  0.
         25    1    3    3    0    0  0.72335956547E+02  0.66731550502E+02  0.36110972070E+03  0.39463062340E+03  0.12509000000E+03 0.  0.
         25    1    4    4    0    0 -0.80410439217E+01 -0.39334582289E+02  0.43257987125E+03  0.45208928417E+03  0.12509000000E+03 0.  0.
<mgrwt>
<rscale>  2 0.45671912E+03</rscale>
<asrwt>0</asrwt>
<pdfrwt beam="1">  1       21 0.22910323E+00 0.45671912E+03</pdfrwt>
<pdfrwt beam="2">  1       21 0.49225412E-02 0.45671912E+03</pdfrwt>
<totfact> 0.21339092E+04</totfact>
</mgrwt>
</event>
<event>
 7    0  0.4712189E-002  0.4537181E+03  0.7546771E-02  0.1026619E+00
         21   -1    0    0  502  501  0.00000000000E+00  0.00000000000E+00  0.24770227130E+03  0.24770227130E+03  0.00000000000E+00 0.  1.
         21   -1    0    0  501  502 -0.00000000000E+00 -0.00000000000E+00 -0.20776972270E+03  0.20776972270E+03  0.00000000000E+00 0.  1.
      99926    2    1    2    0    0  0.35527136788E-14 -0.14210854715E-13  0.39932548604E+02  0.45547199400E+03  0.45371811610E+03 0.  0.
      99925    2    3    3    0    0  0.28023287967E+02  0.92405444177E+02 -0.31658256214E+02  0.28198763673E+03  0.26304127300E+03 0.  0.
         25    1    4    4    0    0  0.39059257858E+02  0.19476520866E+02 -0.33897800738E+02  0.13675353555E+03  0.12509000000E+03 0.  0.
         25    1    4    4    0    0 -0.11035969892E+02  0.72928923311E+02  0.22395445248E+01  0.14523410118E+03  0.12509000000E+03 0.  0.
         25    1    3    3    0    0 -0.28023287967E+02 -0.92405444177E+02  0.71590804818E+02  0.17348435727E+03  0.12509000000E+03 0.  0.
<mgrwt>
<rscale>  2 0.45371812E+03</rscale>
<asrwt>0</asrwt>
<pdfrwt beam="1">  1       21 0.36426805E-01 0.45371812E+03</pdfrwt>
<pdfrwt beam="2">  1       21 0.30554371E-01 0.45371812E+03</pdfrwt>
<totfact> 0.69216471E+04</totfact>
</mgrwt>
</event>
<event>
 7    0  0.4712189E-002  0.4592322E+03  0.7546771E-02  0.1025004E+00
         21   -1    0    0  502  501  0.00000000000E+00  0.00000000000E+00  0.54879130358E+02  0.54879130358E+02  0.00000000000E+00 0.  1.
         21   -1    0    0  501  502 -0.00000000000E+00 -0.00000000000E+00 -0.96072132672E+03  0.96072132672E+03  0.00000000000E+00 0.  1.
      99926    2    1    2    0    0  0.00000000000E+00  0.00000000000E+00 -0.90584219637E+03  0.10156004571E+04  0.45923218932E+03 0.  0.
      99925    2    3    3    0    0 -0.82015020981E+02 -0.29191898147E+02 -0.74087253141E+03  0.79100943090E+03  0.26310678706E+03 0.  0.
         25    1    4    4    0    0 -0.63112011287E+02  0.73595262308E+00 -0.47201358453E+03  0.49236977941E+03  0.12509000000E+03 0.  0.
         25    1    3    3    0    0  0.82015020981E+02  0.29191898147E+02 -0.16496966496E+03  0.22459102618E+03  0.12509000000E+03 0.  0.
         25    1    4    4    0    0 -0.18903009694E+02 -0.29927850770E+02 -0.26885894688E+03  0.29863965150E+03  0.12509000000E+03 0.  0.
<mgrwt>
<rscale>  2 0.45923219E+03</rscale>
<asrwt>0</asrwt>
<pdfrwt beam="1">  1       21 0.80704613E-02 0.45923219E+03</pdfrwt>
<pdfrwt beam="2">  1       21 0.14128253E+00 0.45923219E+03</pdfrwt>
<totfact> 0.37316909E+04</totfact>
</mgrwt>
</event>
<event>
 7    0  0.4712189E-002  0.4621262E+03  0.7546771E-02  0.1024166E+00
         21   -1    0    0  502  501  0.00000000000E+00  0.00000000000E+00  0.69923533611E+03  0.69923533611E+03  0.00000000000E+00 0.  1.
         21   -1    0    0  501  502 -0.00000000000E+00 -0.00000000000E+00 -0.76355047494E+02  0.76355047494E+02  0.00000000000E+00 0.  1.
      99926    2    1    2    0    0  0.00000000000E+00  0.00000000000E+00  0.62288028861E+03  0.77559038360E+03  0.46212616155E+03 0.  0.
      99925    2    3    3    0    0 -0.60886233726E+02 -0.92536262475E+02  0.46572844420E+03  0.54621230349E+03  0.26301103289E+03 0.  0.
         25    1    3    3    0    0  0.60886233726E+02  0.92536262475E+02  0.15715184441E+03  0.22937808010E+03  0.12509000000E+03 0.  0.
         25    1    4    4    0    0 -0.11890206918E+02 -0.72427368966E+02  0.28859602580E+03  0.32298958962E+03  0.12509000000E+03 0.  0.
         25    1    4    4    0    0 -0.48996026808E+02 -0.20108893510E+02  0.17713241840E+03  0.22322271388E+03  0.12509000000E+03 0.  0.
<mgrwt>
<rscale>  2 0.46212616E+03</rscale>
<asrwt>0</asrwt>
<pdfrwt beam="1">  1       21 0.10282872E+00 0.46212616E+03</pdfrwt>
<pdfrwt beam="2">  1       21 0.11228684E-01 0.46212616E+03</pdfrwt>
<totfact> 0.46322176E+04</totfact>
</mgrwt>
</event>
<event>
 7    0  0.4712189E-002  0.4560812E+03  0.7546771E-02  0.1025924E+00
         21   -1    0    0  502  501  0.00000000000E+00  0.00000000000E+00  0.71865604357E+03  0.71865604357E+03  0.00000000000E+00 0. -1.
         21   -1    0    0  501  502 -0.00000000000E+00 -0.00000000000E+00 -0.72360777210E+02  0.72360777210E+02  0.00000000000E+00 0. -1.
      99926    2    1    2    0    0 -0.71054273576E-14  0.00000000000E+00  0.64629526636E+03  0.79101682078E+03  0.45608117637E+03 0.  0.
      99925    2    3    3    0    0  0.52235649583E+02  0.32271437612E+02  0.57310443152E+03  0.63361791615E+03  0.26315958176E+03 0.  0.
         25    1    3    3    0    0 -0.52235649583E+02 -0.32271437612E+02  0.73190834843E+02  0.15739890463E+03  0.12509000000E+03 0.  0.
         25    1    4    4    0    0  0.58825691187E+02  0.38426552745E+02  0.27416877214E+03  0.30943995478E+03  0.12509000000E+03 0.  0.
         25    1    4    4    0    0 -0.65900416040E+01 -0.61551151338E+01  0.29893565938E+03  0.32417796137E+03  0.12509000000E+03 0.  0.
<mgrwt>
<rscale>  2 0.45608118E+03</rscale>
<asrwt>0</asrwt>
<pdfrwt beam="1">  1       21 0.10568471E+00 0.45608118E+03</pdfrwt>
<pdfrwt beam="2">  1       21 0.10641291E-01 0.45608118E+03</pdfrwt>
<totfact> 0.47795543E+04</totfact>
</mgrwt>
</event>
<event>
 7    0  0.4712189E-002  0.4526274E+03  0.7546771E-02  0.1026941E+00
         21   -1    0    0  502  501  0.00000000000E+00  0.00000000000E+00  0.14342949125E+03  0.14342949125E+03  0.00000000000E+00 0. -1.
         21   -1    0    0  501  502 -0.00000000000E+00 -0.00000000000E+00 -0.35709458882E+03  0.35709458882E+03  0.00000000000E+00 0. -1.
      99926    2    1    2    0    0  0.00000000000E+00 -0.71054273576E-14 -0.21366509757E+03  0.50052408008E+03  0.45262741943E+03 0.  0.
      99925    2    3    3    0    0  0.91260136744E+02 -0.61140349199E+02 -0.15247780958E+03  0.32316019658E+03  0.26290012434E+03 0.  0.
         25    1    3    3    0    0 -0.91260136744E+02  0.61140349199E+02 -0.61187287985E+02  0.17736388350E+03  0.12509000000E+03 0.  0.
         25    1    4    4    0    0  0.43006090804E+02  0.86124829712E+01 -0.86292583301E+02  0.15816958223E+03  0.12509000000E+03 0.  0.
         25    1    4    4    0    0  0.48254045941E+02 -0.69752832170E+02 -0.66185226284E+02  0.16499061435E+03  0.12509000000E+03 0.  0.
<mgrwt>
<rscale>  2 0.45262742E+03</rscale>
<asrwt>0</asrwt>
<pdfrwt beam="1">  1       21 0.21092572E-01 0.45262742E+03</pdfrwt>
<pdfrwt beam="2">  1       21 0.52513910E-01 0.45262742E+03</pdfrwt>
<totfact> 0.66477031E+04</totfact>
</mgrwt>
</event>
<event>
 7    0  0.4712189E-002  0.4590611E+03  0.7546771E-02  0.1025054E+00
         21   -1    0    0  502  501  0.00000000000E+00  0.00000000000E+00  0.10178516113E+04  0.10178516113E+04  0.00000000000E+00 0.  1.
         21   -1    0    0  501  502 -0.00000000000E+00 -0.00000000000E+00 -0.51760278754E+02  0.51760278754E+02  0.00000000000E+00 0.  1.
      99926    2    1    2    0    0  0.00000000000E+00  0.00000000000E+00  0.96609133253E+03  0.10696118900E+04  0.45906114247E+03 0.  0.
      99925    2    3    3    0    0 -0.23511060027E+01 -0.10635831075E+03  0.49186470990E+03  0.56775930642E+03  0.26287281949E+03 0.  0.
         25    1    4    4    0    0 -0.25258109146E+02 -0.88086928030E+02  0.26401230306E+03  0.30618178136E+03  0.12509000000E+03 0.  0.
         25    1    3    3    0    0  0.23511060027E+01  0.10635831075E+03  0.47422662264E+03  0.50185258362E+03  0.12509000000E+03 0.  0.
         25    1    4    4    0    0  0.22907003143E+02 -0.18271382722E+02  0.22785240684E+03  0.26157752507E+03  0.12509000000E+03 0.  0.
<mgrwt>
<rscale>  2 0.45906114E+03</rscale>
<asrwt>0</asrwt>
<pdfrwt beam="1">  1       21 0.14968405E+00 0.45906114E+03</pdfrwt>
<pdfrwt beam="2">  1       21 0.76118063E-02 0.45906114E+03</pdfrwt>
<totfact> 0.35429687E+04</totfact>
</mgrwt>
</event>
<event>
 7    0  0.4712189E-002  0.4557486E+03  0.7546771E-02  0.1026021E+00
         21   -1    0    0  502  501  0.00000000000E+00  0.00000000000E+00  0.24543032011E+02  0.24543032011E+02  0.00000000000E+00 0. -1.
         21   -1    0    0  501  502 -0.00000000000E+00 -0.00000000000E+00 -0.21157410266E+04  0.21157410266E+04  0.00000000000E+00 0. -1.
      99926    2    1    2    0    0  0.00000000000E+00  0.00000000000E+00 -0.20911979946E+04  0.21402840586E+04  0.45574861379E+03 0.  0.
      99925    2    3    3    0    0 -0.36126064546E+02 -0.59008426746E+02 -0.17396973972E+04  0.17608275195E+04  0.26301983355E+03 0.  0.
         25    1    4    4    0    0 -0.47509034575E+01  0.61183832436E+01 -0.69858327825E+03  0.70973664866E+03  0.12509000000E+03 0.  0.
         25    1    3    3    0    0  0.36126064546E+02  0.59008426746E+02 -0.35150059742E+03  0.37945653909E+03  0.12509000000E+03 0.  0.
         25    1    4    4    0    0 -0.31375161088E+02 -0.65126809989E+02 -0.10411141189E+04  0.10510908709E+04  0.12509000000E+03 0.  0.
<mgrwt>
<rscale>  2 0.45574861E+03</rscale>
<asrwt>0</asrwt>
<pdfrwt beam="1">  1       21 0.36092679E-02 0.45574861E+03</pdfrwt>
<pdfrwt beam="2">  1       21 0.31113851E+00 0.45574861E+03</pdfrwt>
<totfact> 0.11484745E+04</totfact>
</mgrwt>
</event>
<event>
 7    0  0.4712189E-002  0.4585540E+03  0.7546771E-02  0.1025201E+00
         21   -1    0    0  502  501  0.00000000000E+00  0.00000000000E+00  0.81427934545E+03  0.81427934545E+03  0.00000000000E+00 0.  1.
         21   -1    0    0  501  502 -0.00000000000E+00 -0.00000000000E+00 -0.64557614174E+02  0.64557614174E+02  0.00000000000E+00 0.  1.
      99926    2    1    2    0    0  0.00000000000E+00  0.00000000000E+00  0.74972173128E+03  0.87883695963E+03  0.45855395239E+03 0.  0.
      99925    2    3    3    0    0  0.50897379855E+01 -0.10940247079E+03  0.39460590245E+03  0.48672783447E+03  0.26305011034E+03 0.  0.
         25    1    4    4    0    0  0.79938744017E+01 -0.80494190807E+02  0.26667175109E+03  0.30545793117E+03  0.12509000000E+03 0.  0.
         25    1    3    3    0    0 -0.50897379855E+01  0.10940247079E+03  0.35511582883E+03  0.39210912516E+03  0.12509000000E+03 0.  0.
         25    1    4    4    0    0 -0.29041364162E+01 -0.28908279981E+02  0.12793415136E+03  0.18126990330E+03  0.12509000000E+03 0.  0.
<mgrwt>
<rscale>  2 0.45855395E+03</rscale>
<asrwt>0</asrwt>
<pdfrwt beam="1">  1       21 0.11974696E+00 0.45855395E+03</pdfrwt>
<pdfrwt beam="2">  1       21 0.94937673E-02 0.45855395E+03</pdfrwt>
<totfact> 0.42953251E+04</totfact>
</mgrwt>
</event>
<event>
 7    0  0.4712189E-002  0.4426630E+03  0.7546771E-02  0.1029933E+00
         21   -1    0    0  502  501  0.00000000000E+00  0.00000000000E+00  0.17490609969E+03  0.17490609969E+03  0.00000000000E+00 0.  1.
         21   -1    0    0  501  502 -0.00000000000E+00 -0.00000000000E+00 -0.28007956961E+03  0.28007956961E+03  0.00000000000E+00 0.  1.
      99926    2    1    2    0    0  0.00000000000E+00  0.00000000000E+00 -0.10517346992E+03  0.45498566931E+03  0.44266296491E+03 0.  0.
      99925    2    3    3    0    0 -0.46144375404E+02 -0.14212964050E+02  0.24502324653E+02  0.26845247782E+03  0.26293546205E+03 0.  0.
         25    1    3    3    0    0  0.46144375404E+02  0.14212964050E+02 -0.12967579457E+03  0.18653319149E+03  0.12509000000E+03 0.  0.
         25    1    4    4    0    0  0.76043763668E+01  0.12191029152E+02 -0.74544653371E+01  0.12613296510E+03  0.12509000000E+03 0.  0.
         25    1    4    4    0    0 -0.53748751771E+02 -0.26403993202E+02  0.31956789990E+02  0.14231951272E+03  0.12509000000E+03 0.  0.
<mgrwt>
<rscale>  2 0.44266296E+03</rscale>
<asrwt>0</asrwt>
<pdfrwt beam="1">  1       21 0.25721486E-01 0.44266296E+03</pdfrwt>
<pdfrwt beam="2">  1       21 0.41188171E-01 0.44266296E+03</pdfrwt>
<totfact> 0.75710980E+04</totfact>
</mgrwt>
</event>
<event>
 7    0  0.4712189E-002  0.4589997E+03  0.7546771E-02  0.1025072E+00
         21   -1    0    0  502  501  0.00000000000E+00  0.00000000000E+00  0.80257222329E+03  0.80257222329E+03  0.00000000000E+00 0.  1.
         21   -1    0    0  501  502 -0.00000000000E+00 -0.00000000000E+00 -0.65626717507E+02  0.65626717507E+02  0.00000000000E+00 0.  1.
      99926    2    1    2    0    0  0.00000000000E+00  0.00000000000E+00  0.73694550578E+03  0.86819894080E+03  0.45899969750E+03 0.  0.
      99925    2    3    3    0    0 -0.66797632409E+02 -0.44825280817E+02  0.30195101318E+03  0.40848278251E+03  0.26308276217E+03 0.  0.
         25    1    4    4    0    0 -0.20521543418E+02 -0.17571286716E+02  0.20383260441E+03  0.24067638559E+03  0.12509000000E+03 0.  0.
         25    1    4    4    0    0 -0.46276088991E+02 -0.27253994101E+02  0.98118408768E+02  0.16780639692E+03  0.12509000000E+03 0.  0.
         25    1    3    3    0    0  0.66797632409E+02  0.44825280817E+02  0.43499449261E+03  0.45971615829E+03  0.12509000000E+03 0.  0.
<mgrwt>
<rscale>  2 0.45899970E+03</rscale>
<asrwt>0</asrwt>
<pdfrwt beam="1">  1       21 0.11802532E+00 0.45899970E+03</pdfrwt>
<pdfrwt beam="2">  1       21 0.96509883E-02 0.45899970E+03</pdfrwt>
<totfact> 0.43262660E+04</totfact>
</mgrwt>
</event>
<event>
 7    0  0.4712189E-002  0.4556584E+03  0.7546771E-02  0.1026048E+00
         21   -1    0    0  502  501  0.00000000000E+00  0.00000000000E+00  0.20187859729E+03  0.20187859729E+03  0.00000000000E+00 0. -1.
         21   -1    0    0  501  502 -0.00000000000E+00 -0.00000000000E+00 -0.25711568519E+03  0.25711568519E+03  0.00000000000E+00 0. -1.
      99926    2    1    2    0    0  0.00000000000E+00 -0.44408920985E-15 -0.55237087901E+02  0.45899428248E+03  0.45565844167E+03 0.  0.
      99925    2    3    3    0    0 -0.41311506398E+02 -0.22099955315E+01  0.72029482965E+02  0.27581182480E+03  0.26300644791E+03 0.  0.
         25    1    4    4    0    0 -0.44438756776E+02 -0.24989294099E+02  0.60794785560E+02  0.14813096224E+03  0.12509000000E+03 0.  0.
         25    1    3    3    0    0  0.41311506398E+02  0.22099955315E+01 -0.12726657087E+03  0.18318245768E+03  0.12509000000E+03 0.  0.
         25    1    4    4    0    0  0.31272503779E+01  0.22779298567E+02  0.11234697405E+02  0.12768086256E+03  0.12509000000E+03 0.  0.
<mgrwt>
<rscale>  2 0.45565844E+03</rscale>
<asrwt>0</asrwt>
<pdfrwt beam="1">  1       21 0.29688029E-01 0.45565844E+03</pdfrwt>
<pdfrwt beam="2">  1       21 0.37811130E-01 0.45565844E+03</pdfrwt>
<totfact> 0.67896648E+04</totfact>
</mgrwt>
</event>
<event>
 7    0  0.4712189E-002  0.4543876E+03  0.7546771E-02  0.1026422E+00
         21   -1    0    0  502  501  0.00000000000E+00  0.00000000000E+00  0.63808232056E+03  0.63808232056E+03  0.00000000000E+00 0.  1.
         21   -1    0    0  501  502 -0.00000000000E+00 -0.00000000000E+00 -0.80893969933E+02  0.80893969933E+02  0.00000000000E+00 0.  1.
      99926    2    1    2    0    0  0.00000000000E+00  0.00000000000E+00  0.55718835063E+03  0.71897629049E+03  0.45438755288E+03 0.  0.
      99925    2    3    3    0    0 -0.76860181788E+01 -0.95174235145E+02  0.44519672288E+03  0.52582649708E+03  0.26301363663E+03 0.  0.
         25    1    4    4    0    0 -0.12028110671E+02 -0.47889026182E+02  0.29780688236E+03  0.32676364785E+03  0.12509000000E+03 0.  0.
         25    1    3    3    0    0  0.76860181788E+01  0.95174235145E+02  0.11199162775E+03  0.19314979342E+03  0.12509000000E+03 0.  0.
         25    1    4    4    0    0  0.43420924921E+01 -0.47285208963E+02  0.14738984052E+03  0.19906284922E+03  0.12509000000E+03 0.  0.
<mgrwt>
<rscale>  2 0.45438755E+03</rscale>
<asrwt>0</asrwt>
<pdfrwt beam="1">  1       21 0.93835633E-01 0.45438755E+03</pdfrwt>
<pdfrwt beam="2">  1       21 0.11896172E-01 0.45438755E+03</pdfrwt>
<totfact> 0.52135490E+04</totfact>
</mgrwt>
</event>
<event>
 7    0  0.4712189E-002  0.4537944E+03  0.7546771E-02  0.1026597E+00
         21   -1    0    0  502  501  0.00000000000E+00  0.00000000000E+00  0.34139485155E+03  0.34139485155E+03  0.00000000000E+00 0.  1.
         21   -1    0    0  501  502 -0.00000000000E+00 -0.00000000000E+00 -0.15079997855E+03  0.15079997855E+03  0.00000000000E+00 0.  1.
      99926    2    1    2    0    0  0.00000000000E+00 -0.14210854715E-13  0.19059487300E+03  0.49219483011E+03  0.45379438645E+03 0.  0.
      99925    2    3    3    0    0  0.28087491307E+01 -0.82683749674E+02  0.20209407522E+03  0.34178129586E+03  0.26292194171E+03 0.  0.
         25    1    4    4    0    0  0.58500061319E+01 -0.69962001708E+02  0.70798567563E+02  0.15996515097E+03  0.12509000000E+03 0.  0.
         25    1    4    4    0    0 -0.30412570012E+01 -0.12721747966E+02  0.13129550765E+03  0.18181614490E+03  0.12509000000E+03 0.  0.
         25    1    3    3    0    0 -0.28087491307E+01  0.82683749674E+02 -0.11499202217E+02  0.15041353424E+03  0.12509000000E+03 0.  0.
<mgrwt>
<rscale>  2 0.45379439E+03</rscale>
<asrwt>0</asrwt>
<pdfrwt beam="1">  1       21 0.50205125E-01 0.45379439E+03</pdfrwt>
<pdfrwt beam="2">  1       21 0.22176467E-01 0.45379439E+03</pdfrwt>
<totfact> 0.66456322E+04</totfact>
</mgrwt>
</event>
<event>
 7    0  0.4712189E-002  0.4529080E+03  0.7546771E-02  0.1026858E+00
         21   -1    0    0  502  501  0.00000000000E+00  0.00000000000E+00  0.61671871237E+02  0.61671871237E+02  0.00000000000E+00 0. -1.
         21   -1    0    0  501  502 -0.00000000000E+00 -0.00000000000E+00 -0.83152022991E+03  0.83152022991E+03  0.00000000000E+00 0. -1.
      99926    2    1    2    0    0  0.00000000000E+00  0.00000000000E+00 -0.76984835867E+03  0.89319210114E+03  0.45290797542E+03 0.  0.
      99925    2    3    3    0    0 -0.10897462957E+02 -0.10476105992E+03 -0.41236037093E+03  0.50007786348E+03  0.26257029470E+03 0.  0.
         25    1    4    4    0    0  0.17123213775E+02 -0.16792028259E+02 -0.19117870167E+03  0.22972152867E+03  0.12509000000E+03 0.  0.
         25    1    3    3    0    0  0.10897462957E+02  0.10476105992E+03 -0.35748798774E+03  0.39311423766E+03  0.12509000000E+03 0.  0.
         25    1    4    4    0    0 -0.28020676732E+02 -0.87969031658E+02 -0.22118166926E+03  0.27035633481E+03  0.12509000000E+03 0.  0.
<mgrwt>
<rscale>  2 0.45290798E+03</rscale>
<asrwt>0</asrwt>
<pdfrwt beam="1">  1       21 0.90693924E-02 0.45290798E+03</pdfrwt>
<pdfrwt beam="2">  1       21 0.12228239E+00 0.45290798E+03</pdfrwt>
<totfact> 0.44249758E+04</totfact>
</mgrwt>
</event>
<event>
 7    0  0.4712189E-002  0.4541300E+03  0.7546771E-02  0.1026498E+00
         21   -1    0    0  502  501  0.00000000000E+00  0.00000000000E+00  0.19988093468E+04  0.19988093468E+04  0.00000000000E+00 0. -1.
         21   -1    0    0  501  502 -0.00000000000E+00 -0.00000000000E+00 -0.25794610060E+02  0.25794610060E+02  0.00000000000E+00 0. -1.
      99926    2    1    2    0    0  0.00000000000E+00  0.71054273576E-14  0.19730147367E+04  0.20246039568E+04  0.45412997119E+03 0.  0.
      99925    2    3    3    0    0  0.10720842639E+03 -0.32585673966E+02  0.12065648917E+04  0.12399713385E+04  0.26301066407E+03 0.  0.
         25    1    4    4    0    0  0.81516582743E+02  0.12598402347E+02  0.59385390642E+03  0.61246521802E+03  0.12509000000E+03 0.  0.
         25    1    3    3    0    0 -0.10720842639E+03  0.32585673966E+02  0.76644984497E+03  0.78463261836E+03  0.12509000000E+03 0.  0.
         25    1    4    4    0    0  0.25691843652E+02 -0.45184076314E+02  0.61271098532E+03  0.62750612046E+03  0.12509000000E+03 0.  0.
<mgrwt>
<rscale>  2 0.45412997E+03</rscale>
<asrwt>0</asrwt>
<pdfrwt beam="1">  1       21 0.29394245E+00 0.45412997E+03</pdfrwt>
<pdfrwt beam="2">  1       21 0.37933264E-02 0.45412997E+03</pdfrwt>
<totfact> 0.13402399E+04</totfact>
</mgrwt>
</event>
<event>
 7    0  0.4712189E-002  0.4529371E+03  0.7546771E-02  0.1026850E+00
         21   -1    0    0  502  501  0.00000000000E+00  0.00000000000E+00  0.12377191365E+03  0.12377191365E+03  0.00000000000E+00 0. -1.
         21   -1    0    0  501  502 -0.00000000000E+00 -0.00000000000E+00 -0.41437521176E+03  0.41437521176E+03  0.00000000000E+00 0. -1.
      99926    2    1    2    0    0  0.00000000000E+00  0.00000000000E+00 -0.29060329811E+03  0.53814712542E+03  0.45293713882E+03 0.  0.
      99925    2    3    3    0    0  0.67598667674E+02  0.87929761189E+02 -0.17287525673E+03  0.33367555624E+03  0.26296824841E+03 0.  0.
         25    1    3    3    0    0 -0.67598667674E+02 -0.87929761189E+02 -0.11772804138E+03  0.20447156918E+03  0.12509000000E+03 0.  0.
         25    1    4    4    0    0  0.24484665642E+02  0.30279453172E+01 -0.89009648263E+02  0.15549563624E+03  0.12509000000E+03 0.  0.
         25    1    4    4    0    0  0.43114002032E+02  0.84901815871E+02 -0.83865608464E+02  0.17817992000E+03  0.12509000000E+03 0.  0.
<mgrwt>
<rscale>  2 0.45293714E+03</rscale>
<asrwt>0</asrwt>
<pdfrwt beam="1">  1       21 0.18201752E-01 0.45293714E+03</pdfrwt>
<pdfrwt beam="2">  1       21 0.60937531E-01 0.45293714E+03</pdfrwt>
<totfact> 0.63690075E+04</totfact>
</mgrwt>
</event>
<event>
 7    0  0.4712189E-002  0.4555774E+03  0.7546771E-02  0.1026072E+00
         21   -1    0    0  502  501  0.00000000000E+00  0.00000000000E+00  0.18447836310E+04  0.18447836310E+04  0.00000000000E+00 0.  1.
         21   -1    0    0  501  502 -0.00000000000E+00 -0.00000000000E+00 -0.28126709040E+02  0.28126709040E+02  0.00000000000E+00 0.  1.
      99926    2    1    2    0    0 -0.71054273576E-14  0.00000000000E+00  0.18166569220E+04  0.18729103401E+04  0.45557740257E+03 0.  0.
      99925    2    3    3    0    0  0.50232669128E+02 -0.98885475396E+02  0.10398155698E+04  0.10782836019E+04  0.26301606194E+03 0.  0.
         25    1    4    4    0    0  0.16821105135E+02 -0.59935493995E+02  0.38286628257E+03  0.40756510087E+03  0.12509000000E+03 0.  0.
         25    1    3    3    0    0 -0.50232669128E+02  0.98885475396E+02  0.77684135225E+03  0.79462673814E+03  0.12509000000E+03 0.  0.
         25    1    4    4    0    0  0.33411563993E+02 -0.38949981402E+02  0.65694928718E+03  0.67071850108E+03  0.12509000000E+03 0.  0.
<mgrwt>
<rscale>  2 0.45557740E+03</rscale>
<asrwt>0</asrwt>
<pdfrwt beam="1">  1       21 0.27129163E+00 0.45557740E+03</pdfrwt>
<pdfrwt beam="2">  1       21 0.41362820E-02 0.45557740E+03</pdfrwt>
<totfact> 0.15826762E+04</totfact>
</mgrwt>
</event>
<event>
 7    0  0.4712189E-002  0.4390629E+03  0.7546771E-02  0.1031035E+00
         21   -1    0    0  502  501  0.00000000000E+00  0.00000000000E+00  0.45619370709E+03  0.45619370709E+03  0.00000000000E+00 0. -1.
         21   -1    0    0  501  502 -0.00000000000E+00 -0.00000000000E+00 -0.10564386574E+03  0.10564386574E+03  0.00000000000E+00 0. -1.
      99926    2    1    2    0    0  0.00000000000E+00  0.00000000000E+00  0.35054984136E+03  0.56183757283E+03  0.43906294192E+03 0.  0.
      99925    2    3    3    0    0 -0.87880959136E+02 -0.29032066909E+02  0.18475408778E+03  0.33445757395E+03  0.26298644819E+03 0.  0.
         25    1    3    3    0    0  0.87880959136E+02  0.29032066909E+02  0.16579575357E+03  0.22737999888E+03  0.12509000000E+03 0.  0.
         25    1    4    4    0    0 -0.43836580813E+02  0.98243100370E+00  0.46311800403E+02  0.14040976442E+03  0.12509000000E+03 0.  0.
         25    1    4    4    0    0 -0.44044378323E+02 -0.30014497913E+02  0.13844228738E+03  0.19404780953E+03  0.12509000000E+03 0.  0.
<mgrwt>
<rscale>  2 0.43906294E+03</rscale>
<asrwt>0</asrwt>
<pdfrwt beam="1">  1       21 0.67087309E-01 0.43906294E+03</pdfrwt>
<pdfrwt beam="2">  1       21 0.15535863E-01 0.43906294E+03</pdfrwt>
<totfact> 0.69438509E+04</totfact>
</mgrwt>
</event>
<event>
 7    0  0.4712189E-002  0.4589683E+03  0.7546771E-02  0.1025081E+00
         21   -1    0    0  502  501  0.00000000000E+00  0.00000000000E+00  0.24651696939E+03  0.24651696939E+03  0.00000000000E+00 0.  1.
         21   -1    0    0  501  502 -0.00000000000E+00 -0.00000000000E+00 -0.21362818026E+03  0.21362818026E+03  0.00000000000E+00 0.  1.
      99926    2    1    2    0    0  0.00000000000E+00  0.00000000000E+00  0.32888789135E+02  0.46014514965E+03  0.45896828463E+03 0.  0.
      99925    2    3    3    0    0  0.36720959594E+02 -0.69752805485E+02 -0.65806007135E+02  0.28237548504E+03  0.26304296461E+03 0.  0.
         25    1    4    4    0    0  0.55450488448E+02 -0.38345529710E+02 -0.16586906472E+02  0.14306561391E+03  0.12509000000E+03 0.  0.
         25    1    4    4    0    0 -0.18729528854E+02 -0.31407275774E+02 -0.49219100662E+02  0.13930987112E+03  0.12509000000E+03 0.  0.
         25    1    3    3    0    0 -0.36720959594E+02  0.69752805485E+02  0.98694796270E+02  0.17776966461E+03  0.12509000000E+03 0.  0.
<mgrwt>
<rscale>  2 0.45896828E+03</rscale>
<asrwt>0</asrwt>
<pdfrwt beam="1">  1       21 0.36252495E-01 0.45896828E+03</pdfrwt>
<pdfrwt beam="2">  1       21 0.31415909E-01 0.45896828E+03</pdfrwt>
<totfact> 0.66054219E+04</totfact>
</mgrwt>
</event>
<event>
 7    0  0.4712189E-002  0.4517436E+03  0.7546771E-02  0.1027203E+00
         21   -1    0    0  502  501  0.00000000000E+00  0.00000000000E+00  0.14045328795E+03  0.14045328795E+03  0.00000000000E+00 0.  1.
         21   -1    0    0  501  502 -0.00000000000E+00 -0.00000000000E+00 -0.36323869629E+03  0.36323869629E+03  0.00000000000E+00 0.  1.
      99926    2    1    2    0    0  0.00000000000E+00  0.00000000000E+00 -0.22278540834E+03  0.50369198424E+03  0.45174359632E+03 0.  0.
      99925    2    3    3    0    0  0.10244854216E+03 -0.89843372568E+01 -0.96845995444E+02  0.29854650921E+03  0.26301035953E+03 0.  0.
         25    1    4    4    0    0  0.71946136998E+02 -0.15029172684E+02 -0.14996289136E+02  0.14585787414E+03  0.12509000000E+03 0.  0.
         25    1    4    4    0    0  0.30502405162E+02  0.60448354272E+01 -0.81849706308E+02  0.15268863507E+03  0.12509000000E+03 0.  0.
         25    1    3    3    0    0 -0.10244854216E+03  0.89843372568E+01 -0.12593941289E+03  0.20514547503E+03  0.12509000000E+03 0.  0.
<mgrwt>
<rscale>  2 0.45174360E+03</rscale>
<asrwt>0</asrwt>
<pdfrwt beam="1">  1       21 0.20654895E-01 0.45174360E+03</pdfrwt>
<pdfrwt beam="2">  1       21 0.53417455E-01 0.45174360E+03</pdfrwt>
<totfact> 0.66719944E+04</totfact>
</mgrwt>
</event>
<event>
 6    0  0.4712189E-002  0.4734045E+03  0.7546771E-02  0.1020964E+00
         21   -1    0    0  502  501  0.00000000000E+00  0.00000000000E+00  0.29201307966E+02  0.29201307966E+02  0.00000000000E+00 0.  1.
         21   -1    0    0  501  502 -0.00000000000E+00 -0.00000000000E+00 -0.19186798160E+04  0.19186798160E+04  0.00000000000E+00 0.  1.
      99926    2    1    2    0    0  0.00000000000E+00  0.00000000000E+00 -0.18894785080E+04  0.19478811240E+04  0.47340452129E+03 0.  0.
         25    1    3    3    0    0 -0.19422017835E+02  0.11143619127E+02 -0.52813823461E+03  0.54321165118E+03  0.12509000000E+03 0.  0.
         25    1    3    3    0    0 -0.12857420555E+01 -0.96070161693E+02 -0.37846652707E+03  0.41001896213E+03  0.12509000000E+03 0.  0.
         25    1    3    3    0    0  0.20707759890E+02  0.84926542566E+02 -0.98287374637E+03  0.99465051066E+03  0.12509000000E+03 0.  0.
<mgrwt>
<rscale>  2 0.47340452E+03</rscale>
<asrwt>0</asrwt>
<pdfrwt beam="1">  1       21 0.42943103E-02 0.47340452E+03</pdfrwt>
<pdfrwt beam="2">  1       21 0.28215878E+00 0.47340452E+03</pdfrwt>
<totfact> 0.12670701E+04</totfact>
</mgrwt>
</event>
<event>
 7    0  0.4712189E-002  0.4238727E+03  0.7546771E-02  0.1035813E+00
         21   -1    0    0  502  501  0.00000000000E+00  0.00000000000E+00  0.15253414204E+03  0.15253414204E+03  0.00000000000E+00 0. -1.
         21   -1    0    0  501  502 -0.00000000000E+00 -0.00000000000E+00 -0.29447189211E+03  0.29447189211E+03  0.00000000000E+00 0. -1.
      99926    2    1    2    0    0  0.00000000000E+00  0.00000000000E+00 -0.14193775006E+03  0.44700603415E+03  0.42387270456E+03 0.  0.
      99925    2    3    3    0    0  0.52321823189E+02 -0.53857222549E+02 -0.12297152902E+03  0.29988227929E+03  0.26300040092E+03 0.  0.
         25    1    4    4    0    0  0.40079303072E+02 -0.34714943297E+02 -0.22229996329E+02  0.13767047127E+03  0.12509000000E+03 0.  0.
         25    1    4    4    0    0  0.12242520116E+02 -0.19142279252E+02 -0.10074153269E+03  0.16221180802E+03  0.12509000000E+03 0.  0.
         25    1    3    3    0    0 -0.52321823189E+02  0.53857222549E+02 -0.18966221044E+02  0.14712375486E+03  0.12509000000E+03 0.  0.
<mgrwt>
<rscale>  2 0.42387270E+03</rscale>
<asrwt>0</asrwt>
<pdfrwt beam="1">  1       21 0.22431492E-01 0.42387270E+03</pdfrwt>
<pdfrwt beam="2">  1       21 0.43304690E-01 0.42387270E+03</pdfrwt>
<totfact> 0.89277650E+04</totfact>
</mgrwt>
</event>
<event>
 7    0  0.4712189E-002  0.4429511E+03  0.7546771E-02  0.1029845E+00
         21   -1    0    0  502  501  0.00000000000E+00  0.00000000000E+00  0.56981903964E+02  0.56981903964E+02  0.00000000000E+00 0. -1.
         21   -1    0    0  501  502 -0.00000000000E+00 -0.00000000000E+00 -0.86082458892E+03  0.86082458892E+03  0.00000000000E+00 0. -1.
      99926    2    1    2    0    0  0.14210854715E-13  0.17763568394E-14 -0.80384268496E+03  0.91780649289E+03  0.44295112171E+03 0.  0.
      99925    2    3    3    0    0  0.98731450350E+02  0.14986406744E+02 -0.47631414197E+03  0.55325890169E+03  0.26314968893E+03 0.  0.
         25    1    3    3    0    0 -0.98731450350E+02 -0.14986406744E+02 -0.32752854299E+03  0.36454759119E+03  0.12509000000E+03 0.  0.
         25    1    4    4    0    0  0.73901179101E+02  0.36401980410E+02 -0.29101676735E+03  0.32729918337E+03  0.12509000000E+03 0.  0.
         25    1    4    4    0    0  0.24830271249E+02 -0.21415573666E+02 -0.18529737462E+03  0.22595971833E+03  0.12509000000E+03 0.  0.
<mgrwt>
<rscale>  2 0.44295112E+03</rscale>
<asrwt>0</asrwt>
<pdfrwt beam="1">  1       21 0.83796919E-02 0.44295112E+03</pdfrwt>
<pdfrwt beam="2">  1       21 0.12659185E+00 0.44295112E+03</pdfrwt>
<totfact> 0.46723507E+04</totfact>
</mgrwt>
</event>
<event>
 7    0  0.4712189E-002  0.4261911E+03  0.7546771E-02  0.1035070E+00
         21   -1    0    0  502  501  0.00000000000E+00  0.00000000000E+00  0.28654794687E+03  0.28654794687E+03  0.00000000000E+00 0. -1.
         21   -1    0    0  501  502 -0.00000000000E+00 -0.00000000000E+00 -0.15847162207E+03  0.15847162207E+03  0.00000000000E+00 0. -1.
      99926    2    1    2    0    0  0.00000000000E+00  0.14210854715E-13  0.12807632480E+03  0.44501956894E+03  0.42619112117E+03 0.  0.
      99925    2    3    3    0    0  0.71901823135E+01 -0.81561310335E+02  0.66718195476E+02  0.28341426519E+03  0.26299882517E+03 0.  0.
         25    1    4    4    0    0  0.15423071510E+02 -0.77466375093E+02  0.18736200633E+02  0.14912231127E+03  0.12509000000E+03 0.  0.
         25    1    4    4    0    0 -0.82328891969E+01 -0.40949352423E+01  0.47981994842E+02  0.13429195392E+03  0.12509000000E+03 0.  0.
         25    1    3    3    0    0 -0.71901823135E+01  0.81561310335E+02  0.61358129325E+02  0.16160530375E+03  0.12509000000E+03 0.  0.
<mgrwt>
<rscale>  2 0.42619112E+03</rscale>
<asrwt>0</asrwt>
<pdfrwt beam="1">  1       21 0.42139404E-01 0.42619112E+03</pdfrwt>
<pdfrwt beam="2">  1       21 0.23304650E-01 0.42619112E+03</pdfrwt>
<totfact> 0.87741259E+04</totfact>
</mgrwt>
</event>
<event>
 7    0  0.4712189E-002  0.4553280E+03  0.7546771E-02  0.1026145E+00
         21   -1    0    0  502  501  0.00000000000E+00  0.00000000000E+00  0.21378599912E+03  0.21378599912E+03  0.00000000000E+00 0.  1.
         21   -1    0    0  501  502 -0.00000000000E+00 -0.00000000000E+00 -0.24244285509E+03  0.24244285509E+03  0.00000000000E+00 0.  1.
      99926    2    1    2    0    0  0.86042284408E-15  0.00000000000E+00 -0.28656855973E+02  0.45622885422E+03  0.45532796095E+03 0.  0.
      99925    2    3    3    0    0  0.10475602664E+00  0.11092639658E+03  0.49347148158E+01  0.28569856905E+03  0.26323875952E+03 0.  0.
         25    1    4    4    0    0  0.10926794717E+02  0.36477806931E+02  0.37725412069E+02  0.13609092570E+03  0.12509000000E+03 0.  0.
         25    1    3    3    0    0 -0.10475602664E+00 -0.11092639658E+03 -0.33591570788E+02  0.17053028517E+03  0.12509000000E+03 0.  0.
         25    1    4    4    0    0 -0.10822038690E+02  0.74448589649E+02 -0.32790697253E+02  0.14960764335E+03  0.12509000000E+03 0.  0.
<mgrwt>
<rscale>  2 0.45532796E+03</rscale>
<asrwt>0</asrwt>
<pdfrwt beam="1">  1       21 0.31439118E-01 0.45532796E+03</pdfrwt>
<pdfrwt beam="2">  1       21 0.35653361E-01 0.45532796E+03</pdfrwt>
<totfact> 0.68277059E+04</totfact>
</mgrwt>
</event>
<event>
 7    0  0.4712189E-002  0.4368643E+03  0.7546771E-02  0.1031713E+00
         21   -1    0    0  502  501  0.00000000000E+00  0.00000000000E+00  0.77208185816E+03  0.77208185816E+03  0.00000000000E+00 0.  1.
         21   -1    0    0  501  502 -0.00000000000E+00 -0.00000000000E+00 -0.61797344215E+02  0.61797344215E+02  0.00000000000E+00 0.  1.
      99926    2    1    2    0    0  0.00000000000E+00  0.00000000000E+00  0.71028451395E+03  0.83387920238E+03  0.43686431922E+03 0.  0.
      99925    2    3    3    0    0 -0.88101457414E+02  0.59745736481E+01  0.52241954820E+03  0.59151931340E+03  0.26301207474E+03 0.  0.
         25    1    4    4    0    0 -0.14746676920E+02  0.20960372900E+00  0.30637469044E+03  0.33125589422E+03  0.12509000000E+03 0.  0.
         25    1    4    4    0    0 -0.73354780494E+02  0.57649699191E+01  0.21604485776E+03  0.26026341918E+03  0.12509000000E+03 0.  0.
         25    1    3    3    0    0  0.88101457414E+02 -0.59745736481E+01  0.18786496575E+03  0.24235988898E+03  0.12509000000E+03 0.  0.
<mgrwt>
<rscale>  2 0.43686432E+03</rscale>
<asrwt>0</asrwt>
<pdfrwt beam="1">  1       21 0.11354144E+00 0.43686432E+03</pdfrwt>
<pdfrwt beam="2">  1       21 0.90878452E-02 0.43686432E+03</pdfrwt>
<totfact> 0.53367122E+04</totfact>
</mgrwt>
</event>
<event>
 7    0  0.4712189E-002  0.4309264E+03  0.7546771E-02  0.1033568E+00
         21   -1    0    0  502  501  0.00000000000E+00  0.00000000000E+00  0.93069989056E+03  0.93069989056E+03  0.00000000000E+00 0. -1.
         21   -1    0    0  501  502 -0.00000000000E+00 -0.00000000000E+00 -0.49881161205E+02  0.49881161205E+02  0.00000000000E+00 0. -1.
      99926    2    1    2    0    0  0.17763568394E-14  0.22204460493E-15  0.88081872936E+03  0.98058105177E+03  0.43092640334E+03 0.  0.
      99925    2    3    3    0    0  0.86385003119E+01  0.69906105106E+00  0.76827428346E+03  0.81209107350E+03  0.26300460958E+03 0.  0.
         25    1    4    4    0    0  0.43561710558E+02  0.27798255612E+01  0.35687985609E+03  0.38067845991E+03  0.12509000000E+03 0.  0.
         25    1    3    3    0    0 -0.86385003119E+01 -0.69906105106E+00  0.11254444590E+03  0.16848997827E+03  0.12509000000E+03 0.  0.
         25    1    4    4    0    0 -0.34923210246E+02 -0.20807645102E+01  0.41139442737E+03  0.43141261359E+03  0.12509000000E+03 0.  0.
<mgrwt>
<rscale>  2 0.43092640E+03</rscale>
<asrwt>0</asrwt>
<pdfrwt beam="1">  1       21 0.13686762E+00 0.43092640E+03</pdfrwt>
<pdfrwt beam="2">  1       21 0.73354655E-02 0.43092640E+03</pdfrwt>
<totfact> 0.48414204E+04</totfact>
</mgrwt>
</event>
<event>
 7    0  0.4712189E-002  0.4519922E+03  0.7546771E-02  0.1027130E+00
         21   -1    0    0  502  501  0.00000000000E+00  0.00000000000E+00  0.79721208926E+03  0.79721208926E+03  0.00000000000E+00 0. -1.
         21   -1    0    0  501  502 -0.00000000000E+00 -0.00000000000E+00 -0.64066073390E+02  0.64066073390E+02  0.00000000000E+00 0. -1.
      99926    2    1    2    0    0  0.71054273576E-14  0.00000000000E+00  0.73314601587E+03  0.86127816264E+03  0.45199224868E+03 0.  0.
      99925    2    3    3    0    0 -0.59177303398E+02 -0.16663039136E+02  0.63721243658E+03  0.69207305088E+03  0.26295590566E+03 0.  0.
         25    1    3    3    0    0  0.59177303398E+02  0.16663039136E+02  0.95933579289E+02  0.16920511176E+03  0.12509000000E+03 0.  0.
         25    1    4    4    0    0 -0.30573239856E+02 -0.31093599152E+02  0.23656703266E+03  0.27113281606E+03  0.12509000000E+03 0.  0.
         25    1    4    4    0    0 -0.28604063542E+02  0.14430560016E+02  0.40064540392E+03  0.42094023482E+03  0.12509000000E+03 0.  0.
<mgrwt>
<rscale>  2 0.45199225E+03</rscale>
<asrwt>0</asrwt>
<pdfrwt beam="1">  1       21 0.11723707E+00 0.45199225E+03</pdfrwt>
<pdfrwt beam="2">  1       21 0.94214819E-02 0.45199225E+03</pdfrwt>
<totfact> 0.46014924E+04</totfact>
</mgrwt>
</event>
<event>
 7    0  0.4712189E-002  0.4534291E+03  0.7546771E-02  0.1026704E+00
         21   -1    0    0  502  501  0.00000000000E+00  0.00000000000E+00  0.26035649385E+03  0.26035649385E+03  0.00000000000E+00 0.  1.
         21   -1    0    0  501  502 -0.00000000000E+00 -0.00000000000E+00 -0.19741968429E+03  0.19741968429E+03  0.00000000000E+00 0.  1.
      99926    2    1    2    0    0  0.00000000000E+00 -0.35527136788E-14  0.62936809563E+02  0.45777617814E+03  0.45342914250E+03 0.  0.
      99925    2    3    3    0    0 -0.10492461795E+03 -0.27946042614E+02  0.12691316999E+02  0.28468003615E+03  0.26285261403E+03 0.  0.
         25    1    3    3    0    0  0.10492461795E+03  0.27946042614E+02  0.50245492564E+02  0.17309614199E+03  0.12509000000E+03 0.  0.
         25    1    4    4    0    0 -0.92053136060E+02 -0.32032114592E+02  0.66998427517E+01  0.15872061056E+03  0.12509000000E+03 0.  0.
         25    1    4    4    0    0 -0.12871481886E+02  0.40860719775E+01  0.59914742475E+01  0.12595942559E+03  0.12509000000E+03 0.  0.
<mgrwt>
<rscale>  2 0.45342914E+03</rscale>
<asrwt>0</asrwt>
<pdfrwt beam="1">  1       21 0.38287720E-01 0.45342914E+03</pdfrwt>
<pdfrwt beam="2">  1       21 0.29032306E-01 0.45342914E+03</pdfrwt>
<totfact> 0.69205845E+04</totfact>
</mgrwt>
</event>
<event>
 7    0  0.4712189E-002  0.4583602E+03  0.7546771E-02  0.1025258E+00
         21   -1    0    0  502  501  0.00000000000E+00  0.00000000000E+00  0.32565714511E+03  0.32565714511E+03  0.00000000000E+00 0. -1.
         21   -1    0    0  501  502 -0.00000000000E+00 -0.00000000000E+00 -0.16128469265E+03  0.16128469265E+03  0.00000000000E+00 0. -1.
      99926    2    1    2    0    0  0.71054273576E-14 -0.71054273576E-14  0.16437245246E+03  0.48694183776E+03  0.45836017523E+03 0.  0.
      99925    2    3    3    0    0 -0.41107004039E+02 -0.34702929068E+02 -0.63807569376E+01  0.26854255735E+03  0.26302150479E+03 0.  0.
         25    1    4    4    0    0  0.11091587939E+00  0.17273175220E+02 -0.11958527749E+02  0.12684198583E+03  0.12509000000E+03 0.  0.
         25    1    4    4    0    0 -0.41217919918E+02 -0.51976104289E+02  0.55777708116E+01  0.14170057151E+03  0.12509000000E+03 0.  0.
         25    1    3    3    0    0  0.41107004039E+02  0.34702929068E+02  0.17075320940E+03  0.21839928042E+03  0.12509000000E+03 0.  0.
<mgrwt>
<rscale>  2 0.45836018E+03</rscale>
<asrwt>0</asrwt>
<pdfrwt beam="1">  1       21 0.47890757E-01 0.45836018E+03</pdfrwt>
<pdfrwt beam="2">  1       21 0.23718337E-01 0.45836018E+03</pdfrwt>
<totfact> 0.64461459E+04</totfact>
</mgrwt>
</event>
<event>
 7    0  0.4712189E-002  0.4600451E+03  0.7546771E-02  0.1024768E+00
         21   -1    0    0  502  501  0.00000000000E+00  0.00000000000E+00  0.11847125572E+03  0.11847125572E+03  0.00000000000E+00 0.  1.
         21   -1    0    0  501  502 -0.00000000000E+00 -0.00000000000E+00 -0.44660946605E+03  0.44660946605E+03  0.00000000000E+00 0.  1.
      99926    2    1    2    0    0  0.00000000000E+00  0.00000000000E+00 -0.32813821033E+03  0.56508072177E+03  0.46004514674E+03 0.  0.
      99925    2    3    3    0    0  0.30053695561E+02  0.18364080247E+02 -0.67406159598E+02  0.27375757742E+03  0.26298128599E+03 0.  0.
         25    1    4    4    0    0 -0.10430305820E+02 -0.22135337613E+02 -0.25980663556E+02  0.13008177209E+03  0.12509000000E+03 0.  0.
         25    1    3    3    0    0 -0.30053695561E+02 -0.18364080247E+02 -0.26073205073E+03  0.29132314435E+03  0.12509000000E+03 0.  0.
         25    1    4    4    0    0  0.40484001381E+02  0.40499417860E+02 -0.41425496042E+02  0.14367580533E+03  0.12509000000E+03 0.  0.
<mgrwt>
<rscale>  2 0.46004515E+03</rscale>
<asrwt>0</asrwt>
<pdfrwt beam="1">  1       21 0.17422244E-01 0.46004515E+03</pdfrwt>
<pdfrwt beam="2">  1       21 0.65677862E-01 0.46004515E+03</pdfrwt>
<totfact> 0.58510951E+04</totfact>
</mgrwt>
</event>
<event>
 7    0  0.4712189E-002  0.4457410E+03  0.7546771E-02  0.1029000E+00
         21   -1    0    0  502  501  0.00000000000E+00  0.00000000000E+00  0.11438878371E+03  0.11438878371E+03  0.00000000000E+00 0.  1.
         21   -1    0    0  501  502 -0.00000000000E+00 -0.00000000000E+00 -0.43423185856E+03  0.43423185856E+03  0.00000000000E+00 0.  1.
      99926    2    1    2    0    0  0.35527136788E-14  0.00000000000E+00 -0.31984307485E+03  0.54862064227E+03  0.44574097478E+03 0.  0.
      99925    2    3    3    0    0  0.24726094731E+02 -0.92531600574E+01 -0.32713441093E+03  0.42056724555E+03  0.26298837328E+03 0.  0.
         25    1    4    4    0    0 -0.24335139367E+02 -0.20078103359E+02 -0.17292144112E+03  0.21574211953E+03  0.12509000000E+03 0.  0.
         25    1    4    4    0    0  0.49061234099E+02  0.10824943302E+02 -0.15421296981E+03  0.20482512601E+03  0.12509000000E+03 0.  0.
         25    1    3    3    0    0 -0.24726094731E+02  0.92531600574E+01  0.72913360811E+01  0.12805339673E+03  0.12509000000E+03 0.  0.
<mgrwt>
<rscale>  2 0.44574097E+03</rscale>
<asrwt>0</asrwt>
<pdfrwt beam="1">  1       21 0.16821880E-01 0.44574097E+03</pdfrwt>
<pdfrwt beam="2">  1       21 0.63857625E-01 0.44574097E+03</pdfrwt>
<totfact> 0.66712285E+04</totfact>
</mgrwt>
</event>
<event>
 7    0  0.4712189E-002  0.4545767E+03  0.7546771E-02  0.1026366E+00
         21   -1    0    0  502  501  0.00000000000E+00  0.00000000000E+00  0.58188019631E+02  0.58188019631E+02  0.00000000000E+00 0.  1.
         21   -1    0    0  501  502 -0.00000000000E+00 -0.00000000000E+00 -0.88781136273E+03  0.88781136273E+03  0.00000000000E+00 0.  1.
      99926    2    1    2    0    0 -0.17763568394E-14  0.00000000000E+00 -0.82962334310E+03  0.94599938237E+03  0.45457666022E+03 0.  0.
      99925    2    3    3    0    0  0.13895270088E+02 -0.45568043687E+02 -0.73493123622E+03  0.78203710517E+03  0.26303723454E+03 0.  0.
         25    1    4    4    0    0  0.41148905361E+02 -0.85897890489E+01 -0.31684879903E+03  0.34323124338E+03  0.12509000000E+03 0.  0.
         25    1    4    4    0    0 -0.27253635273E+02 -0.36978254638E+02 -0.41808243720E+03  0.43880586179E+03  0.12509000000E+03 0.  0.
         25    1    3    3    0    0 -0.13895270088E+02  0.45568043687E+02 -0.94692106880E+02  0.16396227719E+03  0.12509000000E+03 0.  0.
<mgrwt>
<rscale>  2 0.45457666E+03</rscale>
<asrwt>0</asrwt>
<pdfrwt beam="1">  1       21 0.85570619E-02 0.45457666E+03</pdfrwt>
<pdfrwt beam="2">  1       21 0.13056049E+00 0.45457666E+03</pdfrwt>
<totfact> 0.41440244E+04</totfact>
</mgrwt>
</event>
<event>
 7    0  0.4712189E-002  0.4534017E+03  0.7546771E-02  0.1026712E+00
         21   -1    0    0  502  501  0.00000000000E+00  0.00000000000E+00  0.39256316908E+03  0.39256316908E+03  0.00000000000E+00 0. -1.
         21   -1    0    0  501  502 -0.00000000000E+00 -0.00000000000E+00 -0.13091723425E+03  0.13091723425E+03  0.00000000000E+00 0. -1.
      99926    2    1    2    0    0  0.00000000000E+00  0.00000000000E+00  0.26164593483E+03  0.52348040333E+03  0.45340173958E+03 0.  0.
      99925    2    3    3    0    0 -0.62553705571E+02 -0.54696012201E+02  0.78767167999E+02  0.28684403400E+03  0.26300306701E+03 0.  0.
         25    1    3    3    0    0  0.62553705571E+02  0.54696012201E+02  0.18287876683E+03  0.23663636933E+03  0.12509000000E+03 0.  0.
         25    1    4    4    0    0  0.97512142301E+01 -0.31998487881E+02  0.33622067681E+02  0.13377944887E+03  0.12509000000E+03 0.  0.
         25    1    4    4    0    0 -0.72304919801E+02 -0.22697524320E+02  0.45145100318E+02  0.15306458513E+03  0.12509000000E+03 0.  0.
<mgrwt>
<rscale>  2 0.45340174E+03</rscale>
<asrwt>0</asrwt>
<pdfrwt beam="1">  1       21 0.57729878E-01 0.45340174E+03</pdfrwt>
<pdfrwt beam="2">  1       21 0.19252535E-01 0.45340174E+03</pdfrwt>
<totfact> 0.64462885E+04</totfact>
</mgrwt>
</event>
<event>
 7    0  0.4712189E-002  0.4524695E+03  0.7546771E-02  0.1026988E+00
         21   -1    0    0  502  501  0.00000000000E+00  0.00000000000E+00  0.73975229566E+03  0.73975229566E+03  0.00000000000E+00 0. -1.
         21   -1    0    0  501  502 -0.00000000000E+00 -0.00000000000E+00 -0.69188231117E+02  0.69188231117E+02  0.00000000000E+00 0. -1.
      99926    2    1    2    0    0  0.00000000000E+00  0.00000000000E+00  0.67056406454E+03  0.80894052677E+03  0.45246945887E+03 0.  0.
      99925    2    3    3    0    0  0.38286606618E+02  0.27036562202E+02  0.24332153859E+03  0.36130169466E+03  0.26293859260E+03 0.  0.
         25    1    4    4    0    0 -0.75581535187E+01  0.87088876675E+01  0.76716818249E+02  0.14719357565E+03  0.12509000000E+03 0.  0.
         25    1    3    3    0    0 -0.38286606618E+02 -0.27036562202E+02  0.42724252595E+03  0.44763883212E+03  0.12509000000E+03 0.  0.
         25    1    4    4    0    0  0.45844760136E+02  0.18327674534E+02  0.16660472034E+03  0.21410811901E+03  0.12509000000E+03 0.  0.
<mgrwt>
<rscale>  2 0.45246946E+03</rscale>
<asrwt>0</asrwt>
<pdfrwt beam="1">  1       21 0.10878710E+00 0.45246946E+03</pdfrwt>
<pdfrwt beam="2">  1       21 0.10174740E-01 0.45246946E+03</pdfrwt>
<totfact> 0.48287170E+04</totfact>
</mgrwt>
</event>
<event>
 7    0  0.4712189E-002  0.4542364E+03  0.7546771E-02  0.1026466E+00
         21   -1    0    0  502  501  0.00000000000E+00  0.00000000000E+00  0.95709329780E+02  0.95709329780E+02  0.00000000000E+00 0. -1.
         21   -1    0    0  501  502 -0.00000000000E+00 -0.00000000000E+00 -0.53895142934E+03  0.53895142934E+03  0.00000000000E+00 0. -1.
      99926    2    1    2    0    0 -0.71054273576E-14  0.35527136788E-14 -0.44324209956E+03  0.63466075912E+03  0.45423641460E+03 0.  0.
      99925    2    3    3    0    0 -0.32337106937E+02  0.26166929827E+02 -0.42500212745E+03  0.50157957569E+03  0.26310618714E+03 0.  0.
         25    1    4    4    0    0  0.15400883899E+01  0.20581023760E+02 -0.14259222670E+03  0.19080356817E+03  0.12509000000E+03 0.  0.
         25    1    4    4    0    0 -0.33877195327E+02  0.55859060663E+01 -0.28240990075E+03  0.31077600752E+03  0.12509000000E+03 0.  0.
         25    1    3    3    0    0  0.32337106937E+02 -0.26166929827E+02 -0.18239972117E+02  0.13308118343E+03  0.12509000000E+03 0.  0.
<mgrwt>
<rscale>  2 0.45423641E+03</rscale>
<asrwt>0</asrwt>
<pdfrwt beam="1">  1       21 0.14074902E-01 0.45423641E+03</pdfrwt>
<pdfrwt beam="2">  1       21 0.79257562E-01 0.45423641E+03</pdfrwt>
<totfact> 0.56936323E+04</totfact>
</mgrwt>
</event>
<event>
 7    0  0.4712189E-002  0.4607484E+03  0.7546771E-02  0.1024564E+00
         21   -1    0    0  502  501  0.00000000000E+00  0.00000000000E+00  0.11759421658E+03  0.11759421658E+03  0.00000000000E+00 0. -1.
         21   -1    0    0  501  502 -0.00000000000E+00 -0.00000000000E+00 -0.45131700765E+03  0.45131700765E+03  0.00000000000E+00 0. -1.
      99926    2    1    2    0    0  0.35527136788E-14  0.00000000000E+00 -0.33372279107E+03  0.56891122424E+03  0.46074839097E+03 0.  0.
      99925    2    3    3    0    0 -0.25519597295E+02 -0.11513288134E+03 -0.21014680680E+03  0.35719121526E+03  0.26366086862E+03 0.  0.
         25    1    4    4    0    0 -0.45544004973E+02 -0.31040755469E+02 -0.10382050979E+03  0.17165078282E+03  0.12509000000E+03 0.  0.
         25    1    4    4    0    0  0.20024407678E+02 -0.84092125870E+02 -0.10632629701E+03  0.18554043245E+03  0.12509000000E+03 0.  0.
         25    1    3    3    0    0  0.25519597295E+02  0.11513288134E+03 -0.12357598427E+03  0.21172000897E+03  0.12509000000E+03 0.  0.
<mgrwt>
<rscale>  2 0.46074839E+03</rscale>
<asrwt>0</asrwt>
<pdfrwt beam="1">  1       21 0.17293267E-01 0.46074839E+03</pdfrwt>
<pdfrwt beam="2">  1       21 0.66370148E-01 0.46074839E+03</pdfrwt>
<totfact> 0.57954042E+04</totfact>
</mgrwt>
</event>
<event>
 7    0  0.4712189E-002  0.4339693E+03  0.7546771E-02  0.1032613E+00
         21   -1    0    0  502  501  0.00000000000E+00  0.00000000000E+00  0.43001024012E+02  0.43001024012E+02  0.00000000000E+00 0.  1.
         21   -1    0    0  501  502 -0.00000000000E+00 -0.00000000000E+00 -0.10949120817E+04  0.10949120817E+04  0.00000000000E+00 0.  1.
      99926    2    1    2    0    0  0.00000000000E+00  0.00000000000E+00 -0.10519110577E+04  0.11379131057E+04  0.43396931098E+03 0.  0.
      99925    2    3    3    0    0 -0.23350736296E+02  0.67717345410E+02 -0.82690863556E+03  0.87069691268E+03  0.26306715196E+03 0.  0.
         25    1    3    3    0    0  0.23350736296E+02 -0.67717345410E+02 -0.22500242215E+03  0.26721619305E+03  0.12509000000E+03 0.  0.
         25    1    4    4    0    0  0.15630802191E+02  0.14793333909E+02 -0.31413406255E+03  0.33880803128E+03  0.12509000000E+03 0.  0.
         25    1    4    4    0    0 -0.38981538487E+02  0.52924011501E+02 -0.51277457300E+03  0.53188888140E+03  0.12509000000E+03 0.  0.
<mgrwt>
<rscale>  2 0.43396931E+03</rscale>
<asrwt>0</asrwt>
<pdfrwt beam="1">  1       21 0.63236806E-02 0.43396931E+03</pdfrwt>
<pdfrwt beam="2">  1       21 0.16101647E+00 0.43396931E+03</pdfrwt>
<totfact> 0.40418754E+04</totfact>
</mgrwt>
</event>
<event>
 7    0  0.4712189E-002  0.4547905E+03  0.7546771E-02  0.1026303E+00
         21   -1    0    0  502  501  0.00000000000E+00  0.00000000000E+00  0.27933435180E+03  0.27933435180E+03  0.00000000000E+00 0. -1.
         21   -1    0    0  501  502 -0.00000000000E+00 -0.00000000000E+00 -0.18511365543E+03  0.18511365543E+03  0.00000000000E+00 0. -1.
      99926    2    1    2    0    0  0.00000000000E+00  0.17763568394E-14  0.94220696366E+02  0.46444800724E+03  0.45479051419E+03 0.  0.
      99925    2    3    3    0    0 -0.10807222649E+03 -0.14732636668E+02  0.29344130985E+02  0.28625391766E+03  0.26302769936E+03 0.  0.
         25    1    4    4    0    0 -0.19331491039E+02  0.11386053142E+02 -0.39731958692E+01  0.12714811496E+03  0.12509000000E+03 0.  0.
         25    1    4    4    0    0 -0.88740735454E+02 -0.26118689810E+02  0.33317326854E+02  0.15910580271E+03  0.12509000000E+03 0.  0.
         25    1    3    3    0    0  0.10807222649E+03  0.14732636668E+02  0.64876565381E+02  0.17819408957E+03  0.12509000000E+03 0.  0.
<mgrwt>
<rscale>  2 0.45479051E+03</rscale>
<asrwt>0</asrwt>
<pdfrwt beam="1">  1       21 0.41078582E-01 0.45479051E+03</pdfrwt>
<pdfrwt beam="2">  1       21 0.27222596E-01 0.45479051E+03</pdfrwt>
<totfact> 0.67964387E+04</totfact>
</mgrwt>
</event>
<event>
 7    0  0.4712189E-002  0.4519652E+03  0.7546771E-02  0.1027138E+00
         21   -1    0    0  502  501  0.00000000000E+00  0.00000000000E+00  0.51264224371E+03  0.51264224371E+03  0.00000000000E+00 0. -1.
         21   -1    0    0  501  502 -0.00000000000E+00 -0.00000000000E+00 -0.99617507427E+02  0.99617507427E+02  0.00000000000E+00 0. -1.
      99926    2    1    2    0    0  0.00000000000E+00 -0.17763568394E-14  0.41302473628E+03  0.61225975113E+03  0.45196523105E+03 0.  0.
      99925    2    3    3    0    0  0.10725713832E+03  0.80047663654E+01  0.22774756998E+03  0.36418051690E+03  0.26304053538E+03 0.  0.
         25    1    4    4    0    0  0.83345514672E+02  0.32243270760E+02  0.13716494159E+03  0.20602871796E+03  0.12509000000E+03 0.  0.
         25    1    3    3    0    0 -0.10725713832E+03 -0.80047663654E+01  0.18527716630E+03  0.24807923423E+03  0.12509000000E+03 0.  0.
         25    1    4    4    0    0  0.23911623648E+02 -0.24238504395E+02  0.90582628392E+02  0.15815179894E+03  0.12509000000E+03 0.  0.
<mgrwt>
<rscale>  2 0.45196523E+03</rscale>
<asrwt>0</asrwt>
<pdfrwt beam="1">  1       21 0.75388564E-01 0.45196523E+03</pdfrwt>
<pdfrwt beam="2">  1       21 0.14649634E-01 0.45196523E+03</pdfrwt>
<totfact> 0.59339517E+04</totfact>
</mgrwt>
</event>
<event>
 7    0  0.4712189E-002  0.4610646E+03  0.7546771E-02  0.1024473E+00
         21   -1    0    0  502  501  0.00000000000E+00  0.00000000000E+00  0.27409167196E+02  0.27409167196E+02  0.00000000000E+00 0.  1.
         21   -1    0    0  501  502 -0.00000000000E+00 -0.00000000000E+00 -0.19389546485E+04  0.19389546485E+04  0.00000000000E+00 0.  1.
      99926    2    1    2    0    0 -0.35527136788E-14  0.17763568394E-14 -0.19115454813E+04  0.19663638157E+04  0.46106456011E+03 0.  0.
      99925    2    3    3    0    0  0.31259272989E+02 -0.53483452520E+01 -0.16844598465E+04  0.17051720460E+04  0.26306080081E+03 0.  0.
         25    1    4    4    0    0 -0.19663123635E+02 -0.23196990431E+02 -0.81725726839E+03  0.82733408587E+03  0.12509000000E+03 0.  0.
         25    1    4    4    0    0  0.50922396624E+02  0.17848645179E+02 -0.86720257810E+03  0.87783796009E+03  0.12509000000E+03 0.  0.
         25    1    3    3    0    0 -0.31259272989E+02  0.53483452520E+01 -0.22708563485E+03  0.26119176978E+03  0.12509000000E+03 0.  0.
<mgrwt>
<rscale>  2 0.46106456E+03</rscale>
<asrwt>0</asrwt>
<pdfrwt beam="1">  1       21 0.40307593E-02 0.46106456E+03</pdfrwt>
<pdfrwt beam="2">  1       21 0.28514043E+00 0.46106456E+03</pdfrwt>
<totfact> 0.13614711E+04</totfact>
</mgrwt>
</event>
<event>
 7    0  0.4712189E-002  0.4512294E+03  0.7546771E-02  0.1027356E+00
         21   -1    0    0  502  501  0.00000000000E+00  0.00000000000E+00  0.10694354815E+04  0.10694354815E+04  0.00000000000E+00 0. -1.
         21   -1    0    0  501  502 -0.00000000000E+00 -0.00000000000E+00 -0.47597070985E+02  0.47597070985E+02  0.00000000000E+00 0. -1.
      99926    2    1    2    0    0 -0.13322676296E-14  0.00000000000E+00  0.10218384105E+04  0.11170325525E+04  0.45122941627E+03 0.  0.
      99925    2    3    3    0    0  0.29707826393E+01  0.10877463539E+03  0.67902843692E+03  0.73623479389E+03  0.26290931276E+03 0.  0.
         25    1    4    4    0    0  0.23074286490E+02  0.59920063880E+02  0.25767504546E+03  0.29354177540E+03  0.12509000000E+03 0.  0.
         25    1    4    4    0    0 -0.20103503850E+02  0.48854571512E+02  0.42135339147E+03  0.44269301849E+03  0.12509000000E+03 0.  0.
         25    1    3    3    0    0 -0.29707826393E+01 -0.10877463539E+03  0.34280997360E+03  0.38079775860E+03  0.12509000000E+03 0.  0.
<mgrwt>
<rscale>  2 0.45122942E+03</rscale>
<asrwt>0</asrwt>
<pdfrwt beam="1">  1       21 0.15726991E+00 0.45122942E+03</pdfrwt>
<pdfrwt beam="2">  1       21 0.69995699E-02 0.45122942E+03</pdfrwt>
<totfact> 0.35947490E+04</totfact>
</mgrwt>
</event>
<event>
 7    0  0.4712189E-002  0.4579630E+03  0.7546771E-02  0.1025374E+00
         21   -1    0    0  502  501  0.00000000000E+00  0.00000000000E+00  0.57199004960E+02  0.57199004960E+02  0.00000000000E+00 0.  1.
         21   -1    0    0  501  502 -0.00000000000E+00 -0.00000000000E+00 -0.91666846215E+03  0.91666846215E+03  0.00000000000E+00 0.  1.
      99926    2    1    2    0    0  0.00000000000E+00  0.00000000000E+00 -0.85946945719E+03  0.97386746711E+03  0.45796298502E+03 0.  0.
      99925    2    3    3    0    0 -0.23774073183E+02  0.18362101225E+02 -0.30171266208E+03  0.40146679982E+03  0.26314005317E+03 0.  0.
         25    1    4    4    0    0 -0.86551245165E+01 -0.31068856049E+02 -0.13750518376E+03  0.18866734921E+03  0.12509000000E+03 0.  0.
         25    1    3    3    0    0  0.23774073183E+02 -0.18362101225E+02 -0.55775679511E+03  0.57240066729E+03  0.12509000000E+03 0.  0.
         25    1    4    4    0    0 -0.15118948666E+02  0.49430957274E+02 -0.16420747831E+03  0.21279945061E+03  0.12509000000E+03 0.  0.
<mgrwt>
<rscale>  2 0.45796299E+03</rscale>
<asrwt>0</asrwt>
<pdfrwt beam="1">  1       21 0.84116187E-02 0.45796299E+03</pdfrwt>
<pdfrwt beam="2">  1       21 0.13480418E+00 0.45796299E+03</pdfrwt>
<totfact> 0.39271550E+04</totfact>
</mgrwt>
</event>
<event>
 7    0  0.4712189E-002  0.4687621E+03  0.7546771E-02  0.1022270E+00
         21   -1    0    0  502  501  0.00000000000E+00  0.00000000000E+00  0.68661394173E+03  0.68661394173E+03  0.00000000000E+00 0.  1.
         21   -1    0    0  501  502 -0.00000000000E+00 -0.00000000000E+00 -0.80007815702E+02  0.80007815702E+02  0.00000000000E+00 0.  1.
      99926    2    1    2    0    0  0.14210854715E-13  0.16098233857E-14  0.60660612603E+03  0.76662175743E+03  0.46876212180E+03 0.  0.
      99925    2    3    3    0    0  0.12568572812E+03 -0.49274910700E+00  0.37969126135E+03  0.47863736729E+03  0.26292799464E+03 0.  0.
         25    1    4    4    0    0  0.63629432002E+02 -0.14023289219E+02  0.12788528310E+03  0.19038779108E+03  0.12509000000E+03 0.  0.
         25    1    3    3    0    0 -0.12568572812E+03  0.49274910700E+00  0.22691486468E+03  0.28798439014E+03  0.12509000000E+03 0.  0.
         25    1    4    4    0    0  0.62056296119E+02  0.13530540112E+02  0.25180597825E+03  0.28824957621E+03  0.12509000000E+03 0.  0.
<mgrwt>
<rscale>  2 0.46876212E+03</rscale>
<asrwt>0</asrwt>
<pdfrwt beam="1">  1       21 0.10097264E+00 0.46876212E+03</pdfrwt>
<pdfrwt beam="2">  1       21 0.11765856E-01 0.46876212E+03</pdfrwt>
<totfact> 0.44424016E+04</totfact>
</mgrwt>
</event>
<event>
 7    0  0.4712189E-002  0.4572134E+03  0.7546771E-02  0.1025593E+00
         21   -1    0    0  502  501  0.00000000000E+00  0.00000000000E+00  0.19864673096E+03  0.19864673096E+03  0.00000000000E+00 0.  1.
         21   -1    0    0  501  502 -0.00000000000E+00 -0.00000000000E+00 -0.26308528094E+03  0.26308528094E+03  0.00000000000E+00 0.  1.
      99926    2    1    2    0    0  0.14210854715E-13  0.00000000000E+00 -0.64438549978E+02  0.46173201190E+03  0.45721343385E+03 0.  0.
      99925    2    3    3    0    0  0.10075038507E+03  0.47289041212E+02 -0.70510663335E+02  0.29418717560E+03  0.26303506826E+03 0.  0.
         25    1    4    4    0    0  0.66750165562E+02  0.58731352380E+02 -0.20746421138E+02  0.15486406441E+03  0.12509000000E+03 0.  0.
         25    1    3    3    0    0 -0.10075038507E+03 -0.47289041212E+02  0.60721133569E+01  0.16754483630E+03  0.12509000000E+03 0.  0.
         25    1    4    4    0    0  0.34000219507E+02 -0.11442311168E+02 -0.49764242197E+02  0.13932311119E+03  0.12509000000E+03 0.  0.
<mgrwt>
<rscale>  2 0.45721343E+03</rscale>
<asrwt>0</asrwt>
<pdfrwt beam="1">  1       21 0.29212755E-01 0.45721343E+03</pdfrwt>
<pdfrwt beam="2">  1       21 0.38689012E-01 0.45721343E+03</pdfrwt>
<totfact> 0.66866419E+04</totfact>
</mgrwt>
</event>
<event>
 7    0  0.4712189E-002  0.4455634E+03  0.7546771E-02  0.1029053E+00
         21   -1    0    0  502  501  0.00000000000E+00  0.00000000000E+00  0.39607238343E+03  0.39607238343E+03  0.00000000000E+00 0. -1.
         21   -1    0    0  501  502 -0.00000000000E+00 -0.00000000000E+00 -0.12530961295E+03  0.12530961295E+03  0.00000000000E+00 0. -1.
      99926    2    1    2    0    0  0.00000000000E+00  0.00000000000E+00  0.27076277048E+03  0.52138199638E+03  0.44556336056E+03 0.  0.
      99925    2    3    3    0    0 -0.92971927567E+02  0.26686424753E+02  0.21680390026E+03  0.35430413322E+03  0.26300483469E+03 0.  0.
         25    1    4    4    0    0 -0.14624940881E+02  0.21290818045E+02  0.68244212891E+02  0.14481701738E+03  0.12509000000E+03 0.  0.
         25    1    4    4    0    0 -0.78346986686E+02  0.53956067085E+01  0.14855968737E+03  0.20948711585E+03  0.12509000000E+03 0.  0.
         25    1    3    3    0    0  0.92971927567E+02 -0.26686424753E+02  0.53958870221E+02  0.16707786316E+03  0.12509000000E+03 0.  0.
<mgrwt>
<rscale>  2 0.44556336E+03</rscale>
<asrwt>0</asrwt>
<pdfrwt beam="1">  1       21 0.58245938E-01 0.44556336E+03</pdfrwt>
<pdfrwt beam="2">  1       21 0.18427884E-01 0.44556336E+03</pdfrwt>
<totfact> 0.68795956E+04</totfact>
</mgrwt>
</event>
<event>
 7    0  0.4712189E-002  0.4584360E+03  0.7546771E-02  0.1025236E+00
         21   -1    0    0  502  501  0.00000000000E+00  0.00000000000E+00  0.76367294147E+02  0.76367294147E+02  0.00000000000E+00 0.  1.
         21   -1    0    0  501  502 -0.00000000000E+00 -0.00000000000E+00 -0.68800247851E+03  0.68800247851E+03  0.00000000000E+00 0.  1.
      99926    2    1    2    0    0  0.17763568394E-14  0.14210854715E-13 -0.61163518436E+03  0.76436977266E+03  0.45843598310E+03 0.  0.
      99925    2    3    3    0    0  0.15206315408E+02 -0.86055553805E+02 -0.25555279038E+03  0.37696950191E+03  0.26298666569E+03 0.  0.
         25    1    3    3    0    0 -0.15206315408E+02  0.86055553805E+02 -0.35608239398E+03  0.38740027074E+03  0.12509000000E+03 0.  0.
         25    1    4    4    0    0  0.49988607400E+01 -0.84971185607E+02 -0.14856446541E+03  0.21204716332E+03  0.12509000000E+03 0.  0.
         25    1    4    4    0    0  0.10207454668E+02 -0.10843681980E+01 -0.10698832498E+03  0.16492233859E+03  0.12509000000E+03 0.  0.
<mgrwt>
<rscale>  2 0.45843598E+03</rscale>
<asrwt>0</asrwt>
<pdfrwt beam="1">  1       21 0.11230484E-01 0.45843598E+03</pdfrwt>
<pdfrwt beam="2">  1       21 0.10117684E+00 0.45843598E+03</pdfrwt>
<totfact> 0.48222246E+04</totfact>
</mgrwt>
</event>
<event>
 7    0  0.4712189E-002  0.4504918E+03  0.7546771E-02  0.1027575E+00
         21   -1    0    0  502  501  0.00000000000E+00  0.00000000000E+00  0.42786377815E+03  0.42786377815E+03  0.00000000000E+00 0. -1.
         21   -1    0    0  501  502 -0.00000000000E+00 -0.00000000000E+00 -0.11857915808E+03  0.11857915808E+03  0.00000000000E+00 0. -1.
      99926    2    1    2    0    0  0.14210854715E-13 -0.14210854715E-13  0.30928462007E+03  0.54644293623E+03  0.45049184936E+03 0.  0.
      99925    2    3    3    0    0 -0.74772672238E+02  0.64183327189E+02  0.13958780027E+03  0.31373073037E+03  0.26311929841E+03 0.  0.
         25    1    4    4    0    0 -0.53125186038E+02  0.70162170461E+02  0.88896811704E+02  0.17690440013E+03  0.12509000000E+03 0.  0.
         25    1    3    3    0    0  0.74772672238E+02 -0.64183327189E+02  0.16969681981E+03  0.23271220586E+03  0.12509000000E+03 0.  0.
         25    1    4    4    0    0 -0.21647486201E+02 -0.59788432719E+01  0.50690988563E+02  0.13682633024E+03  0.12509000000E+03 0.  0.
<mgrwt>
<rscale>  2 0.45049185E+03</rscale>
<asrwt>0</asrwt>
<pdfrwt beam="1">  1       21 0.62921143E-01 0.45049185E+03</pdfrwt>
<pdfrwt beam="2">  1       21 0.17438112E-01 0.45049185E+03</pdfrwt>
<totfact> 0.64367694E+04</totfact>
</mgrwt>
</event>
<event>
 7    0  0.4712189E-002  0.4543225E+03  0.7546771E-02  0.1026441E+00
         21   -1    0    0  502  501  0.00000000000E+00  0.00000000000E+00  0.14996882483E+03  0.14996882483E+03  0.00000000000E+00 0.  1.
         21   -1    0    0  501  502 -0.00000000000E+00 -0.00000000000E+00 -0.34408633296E+03  0.34408633296E+03  0.00000000000E+00 0.  1.
      99926    2    1    2    0    0 -0.26645352591E-14 -0.14210854715E-13 -0.19411750813E+03  0.49405515779E+03  0.45432245375E+03 0.  0.
      99925    2    3    3    0    0  0.71277777069E+01 -0.10998812389E+03 -0.14685400520E+03  0.32076482505E+03  0.26301289234E+03 0.  0.
         25    1    4    4    0    0 -0.12883581126E+02 -0.14770707173E+02 -0.61395669698E+02  0.14071637009E+03  0.12509000000E+03 0.  0.
         25    1    3    3    0    0 -0.71277777069E+01  0.10998812389E+03 -0.47263502932E+02  0.17329033274E+03  0.12509000000E+03 0.  0.
         25    1    4    4    0    0  0.20011358833E+02 -0.95217416716E+02 -0.85458335501E+02  0.18004845496E+03  0.12509000000E+03 0.  0.
<mgrwt>
<rscale>  2 0.45432245E+03</rscale>
<asrwt>0</asrwt>
<pdfrwt beam="1">  1       21 0.22054239E-01 0.45432245E+03</pdfrwt>
<pdfrwt beam="2">  1       21 0.50600931E-01 0.45432245E+03</pdfrwt>
<totfact> 0.66044874E+04</totfact>
</mgrwt>
</event>
<event>
 7    0  0.4712189E-002  0.4643582E+03  0.7546771E-02  0.1023525E+00
         21   -1    0    0  502  501  0.00000000000E+00  0.00000000000E+00  0.98772259496E+02  0.98772259496E+02  0.00000000000E+00 0. -1.
         21   -1    0    0  501  502 -0.00000000000E+00 -0.00000000000E+00 -0.54577193045E+03  0.54577193045E+03  0.00000000000E+00 0. -1.
      99926    2    1    2    0    0  0.17763568394E-14  0.00000000000E+00 -0.44699967095E+03  0.64454418995E+03  0.46435816668E+03 0.  0.
      99925    2    3    3    0    0  0.14691359157E+02 -0.99335027801E+01 -0.11177435450E+03  0.28630121179E+03  0.26298358701E+03 0.  0.
         25    1    4    4    0    0  0.38088387721E+02 -0.26031064207E+02 -0.39434302571E+02  0.13903565695E+03  0.12509000000E+03 0.  0.
         25    1    4    4    0    0 -0.23397028563E+02  0.16097561427E+02 -0.72340051934E+02  0.14726555484E+03  0.12509000000E+03 0.  0.
         25    1    3    3    0    0 -0.14691359157E+02  0.99335027801E+01 -0.33522531645E+03  0.35824297816E+03  0.12509000000E+03 0.  0.
<mgrwt>
<rscale>  2 0.46435817E+03</rscale>
<asrwt>0</asrwt>
<pdfrwt beam="1">  1       21 0.14525332E-01 0.46435817E+03</pdfrwt>
<pdfrwt beam="2">  1       21 0.80260579E-01 0.46435817E+03</pdfrwt>
<totfact> 0.52064355E+04</totfact>
</mgrwt>
</event>
<event>
 7    0  0.4712189E-002  0.4555230E+03  0.7546771E-02  0.1026088E+00
         21   -1    0    0  502  501  0.00000000000E+00  0.00000000000E+00  0.54017651424E+03  0.54017651424E+03  0.00000000000E+00 0.  1.
         21   -1    0    0  501  502 -0.00000000000E+00 -0.00000000000E+00 -0.96033989627E+02  0.96033989627E+02  0.00000000000E+00 0.  1.
      99926    2    1    2    0    0  0.00000000000E+00  0.00000000000E+00  0.44414252461E+03  0.63621050387E+03  0.45552302144E+03 0.  0.
      99925    2    3    3    0    0 -0.96633209642E+02 -0.46927085657E+02  0.22771329775E+03  0.36412734211E+03  0.26304989398E+03 0.  0.
         25    1    4    4    0    0 -0.46693371014E+02  0.15142347732E+02  0.12670876606E+03  0.18469483233E+03  0.12509000000E+03 0.  0.
         25    1    3    3    0    0  0.96633209642E+02  0.46927085657E+02  0.21642922686E+03  0.27208316176E+03  0.12509000000E+03 0.  0.
         25    1    4    4    0    0 -0.49939838628E+02 -0.62069433389E+02  0.10100453169E+03  0.17943250978E+03  0.12509000000E+03 0.  0.
<mgrwt>
<rscale>  2 0.45552302E+03</rscale>
<asrwt>0</asrwt>
<pdfrwt beam="1">  1       21 0.79437721E-01 0.45552302E+03</pdfrwt>
<pdfrwt beam="2">  1       21 0.14122646E-01 0.45552302E+03</pdfrwt>
<totfact> 0.56270335E+04</totfact>
</mgrwt>
</event>
<event>
 7    0  0.4712189E-002  0.4632767E+03  0.7546771E-02  0.1023835E+00
         21   -1    0    0  502  501  0.00000000000E+00  0.00000000000E+00  0.69878114460E+03  0.69878114460E+03  0.00000000000E+00 0.  1.
         21   -1    0    0  501  502 -0.00000000000E+00 -0.00000000000E+00 -0.76785580845E+02  0.76785580845E+02  0.00000000000E+00 0.  1.
      99926    2    1    2    0    0  0.00000000000E+00  0.00000000000E+00  0.62199556376E+03  0.77556672545E+03  0.46327666063E+03 0.  0.
      99925    2    3    3    0    0  0.50669754815E+02 -0.10713812158E+03  0.42696568543E+03  0.51531653296E+03  0.26306925222E+03 0.  0.
         25    1    4    4    0    0 -0.68317938847E+01 -0.31927917240E+02  0.16039352532E+03  0.20600887449E+03  0.12509000000E+03 0.  0.
         25    1    4    4    0    0  0.57501548700E+02 -0.75210204340E+02  0.26657216011E+03  0.30930765846E+03  0.12509000000E+03 0.  0.
         25    1    3    3    0    0 -0.50669754815E+02  0.10713812158E+03  0.19502987833E+03  0.26025019249E+03  0.12509000000E+03 0.  0.
<mgrwt>
<rscale>  2 0.46327666E+03</rscale>
<asrwt>0</asrwt>
<pdfrwt beam="1">  1       21 0.10276193E+00 0.46327666E+03</pdfrwt>
<pdfrwt beam="2">  1       21 0.11291998E-01 0.46327666E+03</pdfrwt>
<totfact> 0.45913018E+04</totfact>
</mgrwt>
</event>
<event>
 7    0  0.4712189E-002  0.4504179E+03  0.7546771E-02  0.1027597E+00
         21   -1    0    0  502  501  0.00000000000E+00  0.00000000000E+00  0.70637744411E+02  0.70637744411E+02  0.00000000000E+00 0.  1.
         21   -1    0    0  501  502 -0.00000000000E+00 -0.00000000000E+00 -0.71801669831E+03  0.71801669831E+03  0.00000000000E+00 0.  1.
      99926    2    1    2    0    0  0.00000000000E+00  0.71054273576E-14 -0.64737895390E+03  0.78865444272E+03  0.45041793933E+03 0.  0.
      99925    2    3    3    0    0  0.78427950304E+02 -0.45191759116E+02 -0.51475694443E+03  0.58511244711E+03  0.26303730809E+03 0.  0.
         25    1    3    3    0    0 -0.78427950304E+02  0.45191759116E+02 -0.13262200947E+03  0.20354199561E+03  0.12509000000E+03 0.  0.
         25    1    4    4    0    0  0.63799284639E+02  0.97047453388E+01 -0.25592672808E+03  0.29207966216E+03  0.12509000000E+03 0.  0.
         25    1    4    4    0    0  0.14628665665E+02 -0.54896504455E+02 -0.25883021634E+03  0.29303278494E+03  0.12509000000E+03 0.  0.
<mgrwt>
<rscale>  2 0.45041794E+03</rscale>
<asrwt>0</asrwt>
<pdfrwt beam="1">  1       21 0.10387904E-01 0.45041794E+03</pdfrwt>
<pdfrwt beam="2">  1       21 0.10559069E+00 0.45041794E+03</pdfrwt>
<totfact> 0.50095935E+04</totfact>
</mgrwt>
</event>
<event>
 7    0  0.4712189E-002  0.4506461E+03  0.7546771E-02  0.1027530E+00
         21   -1    0    0  502  501  0.00000000000E+00  0.00000000000E+00  0.11908740548E+03  0.11908740548E+03  0.00000000000E+00 0. -1.
         21   -1    0    0  501  502 -0.00000000000E+00 -0.00000000000E+00 -0.42632959002E+03  0.42632959002E+03  0.00000000000E+00 0. -1.
      99926    2    1    2    0    0 -0.35527136788E-14  0.00000000000E+00 -0.30724218454E+03  0.54541699551E+03  0.45064613504E+03 0.  0.
      99925    2    3    3    0    0 -0.25437685358E+02  0.50264509878E+02 -0.80660323077E+02  0.28053882571E+03  0.26272104641E+03 0.  0.
         25    1    3    3    0    0  0.25437685358E+02 -0.50264509878E+02 -0.22658186146E+03  0.26487816979E+03  0.12509000000E+03 0.  0.
         25    1    4    4    0    0 -0.52673783594E+02  0.21314858347E+02 -0.43918281514E+02  0.14423998827E+03  0.12509000000E+03 0.  0.
         25    1    4    4    0    0  0.27236098236E+02  0.28949651531E+02 -0.36742041562E+02  0.13629883745E+03  0.12509000000E+03 0.  0.
<mgrwt>
<rscale>  2 0.45064614E+03</rscale>
<asrwt>0</asrwt>
<pdfrwt beam="1">  1       21 0.17512854E-01 0.45064614E+03</pdfrwt>
<pdfrwt beam="2">  1       21 0.62695527E-01 0.45064614E+03</pdfrwt>
<totfact> 0.64359130E+04</totfact>
</mgrwt>
</event>
<event>
 7    0  0.4712189E-002  0.4542342E+03  0.7546771E-02  0.1026467E+00
         21   -1    0    0  502  501  0.00000000000E+00  0.00000000000E+00  0.98426492703E+02  0.98426492703E+02  0.00000000000E+00 0.  1.
         21   -1    0    0  501  502 -0.00000000000E+00 -0.00000000000E+00 -0.52406805338E+03  0.52406805338E+03  0.00000000000E+00 0.  1.
      99926    2    1    2    0    0  0.00000000000E+00  0.00000000000E+00 -0.42564156068E+03  0.62249454608E+03  0.45423421462E+03 0.  0.
      99925    2    3    3    0    0  0.38882837902E+02 -0.86861009977E+02 -0.18597338724E+03  0.33588496565E+03  0.26301311612E+03 0.  0.
         25    1    4    4    0    0  0.49020608104E+02 -0.32870637172E+02 -0.62672501517E+02  0.15185140550E+03  0.12509000000E+03 0.  0.
         25    1    3    3    0    0 -0.38882837902E+02  0.86861009977E+02 -0.23966817344E+03  0.28660958043E+03  0.12509000000E+03 0.  0.
         25    1    4    4    0    0 -0.10137770202E+02 -0.53990372804E+02 -0.12330088572E+03  0.18403356015E+03  0.12509000000E+03 0.  0.
<mgrwt>
<rscale>  2 0.45423421E+03</rscale>
<asrwt>0</asrwt>
<pdfrwt beam="1">  1       21 0.14474484E-01 0.45423421E+03</pdfrwt>
<pdfrwt beam="2">  1       21 0.77068831E-01 0.45423421E+03</pdfrwt>
<totfact> 0.57662470E+04</totfact>
</mgrwt>
</event>
<event>
 7    0  0.4712189E-002  0.4493926E+03  0.7546771E-02  0.1027903E+00
         21   -1    0    0  502  501  0.00000000000E+00  0.00000000000E+00  0.44392602728E+03  0.44392602728E+03  0.00000000000E+00 0.  1.
         21   -1    0    0  501  502 -0.00000000000E+00 -0.00000000000E+00 -0.11373160456E+03  0.11373160456E+03  0.00000000000E+00 0.  1.
      99926    2    1    2    0    0  0.00000000000E+00 -0.71054273576E-14  0.33019442272E+03  0.55765763183E+03  0.44939256508E+03 0.  0.
      99925    2    3    3    0    0 -0.22407573653E+01  0.61311074313E+02  0.98778157626E+02  0.28753716857E+03  0.26297610169E+03 0.  0.
         25    1    4    4    0    0 -0.29194384106E+01 -0.10201607438E+02  0.53886021602E+02  0.13661554574E+03  0.12509000000E+03 0.  0.
         25    1    3    3    0    0  0.22407573653E+01 -0.61311074313E+02  0.23141626509E+03  0.27012046327E+03  0.12509000000E+03 0.  0.
         25    1    4    4    0    0  0.67868104533E+00  0.71512681751E+02  0.44892136024E+02  0.15092162282E+03  0.12509000000E+03 0.  0.
<mgrwt>
<rscale>  2 0.44939257E+03</rscale>
<asrwt>0</asrwt>
<pdfrwt beam="1">  1       21 0.65283239E-01 0.44939257E+03</pdfrwt>
<pdfrwt beam="2">  1       21 0.16725236E-01 0.44939257E+03</pdfrwt>
<totfact> 0.64162303E+04</totfact>
</mgrwt>
</event>
<event>
 7    0  0.4712189E-002  0.4562595E+03  0.7546771E-02  0.1025872E+00
         21   -1    0    0  502  501  0.00000000000E+00  0.00000000000E+00  0.77039606007E+03  0.77039606007E+03  0.00000000000E+00 0.  1.
         21   -1    0    0  501  502 -0.00000000000E+00 -0.00000000000E+00 -0.67553805511E+02  0.67553805511E+02  0.00000000000E+00 0.  1.
      99926    2    1    2    0    0  0.00000000000E+00  0.00000000000E+00  0.70284225456E+03  0.83794986558E+03  0.45625951216E+03 0.  0.
      99925    2    3    3    0    0  0.11408137391E+03 -0.63201847031E+01  0.44951613631E+03  0.53319400445E+03  0.26301441969E+03 0.  0.
         25    1    3    3    0    0 -0.11408137391E+03  0.63201847031E+01  0.25332611825E+03  0.30475586113E+03  0.12509000000E+03 0.  0.
         25    1    4    4    0    0  0.88491558317E+02 -0.53662149517E+01  0.19151651247E+03  0.24532760710E+03  0.12509000000E+03 0.  0.
         25    1    4    4    0    0  0.25589815596E+02 -0.95396975141E+00  0.25799962384E+03  0.28786639735E+03  0.12509000000E+03 0.  0.
<mgrwt>
<rscale>  2 0.45625951E+03</rscale>
<asrwt>0</asrwt>
<pdfrwt beam="1">  1       21 0.11329353E+00 0.45625951E+03</pdfrwt>
<pdfrwt beam="2">  1       21 0.99343836E-02 0.45625951E+03</pdfrwt>
<totfact> 0.45531734E+04</totfact>
</mgrwt>
</event>
<event>
 7    0  0.4712189E-002  0.4556578E+03  0.7546771E-02  0.1026048E+00
         21   -1    0    0  502  501  0.00000000000E+00  0.00000000000E+00  0.41005934211E+02  0.41005934211E+02  0.00000000000E+00 0.  1.
         21   -1    0    0  501  502 -0.00000000000E+00 -0.00000000000E+00 -0.12658170830E+04  0.12658170830E+04  0.00000000000E+00 0.  1.
      99926    2    1    2    0    0  0.27755575616E-14  0.00000000000E+00 -0.12248111488E+04  0.13068230172E+04  0.45565781911E+03 0.  0.
      99925    2    3    3    0    0  0.84563989475E+00 -0.18558185259E+02 -0.10921940943E+04  0.11235747905E+04  0.26303469142E+03 0.  0.
         25    1    4    4    0    0 -0.25210552269E+02  0.33748590376E+01 -0.41908455183E+03  0.43809397543E+03  0.12509000000E+03 0.  0.
         25    1    4    4    0    0  0.26056192164E+02 -0.21933044297E+02 -0.67310954249E+03  0.68548081510E+03  0.12509000000E+03 0.  0.
         25    1    3    3    0    0 -0.84563989475E+00  0.18558185259E+02 -0.13261705447E+03  0.18324822668E+03  0.12509000000E+03 0.  0.
<mgrwt>
<rscale>  2 0.45565782E+03</rscale>
<asrwt>0</asrwt>
<pdfrwt beam="1">  1       21 0.60302847E-02 0.45565782E+03</pdfrwt>
<pdfrwt beam="2">  1       21 0.18614956E+00 0.45565782E+03</pdfrwt>
<totfact> 0.28769711E+04</totfact>
</mgrwt>
</event>
<event>
 7    0  0.4712189E-002  0.4518665E+03  0.7546771E-02  0.1027167E+00
         21   -1    0    0  502  501  0.00000000000E+00  0.00000000000E+00  0.17489577765E+03  0.17489577765E+03  0.00000000000E+00 0. -1.
         21   -1    0    0  501  502 -0.00000000000E+00 -0.00000000000E+00 -0.29186426360E+03  0.29186426360E+03  0.00000000000E+00 0. -1.
      99926    2    1    2    0    0 -0.22204460493E-15  0.14210854715E-13 -0.11696848595E+03  0.46676004125E+03  0.45186647298E+03 0.  0.
      99925    2    3    3    0    0 -0.15172557913E+01  0.10961459368E+03 -0.62846429713E+02  0.29184758805E+03  0.26307352529E+03 0.  0.
         25    1    4    4    0    0  0.20747483119E+02  0.36448649167E+02 -0.60669786679E+02  0.14521464526E+03  0.12509000000E+03 0.  0.
         25    1    4    4    0    0 -0.22264738911E+02  0.73165944517E+02 -0.21766430342E+01  0.14663294279E+03  0.12509000000E+03 0.  0.
         25    1    3    3    0    0  0.15172557913E+01 -0.10961459368E+03 -0.54122056240E+02  0.17491245320E+03  0.12509000000E+03 0.  0.
<mgrwt>
<rscale>  2 0.45186647E+03</rscale>
<asrwt>0</asrwt>
<pdfrwt beam="1">  1       21 0.25719967E-01 0.45186647E+03</pdfrwt>
<pdfrwt beam="2">  1       21 0.42921215E-01 0.45186647E+03</pdfrwt>
<totfact> 0.69386264E+04</totfact>
</mgrwt>
</event>
<event>
 7    0  0.4712189E-002  0.4455698E+03  0.7546771E-02  0.1029051E+00
         21   -1    0    0  502  501  0.00000000000E+00  0.00000000000E+00  0.62765816854E+03  0.62765816854E+03  0.00000000000E+00 0.  1.
         21   -1    0    0  501  502 -0.00000000000E+00 -0.00000000000E+00 -0.79076651471E+02  0.79076651471E+02  0.00000000000E+00 0.  1.
      99926    2    1    2    0    0  0.00000000000E+00 -0.35527136788E-14  0.54858151707E+03  0.70673482001E+03  0.44556977562E+03 0.  0.
      99925    2    3    3    0    0 -0.67829227604E+02  0.18799779768E+02  0.46979490905E+03  0.54300005418E+03  0.26303529504E+03 0.  0.
         25    1    4    4    0    0 -0.12350692260E+02 -0.27253388776E+01  0.15877315182E+03  0.20252503280E+03  0.12509000000E+03 0.  0.
         25    1    3    3    0    0  0.67829227604E+02 -0.18799779768E+02  0.78786608016E+02  0.16373476582E+03  0.12509000000E+03 0.  0.
         25    1    4    4    0    0 -0.55478535344E+02  0.21525118645E+02  0.31102175723E+03  0.34047502139E+03  0.12509000000E+03 0.  0.
<mgrwt>
<rscale>  2 0.44556978E+03</rscale>
<asrwt>0</asrwt>
<pdfrwt beam="1">  1       21 0.92302669E-01 0.44556978E+03</pdfrwt>
<pdfrwt beam="2">  1       21 0.11628920E-01 0.44556978E+03</pdfrwt>
<totfact> 0.56624822E+04</totfact>
</mgrwt>
</event>
<event>
 7    0  0.4712189E-002  0.4578075E+03  0.7546771E-02  0.1025419E+00
         21   -1    0    0  502  501  0.00000000000E+00  0.00000000000E+00  0.26831493690E+03  0.26831493690E+03  0.00000000000E+00 0.  1.
         21   -1    0    0  501  502 -0.00000000000E+00 -0.00000000000E+00 -0.19528143614E+03  0.19528143614E+03  0.00000000000E+00 0.  1.
      99926    2    1    2    0    0 -0.71054273576E-14  0.00000000000E+00  0.73033500761E+02  0.46359637304E+03  0.45780749761E+03 0.  0.
      99925    2    3    3    0    0 -0.50602704774E+02 -0.10040623313E+03  0.73541836270E+02  0.29540061838E+03  0.26307998456E+03 0.  0.
         25    1    4    4    0    0 -0.54614576419E+02 -0.63229522663E+02  0.67012594861E+02  0.16467823312E+03  0.12509000000E+03 0.  0.
         25    1    4    4    0    0  0.40118716449E+01 -0.37176710466E+02  0.65292414090E+01  0.13072238526E+03  0.12509000000E+03 0.  0.
         25    1    3    3    0    0  0.50602704774E+02  0.10040623313E+03 -0.50833550888E+00  0.16819575466E+03  0.12509000000E+03 0.  0.
<mgrwt>
<rscale>  2 0.45780750E+03</rscale>
<asrwt>0</asrwt>
<pdfrwt beam="1">  1       21 0.39458079E-01 0.45780750E+03</pdfrwt>
<pdfrwt beam="2">  1       21 0.28717858E-01 0.45780750E+03</pdfrwt>
<totfact> 0.66419629E+04</totfact>
</mgrwt>
</event>
<event>
 7    0  0.4712189E-002  0.4685952E+03  0.7546771E-02  0.1022317E+00
         21   -1    0    0  502  501  0.00000000000E+00  0.00000000000E+00  0.15463381422E+03  0.15463381422E+03  0.00000000000E+00 0. -1.
         21   -1    0    0  501  502 -0.00000000000E+00 -0.00000000000E+00 -0.35500237282E+03  0.35500237282E+03  0.00000000000E+00 0. -1.
      99926    2    1    2    0    0 -0.14210854715E-13 -0.35527136788E-14 -0.20036855859E+03  0.50963618704E+03  0.46859522391E+03 0.  0.
      99925    2    3    3    0    0  0.12152684275E+03  0.29739660623E+02 -0.11402505327E+03  0.31277092872E+03  0.26300327024E+03 0.  0.
         25    1    4    4    0    0  0.86407800472E+02 -0.72917164727E+01 -0.85900990682E+02  0.17477404101E+03  0.12509000000E+03 0.  0.
         25    1    4    4    0    0  0.35119042278E+02  0.37031377096E+02 -0.28124062589E+02  0.13799688771E+03  0.12509000000E+03 0.  0.
         25    1    3    3    0    0 -0.12152684275E+03 -0.29739660623E+02 -0.86343505324E+02  0.19686525832E+03  0.12509000000E+03 0.  0.
<mgrwt>
<rscale>  2 0.46859522E+03</rscale>
<asrwt>0</asrwt>
<pdfrwt beam="1">  1       21 0.22740267E-01 0.46859522E+03</pdfrwt>
<pdfrwt beam="2">  1       21 0.52206231E-01 0.46859522E+03</pdfrwt>
<totfact> 0.58074156E+04</totfact>
</mgrwt>
</event>
<event>
 7    0  0.4712189E-002  0.4444514E+03  0.7546771E-02  0.1029390E+00
         21   -1    0    0  502  501  0.00000000000E+00  0.00000000000E+00  0.55994587052E+02  0.55994587052E+02  0.00000000000E+00 0.  1.
         21   -1    0    0  501  502 -0.00000000000E+00 -0.00000000000E+00 -0.88194709083E+03  0.88194709083E+03  0.00000000000E+00 0.  1.
      99926    2    1    2    0    0 -0.71054273576E-14  0.00000000000E+00 -0.82595250378E+03  0.93794167789E+03  0.44445140635E+03 0.  0.
      99925    2    3    3    0    0 -0.60138318664E+02  0.73441254053E+02 -0.44005806637E+03  0.52132163505E+03  0.26289714761E+03 0.  0.
         25    1    4    4    0    0 -0.37037603192E+02  0.51127807976E+02 -0.15848716895E+03  0.21154556866E+03  0.12509000000E+03 0.  0.
         25    1    4    4    0    0 -0.23100715472E+02  0.22313446078E+02 -0.28157089743E+03  0.30977606639E+03  0.12509000000E+03 0.  0.
         25    1    3    3    0    0  0.60138318664E+02 -0.73441254053E+02 -0.38589443741E+03  0.41662004284E+03  0.12509000000E+03 0.  0.
<mgrwt>
<rscale>  2 0.44445141E+03</rscale>
<asrwt>0</asrwt>
<pdfrwt beam="1">  1       21 0.82344983E-02 0.44445141E+03</pdfrwt>
<pdfrwt beam="2">  1       21 0.12969810E+00 0.44445141E+03</pdfrwt>
<totfact> 0.45252427E+04</totfact>
</mgrwt>
</event>
<event>
 7    0  0.4712189E-002  0.4518564E+03  0.7546771E-02  0.1027170E+00
         21   -1    0    0  502  501  0.00000000000E+00  0.00000000000E+00  0.10952155672E+04  0.10952155672E+04  0.00000000000E+00 0.  1.
         21   -1    0    0  501  502 -0.00000000000E+00 -0.00000000000E+00 -0.46605941150E+02  0.46605941150E+02  0.00000000000E+00 0.  1.
      99926    2    1    2    0    0  0.00000000000E+00  0.00000000000E+00  0.10486096261E+04  0.11418215084E+04  0.45185640317E+03 0.  0.
      99925    2    3    3    0    0  0.45205346241E+02 -0.24526939488E+02  0.41569512632E+03  0.49461723908E+03  0.26305642182E+03 0.  0.
         25    1    4    4    0    0  0.58599741002E+02  0.56817946015E-01  0.18758822970E+03  0.23296090851E+03  0.12509000000E+03 0.  0.
         25    1    3    3    0    0 -0.45205346241E+02  0.24526939488E+02  0.63291449974E+03  0.64720426927E+03  0.12509000000E+03 0.  0.
         25    1    4    4    0    0 -0.13394394761E+02 -0.24583757434E+02  0.22810689662E+03  0.26165633057E+03  0.12509000000E+03 0.  0.
<mgrwt>
<rscale>  2 0.45185640E+03</rscale>
<asrwt>0</asrwt>
<pdfrwt beam="1">  1       21 0.16106110E+00 0.45185640E+03</pdfrwt>
<pdfrwt beam="2">  1       21 0.68538156E-02 0.45185640E+03</pdfrwt>
<totfact> 0.34904024E+04</totfact>
</mgrwt>
</event>
<event>
 7    0  0.4712189E-002  0.4707939E+03  0.7546771E-02  0.1021696E+00
         21   -1    0    0  502  501  0.00000000000E+00  0.00000000000E+00  0.33413691099E+03  0.33413691099E+03  0.00000000000E+00 0. -1.
         21   -1    0    0  501  502 -0.00000000000E+00 -0.00000000000E+00 -0.16583535598E+03  0.16583535598E+03  0.00000000000E+00 0. -1.
      99926    2    1    2    0    0  0.00000000000E+00  0.00000000000E+00  0.16830155501E+03  0.49997226696E+03  0.47079385543E+03 0.  0.
      99925    2    3    3    0    0  0.87095897459E+02 -0.92780015589E+02  0.98587964640E+02  0.30839638271E+03  0.26304926430E+03 0.  0.
         25    1    3    3    0    0 -0.87095897459E+02  0.92780015589E+02  0.69713590372E+02  0.19157588426E+03  0.12509000000E+03 0.  0.
         25    1    4    4    0    0  0.58382631025E+02 -0.11818614145E+02  0.64708865549E+02  0.15291486725E+03  0.12509000000E+03 0.  0.
         25    1    4    4    0    0  0.28713266434E+02 -0.80961401444E+02  0.33879099091E+02  0.15548151546E+03  0.12509000000E+03 0.  0.
<mgrwt>
<rscale>  2 0.47079386E+03</rscale>
<asrwt>0</asrwt>
<pdfrwt beam="1">  1       21 0.49137781E-01 0.47079386E+03</pdfrwt>
<pdfrwt beam="2">  1       21 0.24387552E-01 0.47079386E+03</pdfrwt>
<totfact> 0.57692665E+04</totfact>
</mgrwt>
</event>
<event>
 7    0  0.4712189E-002  0.4713146E+03  0.7546771E-02  0.1021550E+00
         21   -1    0    0  502  501  0.00000000000E+00  0.00000000000E+00  0.35731200340E+03  0.35731200340E+03  0.00000000000E+00 0.  1.
         21   -1    0    0  501  502 -0.00000000000E+00 -0.00000000000E+00 -0.15542260970E+03  0.15542260970E+03  0.00000000000E+00 0.  1.
      99926    2    1    2    0    0  0.00000000000E+00  0.00000000000E+00  0.20188939370E+03  0.51273461310E+03  0.47131460425E+03 0.  0.
      99925    2    3    3    0    0 -0.83488636129E+02 -0.54138280261E+02  0.36484871632E+02  0.28271837504E+03  0.26210156042E+03 0.  0.
         25    1    4    4    0    0 -0.36680090259E+02 -0.40249491925E+02 -0.18378630828E+02  0.13766166058E+03  0.12509000000E+03 0.  0.
         25    1    4    4    0    0 -0.46808545870E+02 -0.13888788335E+02  0.54863502460E+02  0.14505671446E+03  0.12509000000E+03 0.  0.
         25    1    3    3    0    0  0.83488636129E+02  0.54138280261E+02  0.16540452206E+03  0.23001623806E+03  0.12509000000E+03 0.  0.
<mgrwt>
<rscale>  2 0.47131460E+03</rscale>
<asrwt>0</asrwt>
<pdfrwt beam="1">  1       21 0.52545883E-01 0.47131460E+03</pdfrwt>
<pdfrwt beam="2">  1       21 0.22856266E-01 0.47131460E+03</pdfrwt>
<totfact> 0.56681530E+04</totfact>
</mgrwt>
</event>
<event>
 7    0  0.4712189E-002  0.4535269E+03  0.7546771E-02  0.1026675E+00
         21   -1    0    0  502  501  0.00000000000E+00  0.00000000000E+00  0.14626192460E+03  0.14626192460E+03  0.00000000000E+00 0.  1.
         21   -1    0    0  501  502 -0.00000000000E+00 -0.00000000000E+00 -0.35157246500E+03  0.35157246500E+03  0.00000000000E+00 0.  1.
      99926    2    1    2    0    0  0.14210854715E-13  0.00000000000E+00 -0.20531054040E+03  0.49783438960E+03  0.45352691372E+03 0.  0.
      99925    2    3    3    0    0 -0.74576589685E+02 -0.83192779167E+02 -0.13272872350E+03  0.31508227749E+03  0.26301562941E+03 0.  0.
         25    1    4    4    0    0 -0.43086944983E+02 -0.46715190636E+02 -0.23710539065E+02  0.14229719473E+03  0.12509000000E+03 0.  0.
         25    1    4    4    0    0 -0.31489644702E+02 -0.36477588531E+02 -0.10901818443E+03  0.17278508276E+03  0.12509000000E+03 0.  0.
         25    1    3    3    0    0  0.74576589685E+02  0.83192779167E+02 -0.72581816903E+02  0.18275211211E+03  0.12509000000E+03 0.  0.
<mgrwt>
<rscale>  2 0.45352691E+03</rscale>
<asrwt>0</asrwt>
<pdfrwt beam="1">  1       21 0.21509107E-01 0.45352691E+03</pdfrwt>
<pdfrwt beam="2">  1       21 0.51701833E-01 0.45352691E+03</pdfrwt>
<totfact> 0.66193737E+04</totfact>
</mgrwt>
</event>
<event>
 7    0  0.4712189E-002  0.4451119E+03  0.7546771E-02  0.1029190E+00
         21   -1    0    0  502  501  0.00000000000E+00  0.00000000000E+00  0.86627860648E+02  0.86627860648E+02  0.00000000000E+00 0. -1.
         21   -1    0    0  501  502 -0.00000000000E+00 -0.00000000000E+00 -0.57176939200E+03  0.57176939200E+03  0.00000000000E+00 0. -1.
      99926    2    1    2    0    0  0.00000000000E+00 -0.17763568394E-14 -0.48514153135E+03  0.65839725265E+03  0.44511193744E+03 0.  0.
      99925    2    3    3    0    0 -0.92884787476E+02 -0.13762492149E+02 -0.37347887369E+03  0.46621752648E+03  0.26278379510E+03 0.  0.
         25    1    4    4    0    0 -0.20477689892E+02  0.25430029355E+02 -0.17589160081E+03  0.21829197308E+03  0.12509000000E+03 0.  0.
         25    1    4    4    0    0 -0.72407097584E+02 -0.39192521504E+02 -0.19758727288E+03  0.24792555340E+03  0.12509000000E+03 0.  0.
         25    1    3    3    0    0  0.92884787476E+02  0.13762492149E+02 -0.11166265766E+03  0.19217972617E+03  0.12509000000E+03 0.  0.
<mgrwt>
<rscale>  2 0.44511194E+03</rscale>
<asrwt>0</asrwt>
<pdfrwt beam="1">  1       21 0.12739392E-01 0.44511194E+03</pdfrwt>
<pdfrwt beam="2">  1       21 0.84083732E-01 0.44511194E+03</pdfrwt>
<totfact> 0.59742795E+04</totfact>
</mgrwt>
</event>
<event>
 7    0  0.4712189E-002  0.4504190E+03  0.7546771E-02  0.1027597E+00
         21   -1    0    0  502  501  0.00000000000E+00  0.00000000000E+00  0.30857612298E+03  0.30857612298E+03  0.00000000000E+00 0.  1.
         21   -1    0    0  501  502 -0.00000000000E+00 -0.00000000000E+00 -0.16436562734E+03  0.16436562734E+03  0.00000000000E+00 0.  1.
      99926    2    1    2    0    0  0.00000000000E+00  0.00000000000E+00  0.14421049564E+03  0.47294175032E+03  0.45041895180E+03 0.  0.
      99925    2    3    3    0    0  0.38926707860E+02 -0.91834274764E+02  0.45589355331E+02  0.28499904623E+03  0.26305369115E+03 0.  0.
         25    1    4    4    0    0  0.27467341829E+02 -0.67735536773E+02 -0.10662450714E+02  0.14527131088E+03  0.12509000000E+03 0.  0.
         25    1    3    3    0    0 -0.38926707860E+02  0.91834274764E+02  0.98621140305E+02  0.18794270409E+03  0.12509000000E+03 0.  0.
         25    1    4    4    0    0  0.11459366031E+02 -0.24098737992E+02  0.56251806045E+02  0.13972773535E+03  0.12509000000E+03 0.  0.
<mgrwt>
<rscale>  2 0.45041895E+03</rscale>
<asrwt>0</asrwt>
<pdfrwt beam="1">  1       21 0.45378842E-01 0.45041895E+03</pdfrwt>
<pdfrwt beam="2">  1       21 0.24171416E-01 0.45041895E+03</pdfrwt>
<totfact> 0.69717952E+04</totfact>
</mgrwt>
</event>
<event>
 7    0  0.4712189E-002  0.4573196E+03  0.7546771E-02  0.1025561E+00
         21   -1    0    0  502  501  0.00000000000E+00  0.00000000000E+00  0.23369673193E+03  0.23369673193E+03  0.00000000000E+00 0.  1.
         21   -1    0    0  501  502 -0.00000000000E+00 -0.00000000000E+00 -0.22373141876E+03  0.22373141876E+03  0.00000000000E+00 0.  1.
      99926    2    1    2    0    0  0.00000000000E+00  0.14210854715E-13  0.99653131691E+01  0.45742815069E+03  0.45731958801E+03 0.  0.
      99925    2    3    3    0    0  0.39395687495E+02  0.96207210423E+02 -0.43627004977E+02  0.28617543628E+03  0.26303082944E+03 0.  0.
         25    1    4    4    0    0 -0.18752240398E+02  0.40599970707E+02 -0.71465628935E+01  0.13303603122E+03  0.12509000000E+03 0.  0.
         25    1    3    3    0    0 -0.39395687495E+02 -0.96207210423E+02  0.53592318146E+02  0.17125271442E+03  0.12509000000E+03 0.  0.
         25    1    4    4    0    0  0.58147927893E+02  0.55607239716E+02 -0.36480442084E+02  0.15313940506E+03  0.12509000000E+03 0.  0.
<mgrwt>
<rscale>  2 0.45731959E+03</rscale>
<asrwt>0</asrwt>
<pdfrwt beam="1">  1       21 0.34367167E-01 0.45731959E+03</pdfrwt>
<pdfrwt beam="2">  1       21 0.32901679E-01 0.45731959E+03</pdfrwt>
<totfact> 0.67117449E+04</totfact>
</mgrwt>
</event>
<event>
 7    0  0.4712189E-002  0.4570163E+03  0.7546771E-02  0.1025650E+00
         21   -1    0    0  502  501  0.00000000000E+00  0.00000000000E+00  0.44332720901E+03  0.44332720901E+03  0.00000000000E+00 0. -1.
         21   -1    0    0  501  502 -0.00000000000E+00 -0.00000000000E+00 -0.11778201154E+03  0.11778201154E+03  0.00000000000E+00 0. -1.
      99926    2    1    2    0    0 -0.71054273576E-14  0.00000000000E+00  0.32554519746E+03  0.56110922055E+03  0.45701628176E+03 0.  0.
      99925    2    3    3    0    0  0.41988046376E+02  0.31552188238E+02  0.80048344886E+02  0.28061902581E+03  0.26378165877E+03 0.  0.
         25    1    4    4    0    0  0.43236088428E+02  0.34482234015E+02  0.98045815885E+01  0.13712046428E+03  0.12509000000E+03 0.  0.
         25    1    4    4    0    0 -0.12480420520E+01 -0.29300457771E+01  0.70243763297E+02  0.14349856152E+03  0.12509000000E+03 0.  0.
         25    1    3    3    0    0 -0.41988046376E+02 -0.31552188238E+02  0.24549685258E+03  0.28049019474E+03  0.12509000000E+03 0.  0.
<mgrwt>
<rscale>  2 0.45701628E+03</rscale>
<asrwt>0</asrwt>
<pdfrwt beam="1">  1       21 0.65195177E-01 0.45701628E+03</pdfrwt>
<pdfrwt beam="2">  1       21 0.17320884E-01 0.45701628E+03</pdfrwt>
<totfact> 0.60172916E+04</totfact>
</mgrwt>
</event>
<event>
 7    0  0.4712189E-002  0.4502568E+03  0.7546771E-02  0.1027645E+00
         21   -1    0    0  502  501  0.00000000000E+00  0.00000000000E+00  0.22337536864E+03  0.22337536864E+03  0.00000000000E+00 0.  1.
         21   -1    0    0  501  502 -0.00000000000E+00 -0.00000000000E+00 -0.22689519493E+03  0.22689519493E+03  0.00000000000E+00 0.  1.
      99926    2    1    2    0    0  0.00000000000E+00  0.00000000000E+00 -0.35198262893E+01  0.45027056358E+03  0.45025680589E+03 0.  0.
      99925    2    3    3    0    0 -0.95823059428E+02  0.47393655885E+02 -0.21181042154E+02  0.28477843693E+03  0.26310055921E+03 0.  0.
         25    1    4    4    0    0 -0.23579522223E+02 -0.79717112897E+01 -0.25284489028E+02  0.13002444207E+03  0.12509000000E+03 0.  0.
         25    1    4    4    0    0 -0.72243537205E+02  0.55365367175E+02  0.41034468744E+01  0.15475399486E+03  0.12509000000E+03 0.  0.
         25    1    3    3    0    0  0.95823059428E+02 -0.47393655885E+02  0.17661215865E+02  0.16549212665E+03  0.12509000000E+03 0.  0.
<mgrwt>
<rscale>  2 0.45025681E+03</rscale>
<asrwt>0</asrwt>
<pdfrwt beam="1">  1       21 0.32849319E-01 0.45025681E+03</pdfrwt>
<pdfrwt beam="2">  1       21 0.33366940E-01 0.45025681E+03</pdfrwt>
<totfact> 0.71563947E+04</totfact>
</mgrwt>
</event>
<event>
 7    0  0.4712189E-002  0.4171440E+03  0.7546771E-02  0.1038000E+00
         21   -1    0    0  502  501  0.00000000000E+00  0.00000000000E+00  0.10743386877E+03  0.10743386877E+03  0.00000000000E+00 0. -1.
         21   -1    0    0  501  502 -0.00000000000E+00 -0.00000000000E+00 -0.40492149832E+03  0.40492149832E+03  0.00000000000E+00 0. -1.
      99926    2    1    2    0    0  0.00000000000E+00  0.00000000000E+00 -0.29748762955E+03  0.51235536709E+03  0.41714401883E+03 0.  0.
      99925    2    3    3    0    0  0.52712548748E+02  0.36751791145E+02 -0.23489620697E+03  0.35842518412E+03  0.26298874047E+03 0.  0.
         25    1    3    3    0    0 -0.52712548748E+02 -0.36751791145E+02 -0.62591422584E+02  0.15393018297E+03  0.12509000000E+03 0.  0.
         25    1    4    4    0    0  0.10568900693E+02 -0.54709801001E+01 -0.73029829099E+02  0.14533580881E+03  0.12509000000E+03 0.  0.
         25    1    4    4    0    0  0.42143648056E+02  0.42222771245E+02 -0.16186637787E+03  0.21308937530E+03  0.12509000000E+03 0.  0.
<mgrwt>
<rscale>  2 0.41714402E+03</rscale>
<asrwt>0</asrwt>
<pdfrwt beam="1">  1       21 0.15799098E-01 0.41714402E+03</pdfrwt>
<pdfrwt beam="2">  1       21 0.59547281E-01 0.41714402E+03</pdfrwt>
<totfact> 0.87981428E+04</totfact>
</mgrwt>
</event>
<event>
 7    0  0.4712189E-002  0.4546408E+03  0.7546771E-02  0.1026347E+00
         21   -1    0    0  502  501  0.00000000000E+00  0.00000000000E+00  0.46405738974E+02  0.46405738974E+02  0.00000000000E+00 0.  1.
         21   -1    0    0  501  502 -0.00000000000E+00 -0.00000000000E+00 -0.11135380011E+04  0.11135380011E+04  0.00000000000E+00 0.  1.
      99926    2    1    2    0    0  0.00000000000E+00  0.00000000000E+00 -0.10671322621E+04  0.11599437400E+04  0.45464075407E+03 0.  0.
      99925    2    3    3    0    0  0.26809041957E+02 -0.10437687712E+03 -0.75688539371E+03  0.80849831803E+03  0.26302238279E+03 0.  0.
         25    1    4    4    0    0  0.62944034077E+01 -0.38224269998E+02 -0.47078055136E+03  0.48865381403E+03  0.12509000000E+03 0.  0.
         25    1    3    3    0    0 -0.26809041957E+02  0.10437687712E+03 -0.31024686837E+03  0.35144542199E+03  0.12509000000E+03 0.  0.
         25    1    4    4    0    0  0.20514638549E+02 -0.66152607118E+02 -0.28610484235E+03  0.31984450400E+03  0.12509000000E+03 0.  0.
<mgrwt>
<rscale>  2 0.45464075E+03</rscale>
<asrwt>0</asrwt>
<pdfrwt beam="1">  1       21 0.68243727E-02 0.45464075E+03</pdfrwt>
<pdfrwt beam="2">  1       21 0.16375560E+00 0.45464075E+03</pdfrwt>
<totfact> 0.33545907E+04</totfact>
</mgrwt>
</event>
<event>
 7    0  0.4712189E-002  0.4476955E+03  0.7546771E-02  0.1028411E+00
         21   -1    0    0  502  501  0.00000000000E+00  0.00000000000E+00  0.11127426524E+03  0.11127426524E+03  0.00000000000E+00 0.  1.
         21   -1    0    0  501  502 -0.00000000000E+00 -0.00000000000E+00 -0.45030912256E+03  0.45030912256E+03  0.00000000000E+00 0.  1.
      99926    2    1    2    0    0  0.00000000000E+00  0.35527136788E-14 -0.33903485732E+03  0.56158338781E+03  0.44769550700E+03 0.  0.
      99925    2    3    3    0    0 -0.40190203322E+02 -0.17907945368E+02 -0.93695712526E+02  0.28270213885E+03  0.26306969764E+03 0.  0.
         25    1    4    4    0    0  0.11456678156E+02  0.15214584448E+02 -0.55970986592E+02  0.13835822525E+03  0.12509000000E+03 0.  0.
         25    1    4    4    0    0 -0.51646881478E+02 -0.33122529815E+02 -0.37724725935E+02  0.14434391360E+03  0.12509000000E+03 0.  0.
         25    1    3    3    0    0  0.40190203322E+02  0.17907945368E+02 -0.24533914479E+03  0.27888124895E+03  0.12509000000E+03 0.  0.
<mgrwt>
<rscale>  2 0.44769551E+03</rscale>
<asrwt>0</asrwt>
<pdfrwt beam="1">  1       21 0.16363863E-01 0.44769551E+03</pdfrwt>
<pdfrwt beam="2">  1       21 0.66221930E-01 0.44769551E+03</pdfrwt>
<totfact> 0.64769179E+04</totfact>
</mgrwt>
</event>
<event>
 7    0  0.4712189E-002  0.4643938E+03  0.7546771E-02  0.1023515E+00
         21   -1    0    0  502  501  0.00000000000E+00  0.00000000000E+00  0.13046532258E+04  0.13046532258E+04  0.00000000000E+00 0. -1.
         21   -1    0    0  501  502 -0.00000000000E+00 -0.00000000000E+00 -0.41325457908E+02  0.41325457908E+02  0.00000000000E+00 0. -1.
      99926    2    1    2    0    0  0.00000000000E+00  0.00000000000E+00  0.12633277679E+04  0.13459786837E+04  0.46439376382E+03 0.  0.
      99925    2    3    3    0    0  0.10486242721E+03  0.57281697274E+02  0.72090655962E+03  0.77664082552E+03  0.26303494574E+03 0.  0.
         25    1    3    3    0    0 -0.10486242721E+03 -0.57281697274E+02  0.54242120829E+03  0.56933785820E+03  0.12509000000E+03 0.  0.
         25    1    4    4    0    0  0.71580253277E+02  0.52455134216E+02  0.31112251071E+03  0.34687173210E+03  0.12509000000E+03 0.  0.
         25    1    4    4    0    0  0.33282173930E+02  0.48265630583E+01  0.40978404891E+03  0.42976909342E+03  0.12509000000E+03 0.  0.
<mgrwt>
<rscale>  2 0.46439376E+03</rscale>
<asrwt>0</asrwt>
<pdfrwt beam="1">  1       21 0.19186074E+00 0.46439376E+03</pdfrwt>
<pdfrwt beam="2">  1       21 0.60772741E-02 0.46439376E+03</pdfrwt>
<totfact> 0.25866719E+04</totfact>
</mgrwt>
</event>
<event>
 7    0  0.4712189E-002  0.4274456E+03  0.7546771E-02  0.1034670E+00
         21   -1    0    0  502  501  0.00000000000E+00  0.00000000000E+00  0.68142966087E+03  0.68142966087E+03  0.00000000000E+00 0. -1.
         21   -1    0    0  501  502 -0.00000000000E+00 -0.00000000000E+00 -0.67031777974E+02  0.67031777974E+02  0.00000000000E+00 0. -1.
      99926    2    1    2    0    0 -0.14210854715E-13  0.35527136788E-14  0.61439788290E+03  0.74846143884E+03  0.42744563038E+03 0.  0.
      99925    2    3    3    0    0 -0.70026975394E+02  0.31226764147E+02  0.33418980029E+03  0.43216574533E+03  0.26306942189E+03 0.  0.
         25    1    4    4    0    0 -0.46534237441E+02  0.35075423114E+02  0.11946607666E+03  0.18252499044E+03  0.12509000000E+03 0.  0.
         25    1    3    3    0    0  0.70026975394E+02 -0.31226764147E+02  0.28020808260E+03  0.31629569352E+03  0.12509000000E+03 0.  0.
         25    1    4    4    0    0 -0.23492737953E+02 -0.38486589672E+01  0.21472372363E+03  0.24964075489E+03  0.12509000000E+03 0.  0.
<mgrwt>
<rscale>  2 0.42744563E+03</rscale>
<asrwt>0</asrwt>
<pdfrwt beam="1">  1       21 0.10021024E+00 0.42744563E+03</pdfrwt>
<pdfrwt beam="2">  1       21 0.98576148E-02 0.42744563E+03</pdfrwt>
<totfact> 0.62904265E+04</totfact>
</mgrwt>
</event>
<event>
 6    0  0.4712189E-002  0.4580002E+03  0.7546771E-02  0.1025363E+00
         21   -1    0    0  502  501  0.00000000000E+00  0.00000000000E+00  0.33915168920E+03  0.33915168920E+03  0.00000000000E+00 0.  1.
         21   -1    0    0  501  502 -0.00000000000E+00 -0.00000000000E+00 -0.15462417972E+03  0.15462417972E+03  0.00000000000E+00 0.  1.
      99926    2    1    2    0    0  0.00000000000E+00  0.00000000000E+00  0.18452750947E+03  0.49377586892E+03  0.45800022596E+03 0.  0.
         25    1    3    3    0    0 -0.55524746791E+02 -0.61133874723E+02  0.57399126058E+02  0.16050705878E+03  0.12509000000E+03 0.  0.
         25    1    3    3    0    0 -0.33025242747E+02  0.12124997244E+02  0.28789205188E+01  0.12997491489E+03  0.12509000000E+03 0.  0.
         25    1    3    3    0    0  0.88549989538E+02  0.49008877479E+02  0.12424946290E+03  0.20329389526E+03  0.12509000000E+03 0.  0.
<mgrwt>
<rscale>  2 0.45800023E+03</rscale>
<asrwt>0</asrwt>
<pdfrwt beam="1">  1       21 0.49875248E-01 0.45800023E+03</pdfrwt>
<pdfrwt beam="2">  1       21 0.22738850E-01 0.45800023E+03</pdfrwt>
<totfact> 0.64168155E+04</totfact>
</mgrwt>
</event>
<event>
 7    0  0.4712189E-002  0.4646583E+03  0.7546771E-02  0.1023439E+00
         21   -1    0    0  502  501  0.00000000000E+00  0.00000000000E+00  0.78385138372E+03  0.78385138372E+03  0.00000000000E+00 0. -1.
         21   -1    0    0  501  502 -0.00000000000E+00 -0.00000000000E+00 -0.68861051453E+02  0.68861051453E+02  0.00000000000E+00 0. -1.
      99926    2    1    2    0    0  0.00000000000E+00  0.00000000000E+00  0.71499033226E+03  0.85271243517E+03  0.46465828505E+03 0.  0.
      99925    2    3    3    0    0  0.77252680613E+02 -0.90030343842E+02  0.49848052927E+03  0.57595000570E+03  0.26298694175E+03 0.  0.
         25    1    4    4    0    0  0.50791785383E+02 -0.42296069116E+02  0.17625471882E+03  0.22601326716E+03  0.12509000000E+03 0.  0.
         25    1    4    4    0    0  0.26460895231E+02 -0.47734274726E+02  0.32222581046E+03  0.34993673855E+03  0.12509000000E+03 0.  0.
         25    1    3    3    0    0 -0.77252680613E+02  0.90030343842E+02  0.21650980299E+03  0.27676242947E+03  0.12509000000E+03 0.  0.
<mgrwt>
<rscale>  2 0.46465829E+03</rscale>
<asrwt>0</asrwt>
<pdfrwt beam="1">  1       21 0.11527226E+00 0.46465829E+03</pdfrwt>
<pdfrwt beam="2">  1       21 0.10126626E-01 0.46465829E+03</pdfrwt>
<totfact> 0.42041366E+04</totfact>
</mgrwt>
</event>
<event>
 7    0  0.4712189E-002  0.4559810E+03  0.7546771E-02  0.1025953E+00
         21   -1    0    0  502  501  0.00000000000E+00  0.00000000000E+00  0.48665489348E+02  0.48665489348E+02  0.00000000000E+00 0. -1.
         21   -1    0    0  501  502 -0.00000000000E+00 -0.00000000000E+00 -0.10681010790E+04  0.10681010790E+04  0.00000000000E+00 0. -1.
      99926    2    1    2    0    0  0.00000000000E+00  0.00000000000E+00 -0.10194355896E+04  0.11167665683E+04  0.45598097189E+03 0.  0.
      99925    2    3    3    0    0  0.98144192222E+02  0.48470143163E+02 -0.56264073233E+03  0.63066916348E+03  0.26305391622E+03 0.  0.
         25    1    4    4    0    0  0.61710211276E+02  0.27036428692E+02 -0.37680339154E+03  0.40270016468E+03  0.12509000000E+03 0.  0.
         25    1    3    3    0    0 -0.98144192222E+02 -0.48470143163E+02 -0.45679485730E+03  0.48609740485E+03  0.12509000000E+03 0.  0.
         25    1    4    4    0    0  0.36433980946E+02  0.21433714471E+02 -0.18583734079E+03  0.22796899880E+03  0.12509000000E+03 0.  0.
<mgrwt>
<rscale>  2 0.45598097E+03</rscale>
<asrwt>0</asrwt>
<pdfrwt beam="1">  1       21 0.71566899E-02 0.45598097E+03</pdfrwt>
<pdfrwt beam="2">  1       21 0.15707368E+00 0.45598097E+03</pdfrwt>
<totfact> 0.34645763E+04</totfact>
</mgrwt>
</event>
<event>
 7    0  0.4712189E-002  0.4486242E+03  0.7546771E-02  0.1028133E+00
         21   -1    0    0  502  501  0.00000000000E+00  0.00000000000E+00  0.58053798984E+02  0.58053798984E+02  0.00000000000E+00 0.  1.
         21   -1    0    0  501  502 -0.00000000000E+00 -0.00000000000E+00 -0.86671191082E+03  0.86671191082E+03  0.00000000000E+00 0.  1.
      99926    2    1    2    0    0  0.00000000000E+00  0.00000000000E+00 -0.80865811184E+03  0.92476570981E+03  0.44862420375E+03 0.  0.
      99925    2    3    3    0    0  0.95166245079E+02  0.91745280337E+01 -0.41033458259E+03  0.49645515866E+03  0.26258802092E+03 0.  0.
         25    1    4    4    0    0  0.64950572113E+02  0.27585114304E+02 -0.16456943783E+03  0.21842647119E+03  0.12509000000E+03 0.  0.
         25    1    3    3    0    0 -0.95166245079E+02 -0.91745280337E+01 -0.39832352925E+03  0.42831055114E+03  0.12509000000E+03 0.  0.
         25    1    4    4    0    0  0.30215672966E+02 -0.18410586270E+02 -0.24576514476E+03  0.27802868747E+03  0.12509000000E+03 0.  0.
<mgrwt>
<rscale>  2 0.44862420E+03</rscale>
<asrwt>0</asrwt>
<pdfrwt beam="1">  1       21 0.85373239E-02 0.44862420E+03</pdfrwt>
<pdfrwt beam="2">  1       21 0.12745763E+00 0.44862420E+03</pdfrwt>
<totfact> 0.44350759E+04</totfact>
</mgrwt>
</event>
<event>
 7    0  0.4712189E-002  0.4562277E+03  0.7546771E-02  0.1025881E+00
         21   -1    0    0  502  501  0.00000000000E+00  0.00000000000E+00  0.28410689527E+02  0.28410689527E+02  0.00000000000E+00 0.  1.
         21   -1    0    0  501  502 -0.00000000000E+00 -0.00000000000E+00 -0.18315613851E+04  0.18315613851E+04  0.00000000000E+00 0.  1.
      99926    2    1    2    0    0  0.00000000000E+00  0.00000000000E+00 -0.18031506956E+04  0.18599720746E+04  0.45622767063E+03 0.  0.
      99925    2    3    3    0    0 -0.64921575928E+02 -0.62169295718E+02 -0.84670821883E+03  0.89120504806E+03  0.26315736261E+03 0.  0.
         25    1    3    3    0    0  0.64921575928E+02  0.62169295718E+02 -0.95644247673E+03  0.96876702656E+03  0.12509000000E+03 0.  0.
         25    1    4    4    0    0  0.63684032785E+01 -0.20855480353E+02 -0.43202090444E+03  0.45029443434E+03  0.12509000000E+03 0.  0.
         25    1    4    4    0    0 -0.71289979206E+02 -0.41313815365E+02 -0.41468731439E+03  0.44091061372E+03  0.12509000000E+03 0.  0.
<mgrwt>
<rscale>  2 0.45622767E+03</rscale>
<asrwt>0</asrwt>
<pdfrwt beam="1">  1       21 0.41780438E-02 0.45622767E+03</pdfrwt>
<pdfrwt beam="2">  1       21 0.26934718E+00 0.45622767E+03</pdfrwt>
<totfact> 0.15980992E+04</totfact>
</mgrwt>
</event>
<event>
 7    0  0.4712189E-002  0.4459430E+03  0.7546771E-02  0.1028939E+00
         21   -1    0    0  502  501  0.00000000000E+00  0.00000000000E+00  0.51299837403E+03  0.51299837403E+03  0.00000000000E+00 0. -1.
         21   -1    0    0  501  502 -0.00000000000E+00 -0.00000000000E+00 -0.96913131642E+02  0.96913131642E+02  0.00000000000E+00 0. -1.
      99926    2    1    2    0    0  0.00000000000E+00  0.00000000000E+00  0.41608524239E+03  0.60991150567E+03  0.44594295130E+03 0.  0.
      99925    2    3    3    0    0 -0.28887836265E+02  0.85143970331E+02  0.19017248827E+03  0.33647397470E+03  0.26261218096E+03 0.  0.
         25    1    4    4    0    0  0.46204291216E+01  0.20224682043E+02  0.12350976543E+03  0.17701004600E+03  0.12509000000E+03 0.  0.
         25    1    4    4    0    0 -0.33508265387E+02  0.64919288288E+02  0.66662722842E+02  0.15946392870E+03  0.12509000000E+03 0.  0.
         25    1    3    3    0    0  0.28887836265E+02 -0.85143970331E+02  0.22591275412E+03  0.27343753097E+03  0.12509000000E+03 0.  0.
<mgrwt>
<rscale>  2 0.44594295E+03</rscale>
<asrwt>0</asrwt>
<pdfrwt beam="1">  1       21 0.75440936E-01 0.44594295E+03</pdfrwt>
<pdfrwt beam="2">  1       21 0.14251931E-01 0.44594295E+03</pdfrwt>
<totfact> 0.62419198E+04</totfact>
</mgrwt>
</event>
<event>
 7    0  0.4712189E-002  0.4482948E+03  0.7546771E-02  0.1028232E+00
         21   -1    0    0  502  501  0.00000000000E+00  0.00000000000E+00  0.25411512518E+03  0.25411512518E+03  0.00000000000E+00 0.  1.
         21   -1    0    0  501  502 -0.00000000000E+00 -0.00000000000E+00 -0.19771377427E+03  0.19771377427E+03  0.00000000000E+00 0.  1.
      99926    2    1    2    0    0  0.14210854715E-13  0.00000000000E+00  0.56401350911E+02  0.45182889945E+03  0.44829481593E+03 0.  0.
      99925    2    3    3    0    0 -0.83470777490E+02  0.26533957651E+02  0.97150562546E+02  0.29378008436E+03  0.26305338728E+03 0.  0.
         25    1    4    4    0    0 -0.71987093442E+02  0.41657481935E+02  0.61609592104E+02  0.16235990072E+03  0.12509000000E+03 0.  0.
         25    1    4    4    0    0 -0.11483684047E+02 -0.15123524284E+02  0.35540970442E+02  0.13142018363E+03  0.12509000000E+03 0.  0.
         25    1    3    3    0    0  0.83470777490E+02 -0.26533957651E+02 -0.40749211635E+02  0.15804881509E+03  0.12509000000E+03 0.  0.
<mgrwt>
<rscale>  2 0.44829482E+03</rscale>
<asrwt>0</asrwt>
<pdfrwt beam="1">  1       21 0.37369872E-01 0.44829482E+03</pdfrwt>
<pdfrwt beam="2">  1       21 0.29075555E-01 0.44829482E+03</pdfrwt>
<totfact> 0.72584526E+04</totfact>
</mgrwt>
</event>
<event>
 7    0  0.4712189E-002  0.4495289E+03  0.7546771E-02  0.1027863E+00
         21   -1    0    0  502  501  0.00000000000E+00  0.00000000000E+00  0.37394331594E+02  0.37394331594E+02  0.00000000000E+00 0.  1.
         21   -1    0    0  501  502 -0.00000000000E+00 -0.00000000000E+00 -0.13509818625E+04  0.13509818625E+04  0.00000000000E+00 0.  1.
      99926    2    1    2    0    0  0.00000000000E+00  0.17763568394E-14 -0.13135875309E+04  0.13883761941E+04  0.44952892562E+03 0.  0.
      99925    2    3    3    0    0 -0.10870051591E+02  0.12740227211E+02 -0.50223785199E+03  0.56726945256E+03  0.26319441565E+03 0.  0.
         25    1    4    4    0    0 -0.38485885076E+02 -0.17662282226E+02 -0.25007194509E+03  0.28280135322E+03  0.12509000000E+03 0.  0.
         25    1    4    4    0    0  0.27615833484E+02  0.30402509437E+02 -0.25216590690E+03  0.28446809934E+03  0.12509000000E+03 0.  0.
         25    1    3    3    0    0  0.10870051591E+02 -0.12740227211E+02 -0.81134967887E+03  0.82110674149E+03  0.12509000000E+03 0.  0.
<mgrwt>
<rscale>  2 0.44952893E+03</rscale>
<asrwt>0</asrwt>
<pdfrwt beam="1">  1       21 0.54991677E-02 0.44952893E+03</pdfrwt>
<pdfrwt beam="2">  1       21 0.19867376E+00 0.44952893E+03</pdfrwt>
<totfact> 0.27807097E+04</totfact>
</mgrwt>
</event>
<event>
 7    0  0.4712189E-002  0.4301468E+03  0.7546771E-02  0.1033814E+00
         21   -1    0    0  502  501  0.00000000000E+00  0.00000000000E+00  0.34380412370E+03  0.34380412370E+03  0.00000000000E+00 0. -1.
         21   -1    0    0  501  502 -0.00000000000E+00 -0.00000000000E+00 -0.13454340180E+03  0.13454340180E+03  0.00000000000E+00 0. -1.
      99926    2    1    2    0    0  0.35527136788E-14  0.00000000000E+00  0.20926072190E+03  0.47834752551E+03  0.43014684171E+03 0.  0.
      99925    2    3    3    0    0 -0.30419721790E+02  0.12240219225E+02  0.22569254156E+03  0.34799149290E+03  0.26284172685E+03 0.  0.
         25    1    3    3    0    0  0.30419721790E+02 -0.12240219225E+02 -0.16431819659E+02  0.13035603261E+03  0.12509000000E+03 0.  0.
         25    1    4    4    0    0 -0.68363743031E+01 -0.23618382763E+01  0.16229813276E+03  0.20503781673E+03  0.12509000000E+03 0.  0.
         25    1    4    4    0    0 -0.23583347487E+02  0.14602057501E+02  0.63394408800E+02  0.14295367617E+03  0.12509000000E+03 0.  0.
<mgrwt>
<rscale>  2 0.43014684E+03</rscale>
<asrwt>0</asrwt>
<pdfrwt beam="1">  1       21 0.50559430E-01 0.43014684E+03</pdfrwt>
<pdfrwt beam="2">  1       21 0.19785794E-01 0.43014684E+03</pdfrwt>
<totfact> 0.81807989E+04</totfact>
</mgrwt>
</event>
<event>
 6    0  0.4712189E-002  0.4498214E+03  0.7546771E-02  0.1027775E+00
         21   -1    0    0  502  501  0.00000000000E+00  0.00000000000E+00  0.11619056070E+04  0.11619056070E+04  0.00000000000E+00 0. -1.
         21   -1    0    0  501  502 -0.00000000000E+00 -0.00000000000E+00 -0.43536082962E+02  0.43536082962E+02  0.00000000000E+00 0. -1.
      99926    2    1    2    0    0  0.00000000000E+00  0.00000000000E+00  0.11183695240E+04  0.12054416899E+04  0.44982138188E+03 0.  0.
         25    1    3    3    0    0  0.32387440720E+02  0.18261229912E+02  0.40169361936E+03  0.42235966991E+03  0.12509000000E+03 0.  0.
         25    1    3    3    0    0 -0.61897179866E+02  0.56522124263E+02  0.23612321326E+03  0.28004944447E+03  0.12509000000E+03 0.  0.
         25    1    3    3    0    0  0.29509739146E+02 -0.74783354174E+02  0.48055269139E+03  0.50303257555E+03  0.12509000000E+03 0.  0.
<mgrwt>
<rscale>  2 0.44982138E+03</rscale>
<asrwt>0</asrwt>
<pdfrwt beam="1">  1       21 0.17086845E+00 0.44982138E+03</pdfrwt>
<pdfrwt beam="2">  1       21 0.64023659E-02 0.44982138E+03</pdfrwt>
<totfact> 0.33307389E+04</totfact>
</mgrwt>
</event>
<event>
 7    0  0.4712189E-002  0.4594516E+03  0.7546771E-02  0.1024940E+00
         21   -1    0    0  502  501  0.00000000000E+00  0.00000000000E+00  0.10377943407E+03  0.10377943407E+03  0.00000000000E+00 0. -1.
         21   -1    0    0  501  502 -0.00000000000E+00 -0.00000000000E+00 -0.50852027511E+03  0.50852027511E+03  0.00000000000E+00 0. -1.
      99926    2    1    2    0    0  0.00000000000E+00  0.00000000000E+00 -0.40474084104E+03  0.61229970919E+03  0.45945161385E+03 0.  0.
      99925    2    3    3    0    0 -0.11214840527E+03 -0.36990376205E+02 -0.24838594007E+03  0.37983483895E+03  0.26197972617E+03 0.  0.
         25    1    3    3    0    0  0.11214840527E+03  0.36990376205E+02 -0.15635490097E+03  0.23246487024E+03  0.12509000000E+03 0.  0.
         25    1    4    4    0    0 -0.36214644772E+02 -0.96130934095E+01 -0.16067452900E+03  0.20704522315E+03  0.12509000000E+03 0.  0.
         25    1    4    4    0    0 -0.75933760497E+02 -0.27377282795E+02 -0.87711411068E+02  0.17278961580E+03  0.12509000000E+03 0.  0.
<mgrwt>
<rscale>  2 0.45945161E+03</rscale>
<asrwt>0</asrwt>
<pdfrwt beam="1">  1       21 0.15261682E-01 0.45945161E+03</pdfrwt>
<pdfrwt beam="2">  1       21 0.74782392E-01 0.45945161E+03</pdfrwt>
<totfact> 0.55934665E+04</totfact>
</mgrwt>
</event>
<event>
 7    0  0.4712189E-002  0.4576614E+03  0.7546771E-02  0.1025462E+00
         21   -1    0    0  502  501  0.00000000000E+00  0.00000000000E+00  0.34019588395E+02  0.34019588395E+02  0.00000000000E+00 0.  1.
         21   -1    0    0  501  502 -0.00000000000E+00 -0.00000000000E+00 -0.15392160540E+04  0.15392160540E+04  0.00000000000E+00 0.  1.
      99926    2    1    2    0    0 -0.71054273576E-14 -0.14210854715E-13 -0.15051964656E+04  0.15732356424E+04  0.45766143210E+03 0.  0.
      99925    2    3    3    0    0  0.35061076500E+02  0.63786722183E+02 -0.12538631828E+04  0.12832115880E+04  0.26298492970E+03 0.  0.
         25    1    3    3    0    0 -0.35061076500E+02 -0.63786722183E+02 -0.25133328280E+03  0.29002405444E+03  0.12509000000E+03 0.  0.
         25    1    4    4    0    0  0.38087502695E+02  0.48410064205E+02 -0.80474820849E+03  0.81673825633E+03  0.12509000000E+03 0.  0.
         25    1    4    4    0    0 -0.30264261950E+01  0.15376657978E+02 -0.44911497433E+03  0.46647333164E+03  0.12509000000E+03 0.  0.
<mgrwt>
<rscale>  2 0.45766143E+03</rscale>
<asrwt>0</asrwt>
<pdfrwt beam="1">  1       21 0.50028804E-02 0.45766143E+03</pdfrwt>
<pdfrwt beam="2">  1       21 0.22635531E+00 0.45766143E+03</pdfrwt>
<totfact> 0.21590259E+04</totfact>
</mgrwt>
</event>
<event>
 7    0  0.4712189E-002  0.4484767E+03  0.7546771E-02  0.1028177E+00
         21   -1    0    0  502  501  0.00000000000E+00  0.00000000000E+00  0.12654156079E+03  0.12654156079E+03  0.00000000000E+00 0.  1.
         21   -1    0    0  501  502 -0.00000000000E+00 -0.00000000000E+00 -0.39736223257E+03  0.39736223257E+03  0.00000000000E+00 0.  1.
      99926    2    1    2    0    0  0.00000000000E+00 -0.14210854715E-13 -0.27082067178E+03  0.52390379336E+03  0.44847669776E+03 0.  0.
      99925    2    3    3    0    0 -0.19624549863E+02 -0.10296729633E+03 -0.19278809275E+03  0.34300609143E+03  0.26362576313E+03 0.  0.
         25    1    3    3    0    0  0.19624549863E+02  0.10296729633E+03 -0.78032579026E+02  0.18089770192E+03  0.12509000000E+03 0.  0.
         25    1    4    4    0    0 -0.93434383538E+01 -0.69107729710E+01 -0.87447061859E+02  0.15306715961E+03  0.12509000000E+03 0.  0.
         25    1    4    4    0    0 -0.10281111510E+02 -0.96056523358E+02 -0.10534103089E+03  0.18993893182E+03  0.12509000000E+03 0.  0.
<mgrwt>
<rscale>  2 0.44847670E+03</rscale>
<asrwt>0</asrwt>
<pdfrwt beam="1">  1       21 0.18609053E-01 0.44847670E+03</pdfrwt>
<pdfrwt beam="2">  1       21 0.58435624E-01 0.44847670E+03</pdfrwt>
<totfact> 0.67019364E+04</totfact>
</mgrwt>
</event>
<event>
 7    0  0.4712189E-002  0.4503720E+03  0.7546771E-02  0.1027611E+00
         21   -1    0    0  502  501  0.00000000000E+00  0.00000000000E+00  0.27920978625E+02  0.27920978625E+02  0.00000000000E+00 0. -1.
         21   -1    0    0  501  502 -0.00000000000E+00 -0.00000000000E+00 -0.18161515396E+04  0.18161515396E+04  0.00000000000E+00 0. -1.
      99926    2    1    2    0    0  0.17763568394E-14 -0.14210854715E-13 -0.17882305610E+04  0.18440725183E+04  0.45037197212E+03 0.  0.
      99925    2    3    3    0    0  0.86251941760E+01 -0.10747819945E+03 -0.11873921600E+04  0.12209511420E+04  0.26305055061E+03 0.  0.
         25    1    3    3    0    0 -0.86251941760E+01  0.10747819945E+03 -0.60083840102E+03  0.62312137628E+03  0.12509000000E+03 0.  0.
         25    1    4    4    0    0  0.31519540850E+02 -0.85487900574E+02 -0.61192547752E+03  0.63119090673E+03  0.12509000000E+03 0.  0.
         25    1    4    4    0    0 -0.22894346674E+02 -0.21990298878E+02 -0.57546668248E+03  0.58976023526E+03  0.12509000000E+03 0.  0.
<mgrwt>
<rscale>  2 0.45037197E+03</rscale>
<asrwt>0</asrwt>
<pdfrwt beam="1">  1       21 0.41060256E-02 0.45037197E+03</pdfrwt>
<pdfrwt beam="2">  1       21 0.26708115E+00 0.45037197E+03</pdfrwt>
<totfact> 0.17030719E+04</totfact>
</mgrwt>
</event>
<event>
 7    0  0.4712189E-002  0.4605130E+03  0.7546771E-02  0.1024633E+00
         21   -1    0    0  502  501  0.00000000000E+00  0.00000000000E+00  0.14507982269E+04  0.14507982269E+04  0.00000000000E+00 0.  1.
         21   -1    0    0  501  502 -0.00000000000E+00 -0.00000000000E+00 -0.36544065533E+02  0.36544065533E+02  0.00000000000E+00 0.  1.
      99926    2    1    2    0    0 -0.71054273576E-14  0.71054273576E-14  0.14142541614E+04  0.14873422925E+04  0.46051304207E+03 0.  0.
      99925    2    3    3    0    0  0.40376851406E+02 -0.60505369162E+02  0.58433069092E+03  0.64489842800E+03  0.26298371861E+03 0.  0.
         25    1    4    4    0    0 -0.70488695252E+01 -0.21107747338E+02  0.34825235414E+03  0.37070531939E+03  0.12509000000E+03 0.  0.
         25    1    4    4    0    0  0.47425720931E+02 -0.39397621823E+02  0.23607833678E+03  0.27419310861E+03  0.12509000000E+03 0.  0.
         25    1    3    3    0    0 -0.40376851406E+02  0.60505369162E+02  0.82992347049E+03  0.84244386448E+03  0.12509000000E+03 0.  0.
<mgrwt>
<rscale>  2 0.46051304E+03</rscale>
<asrwt>0</asrwt>
<pdfrwt beam="1">  1       21 0.21335264E+00 0.46051304E+03</pdfrwt>
<pdfrwt beam="2">  1       21 0.53741283E-02 0.46051304E+03</pdfrwt>
<totfact> 0.23086495E+04</totfact>
</mgrwt>
</event>
<event>
 7    0  0.4712189E-002  0.4584338E+03  0.7546771E-02  0.1025236E+00
         21   -1    0    0  502  501  0.00000000000E+00  0.00000000000E+00  0.11477644695E+04  0.11477644695E+04  0.00000000000E+00 0.  1.
         21   -1    0    0  501  502 -0.00000000000E+00 -0.00000000000E+00 -0.45776277032E+02  0.45776277032E+02  0.00000000000E+00 0.  1.
      99926    2    1    2    0    0  0.17763568394E-14  0.00000000000E+00  0.11019881925E+04  0.11935407466E+04  0.45843378726E+03 0.  0.
      99925    2    3    3    0    0  0.14613454542E+02 -0.99646441391E+02  0.84310680020E+03  0.88889332787E+03  0.26298156868E+03 0.  0.
         25    1    3    3    0    0 -0.14613454542E+02  0.99646441391E+02  0.25888139232E+03  0.30464741870E+03  0.12509000000E+03 0.  0.
         25    1    4    4    0    0 -0.11832601811E+02 -0.70805370732E+02  0.34732470030E+03  0.37607893657E+03  0.12509000000E+03 0.  0.
         25    1    4    4    0    0  0.26446056353E+02 -0.28841070659E+02  0.49578209990E+03  0.51281439131E+03  0.12509000000E+03 0.  0.
<mgrwt>
<rscale>  2 0.45843379E+03</rscale>
<asrwt>0</asrwt>
<pdfrwt beam="1">  1       21 0.16878887E+00 0.45843379E+03</pdfrwt>
<pdfrwt beam="2">  1       21 0.67318062E-02 0.45843379E+03</pdfrwt>
<totfact> 0.31509950E+04</totfact>
</mgrwt>
</event>
<event>
 7    0  0.4712189E-002  0.4570848E+03  0.7546771E-02  0.1025630E+00
         21   -1    0    0  502  501  0.00000000000E+00  0.00000000000E+00  0.28545440865E+03  0.28545440865E+03  0.00000000000E+00 0. -1.
         21   -1    0    0  501  502 -0.00000000000E+00 -0.00000000000E+00 -0.18297716251E+03  0.18297716251E+03  0.00000000000E+00 0. -1.
      99926    2    1    2    0    0  0.71054273576E-14 -0.35527136788E-14  0.10247724615E+03  0.46843157116E+03  0.45708483992E+03 0.  0.
      99925    2    3    3    0    0 -0.31678142904E+02 -0.20507992364E+02 -0.47009470376E+02  0.26989223248E+03  0.26307383822E+03 0.  0.
         25    1    4    4    0    0 -0.43003646833E+02  0.55644619683E+00 -0.52750931010E+02  0.14240713499E+03  0.12509000000E+03 0.  0.
         25    1    4    4    0    0  0.11325503930E+02 -0.21064438561E+02  0.57414606341E+01  0.12748509749E+03  0.12509000000E+03 0.  0.
         25    1    3    3    0    0  0.31678142904E+02  0.20507992364E+02  0.14948671652E+03  0.19853933868E+03  0.12509000000E+03 0.  0.
<mgrwt>
<rscale>  2 0.45708484E+03</rscale>
<asrwt>0</asrwt>
<pdfrwt beam="1">  1       21 0.41978590E-01 0.45708484E+03</pdfrwt>
<pdfrwt beam="2">  1       21 0.26908406E-01 0.45708484E+03</pdfrwt>
<totfact> 0.66447202E+04</totfact>
</mgrwt>
</event>
<event>
 7    0  0.4712189E-002  0.4522343E+03  0.7546771E-02  0.1027058E+00
         21   -1    0    0  502  501  0.00000000000E+00  0.00000000000E+00  0.46959326069E+03  0.46959326069E+03  0.00000000000E+00 0. -1.
         21   -1    0    0  501  502 -0.00000000000E+00 -0.00000000000E+00 -0.10887925401E+03  0.10887925401E+03  0.00000000000E+00 0. -1.
      99926    2    1    2    0    0 -0.71054273576E-14  0.00000000000E+00  0.36071400668E+03  0.57847251469E+03  0.45223429286E+03 0.  0.
      99925    2    3    3    0    0 -0.37823779053E+02 -0.10357686075E+03  0.22340006863E+03  0.36245994555E+03  0.26326947624E+03 0.  0.
         25    1    4    4    0    0  0.11926503359E+02 -0.20737630030E+02  0.10081330354E+03  0.16242881842E+03  0.12509000000E+03 0.  0.
         25    1    3    3    0    0  0.37823779053E+02  0.10357686075E+03  0.13731393805E+03  0.21601256914E+03  0.12509000000E+03 0.  0.
         25    1    4    4    0    0 -0.49750282413E+02 -0.82839230720E+02  0.12258676509E+03  0.20003112713E+03  0.12509000000E+03 0.  0.
<mgrwt>
<rscale>  2 0.45223429E+03</rscale>
<asrwt>0</asrwt>
<pdfrwt beam="1">  1       21 0.69057832E-01 0.45223429E+03</pdfrwt>
<pdfrwt beam="2">  1       21 0.16011655E-01 0.45223429E+03</pdfrwt>
<totfact> 0.61353873E+04</totfact>
</mgrwt>
</event>
<event>
 7    0  0.4712189E-002  0.4531899E+03  0.7546771E-02  0.1026775E+00
         21   -1    0    0  502  501  0.00000000000E+00  0.00000000000E+00  0.43399137385E+02  0.43399137385E+02  0.00000000000E+00 0. -1.
         21   -1    0    0  501  502 -0.00000000000E+00 -0.00000000000E+00 -0.11830941222E+04  0.11830941222E+04  0.00000000000E+00 0. -1.
      99926    2    1    2    0    0  0.17763568394E-14  0.00000000000E+00 -0.11396949848E+04  0.12264932596E+04  0.45318986904E+03 0.  0.
      99925    2    3    3    0    0 -0.11235975791E+02  0.11065771861E+03 -0.73872458529E+03  0.79198647340E+03  0.26297753385E+03 0.  0.
         25    1    4    4    0    0 -0.34737478676E+02  0.32662871049E+02 -0.29857317368E+03  0.32721094681E+03  0.12509000000E+03 0.  0.
         25    1    4    4    0    0  0.23501502886E+02  0.77994847560E+02 -0.44015141161E+03  0.46477552660E+03  0.12509000000E+03 0.  0.
         25    1    3    3    0    0  0.11235975791E+02 -0.11065771861E+03 -0.40097039955E+03  0.43450678620E+03  0.12509000000E+03 0.  0.
<mgrwt>
<rscale>  2 0.45318987E+03</rscale>
<asrwt>0</asrwt>
<pdfrwt beam="1">  1       21 0.63822276E-02 0.45318987E+03</pdfrwt>
<pdfrwt beam="2">  1       21 0.17398439E+00 0.45318987E+03</pdfrwt>
<totfact> 0.31771858E+04</totfact>
</mgrwt>
</event>
<event>
 7    0  0.4712189E-002  0.4537275E+03  0.7546771E-02  0.1026616E+00
         21   -1    0    0  502  501  0.00000000000E+00  0.00000000000E+00  0.18142846963E+03  0.18142846963E+03  0.00000000000E+00 0. -1.
         21   -1    0    0  501  502 -0.00000000000E+00 -0.00000000000E+00 -0.28367742719E+03  0.28367742719E+03  0.00000000000E+00 0. -1.
      99926    2    1    2    0    0  0.00000000000E+00 -0.14210854715E-13 -0.10224895756E+03  0.46510589681E+03  0.45372750184E+03 0.  0.
      99925    2    3    3    0    0 -0.68576163102E+02 -0.88607762732E+02 -0.65343527664E+02  0.29316537042E+03  0.26291088232E+03 0.  0.
         25    1    3    3    0    0  0.68576163102E+02  0.88607762732E+02 -0.36905429899E+02  0.17194052640E+03  0.12509000000E+03 0.  0.
         25    1    4    4    0    0 -0.55913195481E+02 -0.72288398798E+02 -0.60429167646E+02  0.16628617030E+03  0.12509000000E+03 0.  0.
         25    1    4    4    0    0 -0.12662967621E+02 -0.16319363934E+02 -0.49143600182E+01  0.12687920012E+03  0.12509000000E+03 0.  0.
<mgrwt>
<rscale>  2 0.45372750E+03</rscale>
<asrwt>0</asrwt>
<pdfrwt beam="1">  1       21 0.26680658E-01 0.45372750E+03</pdfrwt>
<pdfrwt beam="2">  1       21 0.41717268E-01 0.45372750E+03</pdfrwt>
<totfact> 0.68490535E+04</totfact>
</mgrwt>
</event>
<event>
 7    0  0.4712189E-002  0.4589352E+03  0.7546771E-02  0.1025091E+00
         21   -1    0    0  502  501  0.00000000000E+00  0.00000000000E+00  0.10456027812E+04  0.10456027812E+04  0.00000000000E+00 0.  1.
         21   -1    0    0  501  502 -0.00000000000E+00 -0.00000000000E+00 -0.50358864350E+02  0.50358864350E+02  0.00000000000E+00 0.  1.
      99926    2    1    2    0    0  0.14210854715E-13  0.00000000000E+00  0.99524391683E+03  0.10959616455E+04  0.45893515281E+03 0.  0.
      99925    2    3    3    0    0  0.64299330369E+02  0.26960580502E+02  0.40072196025E+03  0.48443475181E+03  0.26313050479E+03 0.  0.
         25    1    4    4    0    0  0.64444487678E+02  0.38818662327E+02  0.19939773467E+03  0.24711727019E+03  0.12509000000E+03 0.  0.
         25    1    3    3    0    0 -0.64299330369E+02 -0.26960580502E+02  0.59452195658E+03  0.61152689372E+03  0.12509000000E+03 0.  0.
         25    1    4    4    0    0 -0.14515730907E+00 -0.11858081826E+02  0.20132422559E+03  0.23731748162E+03  0.12509000000E+03 0.  0.
<mgrwt>
<rscale>  2 0.45893515E+03</rscale>
<asrwt>0</asrwt>
<pdfrwt beam="1">  1       21 0.15376510E+00 0.45893515E+03</pdfrwt>
<pdfrwt beam="2">  1       21 0.74057161E-02 0.45893515E+03</pdfrwt>
<totfact> 0.34561332E+04</totfact>
</mgrwt>
</event>
<event>
 7    0  0.4712189E-002  0.4574099E+03  0.7546771E-02  0.1025535E+00
         21   -1    0    0  502  501  0.00000000000E+00  0.00000000000E+00  0.51431276433E+03  0.51431276433E+03  0.00000000000E+00 0.  1.
         21   -1    0    0  501  502 -0.00000000000E+00 -0.00000000000E+00 -0.10170067625E+03  0.10170067625E+03  0.00000000000E+00 0.  1.
      99926    2    1    2    0    0  0.00000000000E+00  0.35527136788E-14  0.41261208808E+03  0.61601344058E+03  0.45740990780E+03 0.  0.
      99925    2    3    3    0    0  0.89320197682E+02 -0.27804933421E+02  0.16824787163E+03  0.32599173379E+03  0.26308183546E+03 0.  0.
         25    1    4    4    0    0  0.18502797311E+02 -0.10297084545E+02  0.11641624268E+03  0.17218778446E+03  0.12509000000E+03 0.  0.
         25    1    4    4    0    0  0.70817400371E+02 -0.17507848876E+02  0.51831628953E+02  0.15380394932E+03  0.12509000000E+03 0.  0.
         25    1    3    3    0    0 -0.89320197682E+02  0.27804933421E+02  0.24436421644E+03  0.29002170680E+03  0.12509000000E+03 0.  0.
<mgrwt>
<rscale>  2 0.45740991E+03</rscale>
<asrwt>0</asrwt>
<pdfrwt beam="1">  1       21 0.75634229E-01 0.45740991E+03</pdfrwt>
<pdfrwt beam="2">  1       21 0.14955982E-01 0.45740991E+03</pdfrwt>
<totfact> 0.56617970E+04</totfact>
</mgrwt>
</event>
<event>
 7    0  0.4712189E-002  0.4313300E+03  0.7546771E-02  0.1033441E+00
         21   -1    0    0  502  501  0.00000000000E+00  0.00000000000E+00  0.63067336957E+02  0.63067336957E+02  0.00000000000E+00 0. -1.
         21   -1    0    0  501  502 -0.00000000000E+00 -0.00000000000E+00 -0.73748795578E+03  0.73748795578E+03  0.00000000000E+00 0. -1.
      99926    2    1    2    0    0  0.00000000000E+00  0.00000000000E+00 -0.67442061882E+03  0.80055529274E+03  0.43133004258E+03 0.  0.
      99925    2    3    3    0    0  0.66286802472E+02 -0.54421102065E+02 -0.38773952579E+03  0.47622651860E+03  0.26285768131E+03 0.  0.
         25    1    4    4    0    0  0.41323655046E+02 -0.46627287426E+02 -0.26202898811E+03  0.29696539716E+03  0.12509000000E+03 0.  0.
         25    1    3    3    0    0 -0.66286802472E+02  0.54421102065E+02 -0.28668109304E+03  0.32432877414E+03  0.12509000000E+03 0.  0.
         25    1    4    4    0    0  0.24963147426E+02 -0.77938146384E+01 -0.12571053768E+03  0.17926112144E+03  0.12509000000E+03 0.  0.
<mgrwt>
<rscale>  2 0.43133004E+03</rscale>
<asrwt>0</asrwt>
<pdfrwt beam="1">  1       21 0.92746084E-02 0.43133004E+03</pdfrwt>
<pdfrwt beam="2">  1       21 0.10845411E+00 0.43133004E+03</pdfrwt>
<totfact> 0.57739570E+04</totfact>
</mgrwt>
</event>
<event>
 6    0  0.4712189E-002  0.4599312E+03  0.7546771E-02  0.1024801E+00
         21   -1    0    0  502  501  0.00000000000E+00  0.00000000000E+00  0.41798742378E+03  0.41798742378E+03  0.00000000000E+00 0. -1.
         21   -1    0    0  501  502 -0.00000000000E+00 -0.00000000000E+00 -0.12652097889E+03  0.12652097889E+03  0.00000000000E+00 0. -1.
      99926    2    1    2    0    0  0.00000000000E+00  0.00000000000E+00  0.29146644489E+03  0.54450840268E+03  0.45993120365E+03 0.  0.
         25    1    3    3    0    0 -0.11729387897E+03 -0.18095986875E+02  0.93431406170E+02  0.19611796079E+03  0.12509000000E+03 0.  0.
         25    1    3    3    0    0  0.89927521952E+02  0.20582883404E+02  0.82806146358E+02  0.17611070458E+03  0.12509000000E+03 0.  0.
         25    1    3    3    0    0  0.27366357022E+02 -0.24868965282E+01  0.11522889236E+03  0.17227973730E+03  0.12509000000E+03 0.  0.
<mgrwt>
<rscale>  2 0.45993120E+03</rscale>
<asrwt>0</asrwt>
<pdfrwt beam="1">  1       21 0.61468739E-01 0.45993120E+03</pdfrwt>
<pdfrwt beam="2">  1       21 0.18606026E-01 0.45993120E+03</pdfrwt>
<totfact> 0.59860613E+04</totfact>
</mgrwt>
</event>
<event>
 7    0  0.4712189E-002  0.4537259E+03  0.7546771E-02  0.1026617E+00
         21   -1    0    0  502  501  0.00000000000E+00  0.00000000000E+00  0.11766495768E+03  0.11766495768E+03  0.00000000000E+00 0. -1.
         21   -1    0    0  501  502 -0.00000000000E+00 -0.00000000000E+00 -0.43740120430E+03  0.43740120430E+03  0.00000000000E+00 0. -1.
      99926    2    1    2    0    0 -0.71054273576E-14  0.14210854715E-13 -0.31973624662E+03  0.55506616199E+03  0.45372588286E+03 0.  0.
      99925    2    3    3    0    0  0.42481623806E+02 -0.96996803673E+02 -0.24601189123E+03  0.37535568104E+03  0.26297712520E+03 0.  0.
         25    1    4    4    0    0  0.42278829639E+02 -0.81003276518E+02 -0.11075311578E+03  0.19042791549E+03  0.12509000000E+03 0.  0.
         25    1    3    3    0    0 -0.42481623806E+02  0.96996803673E+02 -0.73724355387E+02  0.17971048094E+03  0.12509000000E+03 0.  0.
         25    1    4    4    0    0  0.20279416688E+00 -0.15993527155E+02 -0.13525877545E+03  0.18492776555E+03  0.12509000000E+03 0.  0.
<mgrwt>
<rscale>  2 0.45372588E+03</rscale>
<asrwt>0</asrwt>
<pdfrwt beam="1">  1       21 0.17303670E-01 0.45372588E+03</pdfrwt>
<pdfrwt beam="2">  1       21 0.64323707E-01 0.45372588E+03</pdfrwt>
<totfact> 0.62157111E+04</totfact>
</mgrwt>
</event>
<event>
 7    0  0.4712189E-002  0.4548681E+03  0.7546771E-02  0.1026280E+00
         21   -1    0    0  502  501  0.00000000000E+00  0.00000000000E+00  0.44944838445E+02  0.44944838445E+02  0.00000000000E+00 0.  1.
         21   -1    0    0  501  502 -0.00000000000E+00 -0.00000000000E+00 -0.11508829271E+04  0.11508829271E+04  0.00000000000E+00 0.  1.
      99926    2    1    2    0    0  0.00000000000E+00  0.35527136788E-14 -0.11059380886E+04  0.11958277655E+04  0.45486810055E+03 0.  0.
      99925    2    3    3    0    0  0.79763227090E+02  0.30557169951E+02 -0.50105502238E+03  0.57226786866E+03  0.26294194230E+03 0.  0.
         25    1    4    4    0    0  0.32645417313E+02 -0.97760522470E+01 -0.30654390169E+03  0.33283324087E+03  0.12509000000E+03 0.  0.
         25    1    4    4    0    0  0.47117809777E+02  0.40333222198E+02 -0.19451112069E+03  0.23943462779E+03  0.12509000000E+03 0.  0.
         25    1    3    3    0    0 -0.79763227090E+02 -0.30557169951E+02 -0.60488306624E+03  0.62355989684E+03  0.12509000000E+03 0.  0.
<mgrwt>
<rscale>  2 0.45486810E+03</rscale>
<asrwt>0</asrwt>
<pdfrwt beam="1">  1       21 0.66095353E-02 0.45486810E+03</pdfrwt>
<pdfrwt beam="2">  1       21 0.16924748E+00 0.45486810E+03</pdfrwt>
<totfact> 0.32321658E+04</totfact>
</mgrwt>
</event>
<event>
 7    0  0.4712189E-002  0.4465929E+03  0.7546771E-02  0.1028743E+00
         21   -1    0    0  502  501  0.00000000000E+00  0.00000000000E+00  0.46332855520E+03  0.46332855520E+03  0.00000000000E+00 0. -1.
         21   -1    0    0  501  502 -0.00000000000E+00 -0.00000000000E+00 -0.10761542147E+03  0.10761542147E+03  0.00000000000E+00 0. -1.
      99926    2    1    2    0    0  0.00000000000E+00  0.00000000000E+00  0.35571313373E+03  0.57094397666E+03  0.44659286938E+03 0.  0.
      99925    2    3    3    0    0  0.57015569344E+01 -0.99080789227E+02  0.26987477035E+03  0.38965624053E+03  0.26296403474E+03 0.  0.
         25    1    4    4    0    0  0.86931166771E+01 -0.37353478659E+02  0.18416612716E+03  0.22591043168E+03  0.12509000000E+03 0.  0.
         25    1    4    4    0    0 -0.29915597427E+01 -0.61727310568E+02  0.85708643187E+02  0.16374580885E+03  0.12509000000E+03 0.  0.
         25    1    3    3    0    0 -0.57015569344E+01  0.99080789227E+02  0.85838363379E+02  0.18128773613E+03  0.12509000000E+03 0.  0.
<mgrwt>
<rscale>  2 0.44659287E+03</rscale>
<asrwt>0</asrwt>
<pdfrwt beam="1">  1       21 0.68136552E-01 0.44659287E+03</pdfrwt>
<pdfrwt beam="2">  1       21 0.15825797E-01 0.44659287E+03</pdfrwt>
<totfact> 0.64698364E+04</totfact>
</mgrwt>
</event>
<event>
 7    0  0.4712189E-002  0.4386221E+03  0.7546771E-02  0.1031170E+00
         21   -1    0    0  502  501  0.00000000000E+00  0.00000000000E+00  0.47551218250E+02  0.47551218250E+02  0.00000000000E+00 0.  1.
         21   -1    0    0  501  502 -0.00000000000E+00 -0.00000000000E+00 -0.10114848099E+04  0.10114848099E+04  0.00000000000E+00 0.  1.
      99926    2    1    2    0    0  0.00000000000E+00  0.00000000000E+00 -0.96393359168E+03  0.10590360282E+04  0.43862209225E+03 0.  0.
      99925    2    3    3    0    0  0.86933432423E+02 -0.35757470892E+02 -0.56104082608E+03  0.62682530750E+03  0.26326249105E+03 0.  0.
         25    1    4    4    0    0  0.45650443860E+02  0.23195672870E+02 -0.26486637683E+03  0.29736124149E+03  0.12509000000E+03 0.  0.
         25    1    4    4    0    0  0.41282988563E+02 -0.58953143763E+02 -0.29617444924E+03  0.32946406600E+03  0.12509000000E+03 0.  0.
         25    1    3    3    0    0 -0.86933432423E+02  0.35757470892E+02 -0.40289276561E+03  0.43221072069E+03  0.12509000000E+03 0.  0.
<mgrwt>
<rscale>  2 0.43862209E+03</rscale>
<asrwt>0</asrwt>
<pdfrwt beam="1">  1       21 0.69928262E-02 0.43862209E+03</pdfrwt>
<pdfrwt beam="2">  1       21 0.14874777E+00 0.43862209E+03</pdfrwt>
<totfact> 0.42073598E+04</totfact>
</mgrwt>
</event>
<event>
 7    0  0.4712189E-002  0.4291479E+03  0.7546771E-02  0.1034129E+00
         21   -1    0    0  502  501  0.00000000000E+00  0.00000000000E+00  0.30483623812E+03  0.30483623812E+03  0.00000000000E+00 0.  1.
         21   -1    0    0  501  502 -0.00000000000E+00 -0.00000000000E+00 -0.15103843155E+03  0.15103843155E+03  0.00000000000E+00 0.  1.
      99926    2    1    2    0    0 -0.35527136788E-14  0.00000000000E+00  0.15379780657E+03  0.45587466968E+03  0.42914793387E+03 0.  0.
      99925    2    3    3    0    0 -0.20899103330E+02  0.72377740082E+02  0.14488291434E+03  0.30957944356E+03  0.26300772466E+03 0.  0.
         25    1    4    4    0    0 -0.36897407339E+02  0.33805563672E+02  0.38437763514E+02  0.14010426320E+03  0.12509000000E+03 0.  0.
         25    1    4    4    0    0  0.15998304010E+02  0.38572176410E+02  0.10644515083E+03  0.16947518036E+03  0.12509000000E+03 0.  0.
         25    1    3    3    0    0  0.20899103330E+02 -0.72377740082E+02  0.89148922282E+01  0.14629522611E+03  0.12509000000E+03 0.  0.
<mgrwt>
<rscale>  2 0.42914793E+03</rscale>
<asrwt>0</asrwt>
<pdfrwt beam="1">  1       21 0.44828859E-01 0.42914793E+03</pdfrwt>
<pdfrwt beam="2">  1       21 0.22211534E-01 0.42914793E+03</pdfrwt>
<totfact> 0.84560339E+04</totfact>
</mgrwt>
</event>
<event>
 7    0  0.4712189E-002  0.4600658E+03  0.7546771E-02  0.1024762E+00
         21   -1    0    0  502  501  0.00000000000E+00  0.00000000000E+00  0.36274293488E+03  0.36274293488E+03  0.00000000000E+00 0.  1.
         21   -1    0    0  501  502 -0.00000000000E+00 -0.00000000000E+00 -0.14587503397E+03  0.14587503397E+03  0.00000000000E+00 0.  1.
      99926    2    1    2    0    0  0.00000000000E+00  0.00000000000E+00  0.21686790091E+03  0.50861796885E+03  0.46006581246E+03 0.  0.
      99925    2    3    3    0    0 -0.45454319919E+02  0.19198844507E+02  0.25425775072E+03  0.36904648252E+03  0.26289467782E+03 0.  0.
         25    1    4    4    0    0 -0.17615015264E+02  0.21175598113E+02  0.18000458381E+03  0.22092499409E+03  0.12509000000E+03 0.  0.
         25    1    3    3    0    0  0.45454319919E+02 -0.19198844507E+02 -0.37389849815E+02  0.13957148634E+03  0.12509000000E+03 0.  0.
         25    1    4    4    0    0 -0.27839304654E+02 -0.19767536055E+01  0.74253166909E+02  0.14812148843E+03  0.12509000000E+03 0.  0.
<mgrwt>
<rscale>  2 0.46006581E+03</rscale>
<asrwt>0</asrwt>
<pdfrwt beam="1">  1       21 0.53344549E-01 0.46006581E+03</pdfrwt>
<pdfrwt beam="2">  1       21 0.21452211E-01 0.46006581E+03</pdfrwt>
<totfact> 0.62133268E+04</totfact>
</mgrwt>
</event>
<event>
 7    0  0.4712189E-002  0.4523581E+03  0.7546771E-02  0.1027021E+00
         21   -1    0    0  502  501  0.00000000000E+00  0.00000000000E+00  0.18486335898E+03  0.18486335898E+03  0.00000000000E+00 0. -1.
         21   -1    0    0  501  502 -0.00000000000E+00 -0.00000000000E+00 -0.27672853293E+03  0.27672853293E+03  0.00000000000E+00 0. -1.
      99926    2    1    2    0    0 -0.14210854715E-13  0.71054273576E-14 -0.91865173946E+02  0.46159189191E+03  0.45235811532E+03 0.  0.
      99925    2    3    3    0    0 -0.79294188233E+02  0.46933301549E+02  0.46057026627E+01  0.27871367775E+03  0.26300151822E+03 0.  0.
         25    1    4    4    0    0 -0.75321173589E+02  0.15419773669E+02 -0.17173575207E+02  0.14782925420E+03  0.12509000000E+03 0.  0.
         25    1    3    3    0    0  0.79294188233E+02 -0.46933301549E+02 -0.96470876609E+02  0.18287821416E+03  0.12509000000E+03 0.  0.
         25    1    4    4    0    0 -0.39730146436E+01  0.31513527880E+02  0.21779277870E+02  0.13088442356E+03  0.12509000000E+03 0.  0.
<mgrwt>
<rscale>  2 0.45235812E+03</rscale>
<asrwt>0</asrwt>
<pdfrwt beam="1">  1       21 0.27185788E-01 0.45235812E+03</pdfrwt>
<pdfrwt beam="2">  1       21 0.40695372E-01 0.45235812E+03</pdfrwt>
<totfact> 0.69512388E+04</totfact>
</mgrwt>
</event>
<event>
 7    0  0.4712189E-002  0.4572952E+03  0.7546771E-02  0.1025569E+00
         21   -1    0    0  502  501  0.00000000000E+00  0.00000000000E+00  0.77002307188E+03  0.77002307188E+03  0.00000000000E+00 0. -1.
         21   -1    0    0  501  502 -0.00000000000E+00 -0.00000000000E+00 -0.67893709372E+02  0.67893709372E+02  0.00000000000E+00 0. -1.
      99926    2    1    2    0    0 -0.14210854715E-13  0.71054273576E-14  0.70212936251E+03  0.83791678125E+03  0.45729518979E+03 0.  0.
      99925    2    3    3    0    0 -0.10223921647E+03  0.48464304165E+02  0.39882321728E+03  0.49086668113E+03  0.26284690190E+03 0.  0.
         25    1    4    4    0    0 -0.63863395511E+02 -0.23844819640E+01  0.15238060493E+03  0.20724761976E+03  0.12509000000E+03 0.  0.
         25    1    3    3    0    0  0.10223921647E+03 -0.48464304165E+02  0.30330614523E+03  0.34705010012E+03  0.12509000000E+03 0.  0.
         25    1    4    4    0    0 -0.38375820960E+02  0.50848786129E+02  0.24644261235E+03  0.28361906136E+03  0.12509000000E+03 0.  0.
<mgrwt>
<rscale>  2 0.45729519E+03</rscale>
<asrwt>0</asrwt>
<pdfrwt beam="1">  1       21 0.11323868E+00 0.45729519E+03</pdfrwt>
<pdfrwt beam="2">  1       21 0.99843695E-02 0.45729519E+03</pdfrwt>
<totfact> 0.45166020E+04</totfact>
</mgrwt>
</event>
<event>
 7    0  0.4712189E-002  0.4407085E+03  0.7546771E-02  0.1030530E+00
         21   -1    0    0  502  501  0.00000000000E+00  0.00000000000E+00  0.61840586722E+02  0.61840586722E+02  0.00000000000E+00 0. -1.
         21   -1    0    0  501  502 -0.00000000000E+00 -0.00000000000E+00 -0.78518023077E+03  0.78518023077E+03  0.00000000000E+00 0. -1.
      99926    2    1    2    0    0  0.00000000000E+00  0.71054273576E-14 -0.72333964405E+03  0.84702081750E+03  0.44070854838E+03 0.  0.
      99925    2    3    3    0    0 -0.70560673372E+02  0.53136834252E+02 -0.54812939991E+03  0.61432258043E+03  0.26295258508E+03 0.  0.
         25    1    4    4    0    0 -0.45868988626E+02 -0.12009090319E+02 -0.24759866348E+03  0.28142634671E+03  0.12509000000E+03 0.  0.
         25    1    3    3    0    0  0.70560673372E+02 -0.53136834252E+02 -0.17521024414E+03  0.23269823706E+03  0.12509000000E+03 0.  0.
         25    1    4    4    0    0 -0.24691684746E+02  0.65145924571E+02 -0.30053073643E+03  0.33289623372E+03  0.12509000000E+03 0.  0.
<mgrwt>
<rscale>  2 0.44070855E+03</rscale>
<asrwt>0</asrwt>
<pdfrwt beam="1">  1       21 0.90942047E-02 0.44070855E+03</pdfrwt>
<pdfrwt beam="2">  1       21 0.11546767E+00 0.44070855E+03</pdfrwt>
<totfact> 0.51061211E+04</totfact>
</mgrwt>
</event>
<event>
 7    0  0.4712189E-002  0.4604503E+03  0.7546771E-02  0.1024651E+00
         21   -1    0    0  502  501  0.00000000000E+00  0.00000000000E+00  0.14297709281E+03  0.14297709281E+03  0.00000000000E+00 0.  1.
         21   -1    0    0  501  502 -0.00000000000E+00 -0.00000000000E+00 -0.37071400445E+03  0.37071400445E+03  0.00000000000E+00 0.  1.
      99926    2    1    2    0    0  0.00000000000E+00  0.88817841970E-15 -0.22773691164E+03  0.51369109726E+03  0.46045026060E+03 0.  0.
      99925    2    3    3    0    0  0.11420203314E+03  0.73727761186E+01 -0.10914723395E+03  0.30679140670E+03  0.26289044552E+03 0.  0.
         25    1    3    3    0    0 -0.11420203314E+03 -0.73727761186E+01 -0.11858967769E+03  0.20689969057E+03  0.12509000000E+03 0.  0.
         25    1    4    4    0    0  0.86386758380E+02  0.24558548327E+02 -0.82804986233E+02  0.17484269548E+03  0.12509000000E+03 0.  0.
         25    1    4    4    0    0  0.27815274760E+02 -0.17185772209E+02 -0.26342247715E+02  0.13194871121E+03  0.12509000000E+03 0.  0.
<mgrwt>
<rscale>  2 0.46045026E+03</rscale>
<asrwt>0</asrwt>
<pdfrwt beam="1">  1       21 0.21026043E-01 0.46045026E+03</pdfrwt>
<pdfrwt beam="2">  1       21 0.54516766E-01 0.46045026E+03</pdfrwt>
<totfact> 0.61610771E+04</totfact>
</mgrwt>
</event>
<event>
 7    0  0.4712189E-002  0.4535230E+03  0.7546771E-02  0.1026677E+00
         21   -1    0    0  502  501  0.00000000000E+00  0.00000000000E+00  0.98988744525E+03  0.98988744525E+03  0.00000000000E+00 0. -1.
         21   -1    0    0  501  502 -0.00000000000E+00 -0.00000000000E+00 -0.51946090231E+02  0.51946090231E+02  0.00000000000E+00 0. -1.
      99926    2    1    2    0    0  0.00000000000E+00  0.35527136788E-14  0.93794135502E+03  0.10418335355E+04  0.45352302058E+03 0.  0.
      99925    2    3    3    0    0 -0.62589702897E+02 -0.23370267721E+02  0.38636092475E+03  0.47231433521E+03  0.26332950224E+03 0.  0.
         25    1    4    4    0    0 -0.57226569882E+02  0.85522790039E+01  0.15577181834E+03  0.20799132017E+03  0.12509000000E+03 0.  0.
         25    1    4    4    0    0 -0.53631330153E+01 -0.31922546725E+02  0.23058910641E+03  0.26432301504E+03  0.12509000000E+03 0.  0.
         25    1    3    3    0    0  0.62589702897E+02  0.23370267721E+02  0.55158043027E+03  0.56951920027E+03  0.12509000000E+03 0.  0.
<mgrwt>
<rscale>  2 0.45352302E+03</rscale>
<asrwt>0</asrwt>
<pdfrwt beam="1">  1       21 0.14557167E+00 0.45352302E+03</pdfrwt>
<pdfrwt beam="2">  1       21 0.76391315E-02 0.45352302E+03</pdfrwt>
<totfact> 0.38014871E+04</totfact>
</mgrwt>
</event>
<event>
 7    0  0.4712189E-002  0.4520549E+03  0.7546771E-02  0.1027111E+00
         21   -1    0    0  502  501  0.00000000000E+00  0.00000000000E+00  0.27325549181E+03  0.27325549181E+03  0.00000000000E+00 0.  1.
         21   -1    0    0  501  502 -0.00000000000E+00 -0.00000000000E+00 -0.18696203158E+03  0.18696203158E+03  0.00000000000E+00 0.  1.
      99926    2    1    2    0    0  0.00000000000E+00  0.00000000000E+00  0.86293460233E+02  0.46021752338E+03  0.45205487228E+03 0.  0.
      99925    2    3    3    0    0 -0.45447656756E+02 -0.78619445909E+01  0.15653396784E+03  0.30952400432E+03  0.26301126684E+03 0.  0.
         25    1    4    4    0    0  0.17644491492E+02  0.21188075650E+01  0.80452885612E+02  0.14978648914E+03  0.12509000000E+03 0.  0.
         25    1    3    3    0    0  0.45447656756E+02  0.78619445909E+01 -0.70240507609E+02  0.15069351906E+03  0.12509000000E+03 0.  0.
         25    1    4    4    0    0 -0.63092148248E+02 -0.99807521559E+01  0.76081082229E+02  0.15973751518E+03  0.12509000000E+03 0.  0.
<mgrwt>
<rscale>  2 0.45205487E+03</rscale>
<asrwt>0</asrwt>
<pdfrwt beam="1">  1       21 0.40184631E-01 0.45205487E+03</pdfrwt>
<pdfrwt beam="2">  1       21 0.27494417E-01 0.45205487E+03</pdfrwt>
<totfact> 0.69786226E+04</totfact>
</mgrwt>
</event>
<event>
 7    0  0.4712189E-002  0.4789555E+03  0.7546771E-02  0.1019423E+00
         21   -1    0    0  502  501  0.00000000000E+00  0.00000000000E+00  0.16050361429E+03  0.16050361429E+03  0.00000000000E+00 0.  1.
         21   -1    0    0  501  502 -0.00000000000E+00 -0.00000000000E+00 -0.35731024719E+03  0.35731024719E+03  0.00000000000E+00 0.  1.
      99926    2    1    2    0    0  0.14210854715E-13 -0.88817841970E-15 -0.19680663290E+03  0.51781386149E+03  0.47895547225E+03 0.  0.
      99925    2    3    3    0    0  0.10451085362E+03 -0.60276424998E+01 -0.30436712251E+02  0.28482178095E+03  0.26313153071E+03 0.  0.
         25    1    3    3    0    0 -0.10451085362E+03  0.60276424998E+01 -0.16636992065E+03  0.23299208054E+03  0.12509000000E+03 0.  0.
         25    1    4    4    0    0  0.36884352859E+02 -0.12625380222E+02 -0.51766065799E+02  0.14087969825E+03  0.12509000000E+03 0.  0.
         25    1    4    4    0    0  0.67626500756E+02  0.65977377223E+01  0.21329353548E+02  0.14394208269E+03  0.12509000000E+03 0.  0.
<mgrwt>
<rscale>  2 0.47895547E+03</rscale>
<asrwt>0</asrwt>
<pdfrwt beam="1">  1       21 0.23603473E-01 0.47895547E+03</pdfrwt>
<pdfrwt beam="2">  1       21 0.52545625E-01 0.47895547E+03</pdfrwt>
<totfact> 0.53181970E+04</totfact>
</mgrwt>
</event>
<event>
 7    0  0.4712189E-002  0.4286826E+03  0.7546771E-02  0.1034277E+00
         21   -1    0    0  502  501  0.00000000000E+00  0.00000000000E+00  0.66069272576E+03  0.66069272576E+03  0.00000000000E+00 0. -1.
         21   -1    0    0  501  502 -0.00000000000E+00 -0.00000000000E+00 -0.69536385063E+02  0.69536385063E+02  0.00000000000E+00 0. -1.
      99926    2    1    2    0    0  0.00000000000E+00  0.35527136788E-14  0.59115634069E+03  0.73022911082E+03  0.42868255755E+03 0.  0.
      99925    2    3    3    0    0  0.69681006165E+02 -0.30766668612E+02  0.45070108284E+03  0.52730740652E+03  0.26290607520E+03 0.  0.
         25    1    4    4    0    0  0.15899564684E+02  0.82678581297E+01  0.26649798623E+03  0.29494039804E+03  0.12509000000E+03 0.  0.
         25    1    4    4    0    0  0.53781441481E+02 -0.39034526742E+02  0.18420309662E+03  0.23236700848E+03  0.12509000000E+03 0.  0.
         25    1    3    3    0    0 -0.69681006165E+02  0.30766668612E+02  0.14045525785E+03  0.20292170430E+03  0.12509000000E+03 0.  0.
<mgrwt>
<rscale>  2 0.42868256E+03</rscale>
<asrwt>0</asrwt>
<pdfrwt beam="1">  1       21 0.97160691E-01 0.42868256E+03</pdfrwt>
<pdfrwt beam="2">  1       21 0.10225939E-01 0.42868256E+03</pdfrwt>
<totfact> 0.63435634E+04</totfact>
</mgrwt>
</event>
<event>
 7    0  0.4712189E-002  0.4443961E+03  0.7546771E-02  0.1029406E+00
         21   -1    0    0  502  501  0.00000000000E+00  0.00000000000E+00  0.34926510604E+02  0.34926510604E+02  0.00000000000E+00 0. -1.
         21   -1    0    0  501  502 -0.00000000000E+00 -0.00000000000E+00 -0.14135962516E+04  0.14135962516E+04  0.00000000000E+00 0. -1.
      99926    2    1    2    0    0  0.00000000000E+00 -0.35527136788E-14 -0.13786697410E+04  0.14485227622E+04  0.44439614972E+03 0.  0.
      99925    2    3    3    0    0  0.88683981081E+02 -0.29258775479E+02 -0.72895098508E+03  0.78031404157E+03  0.26229666483E+03 0.  0.
         25    1    4    4    0    0  0.72270426185E+02 -0.22790779882E+02 -0.31069704564E+03  0.34339859700E+03  0.12509000000E+03 0.  0.
         25    1    3    3    0    0 -0.88683981081E+02  0.29258775479E+02 -0.64971875596E+03  0.66820872067E+03  0.12509000000E+03 0.  0.
         25    1    4    4    0    0  0.16413554896E+02 -0.64679955969E+01 -0.41825393944E+03  0.43691544457E+03  0.12509000000E+03 0.  0.
<mgrwt>
<rscale>  2 0.44439615E+03</rscale>
<asrwt>0</asrwt>
<pdfrwt beam="1">  1       21 0.51362526E-02 0.44439615E+03</pdfrwt>
<pdfrwt beam="2">  1       21 0.20788176E+00 0.44439615E+03</pdfrwt>
<totfact> 0.27243544E+04</totfact>
</mgrwt>
</event>
<event>
 7    0  0.4712189E-002  0.4538688E+03  0.7546771E-02  0.1026575E+00
         21   -1    0    0  502  501  0.00000000000E+00  0.00000000000E+00  0.91087377219E+02  0.91087377219E+02  0.00000000000E+00 0.  1.
         21   -1    0    0  501  502 -0.00000000000E+00 -0.00000000000E+00 -0.56538259989E+03  0.56538259989E+03  0.00000000000E+00 0.  1.
      99926    2    1    2    0    0  0.35527136788E-14  0.14210854715E-13 -0.47429522267E+03  0.65646997711E+03  0.45386878346E+03 0.  0.
      99925    2    3    3    0    0 -0.28600039222E+02 -0.10336011354E+03 -0.25164468617E+03  0.37948253187E+03  0.26302218272E+03 0.  0.
         25    1    3    3    0    0  0.28600039222E+02  0.10336011354E+03 -0.22265053650E+03  0.27698744524E+03  0.12509000000E+03 0.  0.
         25    1    4    4    0    0  0.25470782127E+01 -0.90118059966E+02 -0.12853896689E+03  0.20074243809E+03  0.12509000000E+03 0.  0.
         25    1    4    4    0    0 -0.31147117435E+02 -0.13242053574E+02 -0.12310571928E+03  0.17874009379E+03  0.12509000000E+03 0.  0.
<mgrwt>
<rscale>  2 0.45386878E+03</rscale>
<asrwt>0</asrwt>
<pdfrwt beam="1">  1       21 0.13395203E-01 0.45386878E+03</pdfrwt>
<pdfrwt beam="2">  1       21 0.83144497E-01 0.45386878E+03</pdfrwt>
<totfact> 0.55826639E+04</totfact>
</mgrwt>
</event>
<event>
 7    0  0.4712189E-002  0.4179070E+03  0.7546771E-02  0.1037750E+00
         21   -1    0    0  502  501  0.00000000000E+00  0.00000000000E+00  0.22707591728E+03  0.22707591728E+03  0.00000000000E+00 0.  1.
         21   -1    0    0  501  502 -0.00000000000E+00 -0.00000000000E+00 -0.19227741691E+03  0.19227741691E+03  0.00000000000E+00 0.  1.
      99926    2    1    2    0    0  0.19984014443E-14  0.00000000000E+00  0.34798500366E+02  0.41935333419E+03  0.41790702706E+03 0.  0.
      99925    2    3    3    0    0  0.18131493063E+01  0.63338686408E+02 -0.13365023142E+02  0.27108901008E+03  0.26324048100E+03 0.  0.
         25    1    4    4    0    0  0.39395650556E+02  0.32647207071E+02  0.72478430792E+01  0.13534362468E+03  0.12509000000E+03 0.  0.
         25    1    4    4    0    0 -0.37582501249E+02  0.30691479338E+02 -0.20612866221E+02  0.13574538540E+03  0.12509000000E+03 0.  0.
         25    1    3    3    0    0 -0.18131493063E+01 -0.63338686408E+02  0.48163523508E+02  0.14826432411E+03  0.12509000000E+03 0.  0.
<mgrwt>
<rscale>  2 0.41790703E+03</rscale>
<asrwt>0</asrwt>
<pdfrwt beam="1">  1       21 0.33393517E-01 0.41790703E+03</pdfrwt>
<pdfrwt beam="2">  1       21 0.28276091E-01 0.41790703E+03</pdfrwt>
<totfact> 0.96895327E+04</totfact>
</mgrwt>
</event>
<event>
 7    0  0.4712189E-002  0.4205436E+03  0.7546771E-02  0.1036890E+00
         21   -1    0    0  502  501  0.00000000000E+00  0.00000000000E+00  0.11204497464E+04  0.11204497464E+04  0.00000000000E+00 0. -1.
         21   -1    0    0  501  502 -0.00000000000E+00 -0.00000000000E+00 -0.39461142441E+02  0.39461142441E+02  0.00000000000E+00 0. -1.
      99926    2    1    2    0    0  0.00000000000E+00  0.00000000000E+00  0.10809886039E+04  0.11599108888E+04  0.42054358652E+03 0.  0.
      99925    2    3    3    0    0  0.68050658744E+02  0.26236953748E+02  0.76785930462E+03  0.81492286571E+03  0.26300588486E+03 0.  0.
         25    1    4    4    0    0  0.25333165449E+02  0.21540939803E+02  0.26443652932E+03  0.29441461835E+03  0.12509000000E+03 0.  0.
         25    1    3    3    0    0 -0.68050658744E+02 -0.26236953748E+02  0.31312929932E+03  0.34498802311E+03  0.12509000000E+03 0.  0.
         25    1    4    4    0    0  0.42717493295E+02  0.46960139446E+01  0.50342277530E+03  0.52050824737E+03  0.12509000000E+03 0.  0.
<mgrwt>
<rscale>  2 0.42054359E+03</rscale>
<asrwt>0</asrwt>
<pdfrwt beam="1">  1       21 0.16477200E+00 0.42054359E+03</pdfrwt>
<pdfrwt beam="2">  1       21 0.58031099E-02 0.42054359E+03</pdfrwt>
<totfact> 0.44173551E+04</totfact>
</mgrwt>
</event>
<event>
 7    0  0.4712189E-002  0.4426795E+03  0.7546771E-02  0.1029928E+00
         21   -1    0    0  502  501  0.00000000000E+00  0.00000000000E+00  0.18626558320E+03  0.18626558320E+03  0.00000000000E+00 0.  1.
         21   -1    0    0  501  502 -0.00000000000E+00 -0.00000000000E+00 -0.26301844901E+03  0.26301844901E+03  0.00000000000E+00 0.  1.
      99926    2    1    2    0    0  0.00000000000E+00  0.00000000000E+00 -0.76752865803E+02  0.44928403221E+03  0.44267949940E+03 0.  0.
      99925    2    3    3    0    0  0.36322671081E+02 -0.10651824766E+02  0.46372646355E+02  0.26972847633E+03  0.26300233992E+03 0.  0.
         25    1    4    4    0    0  0.52429297762E+02 -0.75957041152E+01  0.15857263140E+01  0.13585488071E+03  0.12509000000E+03 0.  0.
         25    1    4    4    0    0 -0.16106626680E+02 -0.30561206511E+01  0.44786920041E+02  0.13387359562E+03  0.12509000000E+03 0.  0.
         25    1    3    3    0    0 -0.36322671081E+02  0.10651824766E+02 -0.12312551216E+03  0.17955555589E+03  0.12509000000E+03 0.  0.
<mgrwt>
<rscale>  2 0.44267950E+03</rscale>
<asrwt>0</asrwt>
<pdfrwt beam="1">  1       21 0.27391998E-01 0.44267950E+03</pdfrwt>
<pdfrwt beam="2">  1       21 0.38679183E-01 0.44267950E+03</pdfrwt>
<totfact> 0.76182674E+04</totfact>
</mgrwt>
</event>
<event>
 7    0  0.4712189E-002  0.4583553E+03  0.7546771E-02  0.1025259E+00
         21   -1    0    0  502  501  0.00000000000E+00  0.00000000000E+00  0.22983060319E+03  0.22983060319E+03  0.00000000000E+00 0. -1.
         21   -1    0    0  501  502 -0.00000000000E+00 -0.00000000000E+00 -0.22852654332E+03  0.22852654332E+03  0.00000000000E+00 0. -1.
      99926    2    1    2    0    0 -0.14210854715E-13  0.00000000000E+00  0.13040598648E+01  0.45835714651E+03  0.45835529143E+03 0.  0.
      99925    2    3    3    0    0  0.99993042292E+02 -0.58741932948E+02  0.98213436241E+01  0.28756699628E+03  0.26296215576E+03 0.  0.
         25    1    4    4    0    0  0.90990863342E+02 -0.45457336544E+02  0.84258636461E+01  0.16144413875E+03  0.12509000000E+03 0.  0.
         25    1    3    3    0    0 -0.99993042292E+02  0.58741932948E+02 -0.85172837593E+01  0.17079015023E+03  0.12509000000E+03 0.  0.
         25    1    4    4    0    0  0.90021789494E+01 -0.13284596404E+02  0.13954799780E+01  0.12612285753E+03  0.12509000000E+03 0.  0.
<mgrwt>
<rscale>  2 0.45835529E+03</rscale>
<asrwt>0</asrwt>
<pdfrwt beam="1">  1       21 0.33798618E-01 0.45835529E+03</pdfrwt>
<pdfrwt beam="2">  1       21 0.33606844E-01 0.45835529E+03</pdfrwt>
<totfact> 0.66502251E+04</totfact>
</mgrwt>
</event>
<event>
 7    0  0.4712189E-002  0.4502871E+03  0.7546771E-02  0.1027636E+00
         21   -1    0    0  502  501  0.00000000000E+00  0.00000000000E+00  0.86253582116E+03  0.86253582116E+03  0.00000000000E+00 0. -1.
         21   -1    0    0  501  502 -0.00000000000E+00 -0.00000000000E+00 -0.58768127392E+02  0.58768127392E+02  0.00000000000E+00 0. -1.
      99926    2    1    2    0    0  0.00000000000E+00  0.00000000000E+00  0.80376769377E+03  0.92130394855E+03  0.45028708628E+03 0.  0.
      99925    2    3    3    0    0  0.96939229390E+02  0.16465446359E+02  0.60276264946E+03  0.66494704684E+03  0.26298942640E+03 0.  0.
         25    1    4    4    0    0  0.76241668723E+02 -0.12155571950E+01  0.39040718970E+03  0.41698867071E+03  0.12509000000E+03 0.  0.
         25    1    3    3    0    0 -0.96939229390E+02 -0.16465446359E+02  0.20100504431E+03  0.25635690171E+03  0.12509000000E+03 0.  0.
         25    1    4    4    0    0  0.20697560667E+02  0.17681003554E+02  0.21235545976E+03  0.24795837613E+03  0.12509000000E+03 0.  0.
<mgrwt>
<rscale>  2 0.45028709E+03</rscale>
<asrwt>0</asrwt>
<pdfrwt beam="1">  1       21 0.12684350E+00 0.45028709E+03</pdfrwt>
<pdfrwt beam="2">  1       21 0.86423722E-02 0.45028709E+03</pdfrwt>
<totfact> 0.43922234E+04</totfact>
</mgrwt>
</event>
<event>
 6    0  0.4712189E-002  0.4824495E+03  0.7546771E-02  0.1018464E+00
         21   -1    0    0  502  501  0.00000000000E+00  0.00000000000E+00  0.15954532625E+03  0.15954532625E+03  0.00000000000E+00 0. -1.
         21   -1    0    0  501  502 -0.00000000000E+00 -0.00000000000E+00 -0.36472006206E+03  0.36472006206E+03  0.00000000000E+00 0. -1.
      99926    2    1    2    0    0  0.71054273576E-14 -0.14210854715E-13 -0.20517473581E+03  0.52426538831E+03  0.48244950530E+03 0.  0.
         25    1    3    3    0    0  0.33722562021E+02 -0.93743782762E+02 -0.72424650736E+02  0.17555040909E+03  0.12509000000E+03 0.  0.
         25    1    3    3    0    0 -0.59115420056E+02  0.11066858593E+03 -0.13031120872E+03  0.21993337177E+03  0.12509000000E+03 0.  0.
         25    1    3    3    0    0  0.25392858035E+02 -0.16924803164E+02 -0.24388763507E+01  0.12878160746E+03  0.12509000000E+03 0.  0.
<mgrwt>
<rscale>  2 0.48244951E+03</rscale>
<asrwt>0</asrwt>
<pdfrwt beam="1">  1       21 0.23462549E-01 0.48244951E+03</pdfrwt>
<pdfrwt beam="2">  1       21 0.53635302E-01 0.48244951E+03</pdfrwt>
<totfact> 0.51443463E+04</totfact>
</mgrwt>
</event>
<event>
 7    0  0.4712189E-002  0.4245056E+03  0.7546771E-02  0.1035610E+00
         21   -1    0    0  502  501  0.00000000000E+00  0.00000000000E+00  0.12552879809E+03  0.12552879809E+03  0.00000000000E+00 0. -1.
         21   -1    0    0  501  502 -0.00000000000E+00 -0.00000000000E+00 -0.35889182310E+03  0.35889182310E+03  0.00000000000E+00 0. -1.
      99926    2    1    2    0    0  0.71054273576E-14 -0.66613381478E-15 -0.23336302501E+03  0.48442062120E+03  0.42450563812E+03 0.  0.
      99925    2    3    3    0    0 -0.48310914354E+02 -0.19826553938E+01 -0.22512138648E+03  0.35005802196E+03  0.26367234348E+03 0.  0.
         25    1    3    3    0    0  0.48310914354E+02  0.19826553938E+01 -0.82416385279E+01  0.13436259924E+03  0.12509000000E+03 0.  0.
         25    1    4    4    0    0 -0.39003737345E+01  0.99959970560E+01 -0.15496730629E+03  0.19944299183E+03  0.12509000000E+03 0.  0.
         25    1    4    4    0    0 -0.44410540620E+02 -0.11978652450E+02 -0.70154080195E+02  0.15061503013E+03  0.12509000000E+03 0.  0.
<mgrwt>
<rscale>  2 0.42450564E+03</rscale>
<asrwt>0</asrwt>
<pdfrwt beam="1">  1       21 0.18460118E-01 0.42450564E+03</pdfrwt>
<pdfrwt beam="2">  1       21 0.52778209E-01 0.42450564E+03</pdfrwt>
<totfact> 0.85209208E+04</totfact>
</mgrwt>
</event>
<event>
 7    0  0.4712189E-002  0.4527935E+03  0.7546771E-02  0.1026892E+00
         21   -1    0    0  502  501  0.00000000000E+00  0.00000000000E+00  0.28239772808E+03  0.28239772808E+03  0.00000000000E+00 0.  1.
         21   -1    0    0  501  502 -0.00000000000E+00 -0.00000000000E+00 -0.18150103445E+03  0.18150103445E+03  0.00000000000E+00 0.  1.
      99926    2    1    2    0    0  0.00000000000E+00  0.00000000000E+00  0.10089669362E+03  0.46389876253E+03  0.45279346185E+03 0.  0.
      99925    2    3    3    0    0  0.49000559815E+02  0.71480625480E+02 -0.76114991020E+01  0.27699753014E+03  0.26298129611E+03 0.  0.
         25    1    4    4    0    0  0.14341700281E+02  0.75322544416E+02 -0.10615268161E+02  0.14710323614E+03  0.12509000000E+03 0.  0.
         25    1    4    4    0    0  0.34658859534E+02 -0.38419189354E+01  0.30037690594E+01  0.12989429400E+03  0.12509000000E+03 0.  0.
         25    1    3    3    0    0 -0.49000559815E+02 -0.71480625480E+02  0.10850819272E+03  0.18690123239E+03  0.12509000000E+03 0.  0.
<mgrwt>
<rscale>  2 0.45279346E+03</rscale>
<asrwt>0</asrwt>
<pdfrwt beam="1">  1       21 0.41529078E-01 0.45279346E+03</pdfrwt>
<pdfrwt beam="2">  1       21 0.26691328E-01 0.45279346E+03</pdfrwt>
<totfact> 0.69094041E+04</totfact>
</mgrwt>
</event>
<event>
 7    0  0.4712189E-002  0.4581985E+03  0.7546771E-02  0.1025305E+00
         21   -1    0    0  502  501  0.00000000000E+00  0.00000000000E+00  0.48241673249E+03  0.48241673249E+03  0.00000000000E+00 0.  1.
         21   -1    0    0  501  502 -0.00000000000E+00 -0.00000000000E+00 -0.10879903720E+03  0.10879903720E+03  0.00000000000E+00 0.  1.
      99926    2    1    2    0    0  0.00000000000E+00  0.00000000000E+00  0.37361769529E+03  0.59121576969E+03  0.45819854223E+03 0.  0.
      99925    2    3    3    0    0 -0.98174978017E+02  0.58363547231E+02  0.20771681441E+03  0.35411823632E+03  0.26307569320E+03 0.  0.
         25    1    3    3    0    0  0.98174978017E+02 -0.58363547231E+02  0.16590088088E+03  0.23709753337E+03  0.12509000000E+03 0.  0.
         25    1    4    4    0    0 -0.82911366460E+02  0.57190722741E+02  0.11023870698E+03  0.19479515926E+03  0.12509000000E+03 0.  0.
         25    1    4    4    0    0 -0.15263611556E+02  0.11728244900E+01  0.97478107437E+02  0.15932307706E+03  0.12509000000E+03 0.  0.
<mgrwt>
<rscale>  2 0.45819854E+03</rscale>
<asrwt>0</asrwt>
<pdfrwt beam="1">  1       21 0.70943636E-01 0.45819854E+03</pdfrwt>
<pdfrwt beam="2">  1       21 0.15999859E-01 0.45819854E+03</pdfrwt>
<totfact> 0.57748501E+04</totfact>
</mgrwt>
</event>
<event>
 7    0  0.4712189E-002  0.4543842E+03  0.7546771E-02  0.1026423E+00
         21   -1    0    0  502  501  0.00000000000E+00  0.00000000000E+00  0.15733007457E+03  0.15733007457E+03  0.00000000000E+00 0. -1.
         21   -1    0    0  501  502 -0.00000000000E+00 -0.00000000000E+00 -0.32807619551E+03  0.32807619551E+03  0.00000000000E+00 0. -1.
      99926    2    1    2    0    0  0.00000000000E+00 -0.35527136788E-14 -0.17074612094E+03  0.48540627007E+03  0.45438420880E+03 0.  0.
      99925    2    3    3    0    0 -0.10352563811E+03 -0.18737632415E+02 -0.15011465887E+03  0.32065851761E+03  0.26309469301E+03 0.  0.
         25    1    4    4    0    0 -0.34171706958E+02  0.13392880003E+02 -0.10466461747E+03  0.16718033689E+03  0.12509000000E+03 0.  0.
         25    1    4    4    0    0 -0.69353931152E+02 -0.32130512418E+02 -0.45450041403E+02  0.15347818072E+03  0.12509000000E+03 0.  0.
         25    1    3    3    0    0  0.10352563811E+03  0.18737632415E+02 -0.20631462068E+02  0.16474775246E+03  0.12509000000E+03 0.  0.
<mgrwt>
<rscale>  2 0.45438421E+03</rscale>
<asrwt>0</asrwt>
<pdfrwt beam="1">  1       21 0.23136776E-01 0.45438421E+03</pdfrwt>
<pdfrwt beam="2">  1       21 0.48246499E-01 0.45438421E+03</pdfrwt>
<totfact> 0.66633762E+04</totfact>
</mgrwt>
</event>
<event>
 7    0  0.4712189E-002  0.4529415E+03  0.7546771E-02  0.1026848E+00
         21   -1    0    0  502  501  0.00000000000E+00  0.00000000000E+00  0.24003550901E+03  0.24003550901E+03  0.00000000000E+00 0. -1.
         21   -1    0    0  501  502 -0.00000000000E+00 -0.00000000000E+00 -0.21367253385E+03  0.21367253385E+03  0.00000000000E+00 0. -1.
      99926    2    1    2    0    0  0.00000000000E+00  0.00000000000E+00  0.26362975159E+02  0.45370804286E+03  0.45294147712E+03 0.  0.
      99925    2    3    3    0    0 -0.17344374667E+02 -0.62142888270E+02  0.10742020036E+03  0.29128776164E+03  0.26295797144E+03 0.  0.
         25    1    3    3    0    0  0.17344374667E+02  0.62142888270E+02 -0.81057225198E+02  0.16242028122E+03  0.12509000000E+03 0.  0.
         25    1    4    4    0    0  0.26786546320E+02 -0.13315092755E+02  0.62314661307E+02  0.14291758420E+03  0.12509000000E+03 0.  0.
         25    1    4    4    0    0 -0.44130920986E+02 -0.48827795515E+02  0.45105539051E+02  0.14837017744E+03  0.12509000000E+03 0.  0.
<mgrwt>
<rscale>  2 0.45294148E+03</rscale>
<asrwt>0</asrwt>
<pdfrwt beam="1">  1       21 0.35299340E-01 0.45294148E+03</pdfrwt>
<pdfrwt beam="2">  1       21 0.31422431E-01 0.45294148E+03</pdfrwt>
<totfact> 0.69779656E+04</totfact>
</mgrwt>
</event>
<event>
 7    0  0.4712189E-002  0.4622640E+03  0.7546771E-02  0.1024127E+00
         21   -1    0    0  502  501  0.00000000000E+00  0.00000000000E+00  0.20310785834E+03  0.20310785834E+03  0.00000000000E+00 0. -1.
         21   -1    0    0  501  502 -0.00000000000E+00 -0.00000000000E+00 -0.26302280275E+03  0.26302280275E+03  0.00000000000E+00 0. -1.
      99926    2    1    2    0    0  0.00000000000E+00  0.00000000000E+00 -0.59914944406E+02  0.46613066109E+03  0.46226398588E+03 0.  0.
      99925    2    3    3    0    0 -0.51990944072E+02  0.91897458053E+02  0.19671310180E+02  0.28411505439E+03  0.26303270258E+03 0.  0.
         25    1    4    4    0    0 -0.40193562930E+02  0.59991782885E+02  0.46495232880E+02  0.15173612390E+03  0.12509000000E+03 0.  0.
         25    1    3    3    0    0  0.51990944072E+02 -0.91897458053E+02 -0.79586254586E+02  0.18201560670E+03  0.12509000000E+03 0.  0.
         25    1    4    4    0    0 -0.11797381142E+02  0.31905675168E+02 -0.26823922700E+02  0.13237893049E+03  0.12509000000E+03 0.  0.
<mgrwt>
<rscale>  2 0.46226399E+03</rscale>
<asrwt>0</asrwt>
<pdfrwt beam="1">  1       21 0.29868803E-01 0.46226399E+03</pdfrwt>
<pdfrwt beam="2">  1       21 0.38679823E-01 0.46226399E+03</pdfrwt>
<totfact> 0.63950384E+04</totfact>
</mgrwt>
</event>
<event>
 7    0  0.4712189E-002  0.4528738E+03  0.7546771E-02  0.1026869E+00
         21   -1    0    0  502  501  0.00000000000E+00  0.00000000000E+00  0.77564573044E+03  0.77564573044E+03  0.00000000000E+00 0. -1.
         21   -1    0    0  501  502 -0.00000000000E+00 -0.00000000000E+00 -0.66104482618E+02  0.66104482618E+02  0.00000000000E+00 0. -1.
      99926    2    1    2    0    0  0.71054273576E-14  0.55511151231E-15  0.70954124782E+03  0.84175021306E+03  0.45287375594E+03 0.  0.
      99925    2    3    3    0    0  0.39857372695E+02 -0.50931520952E+00  0.25438397396E+03  0.36803666923E+03  0.26296561396E+03 0.  0.
         25    1    3    3    0    0 -0.39857372695E+02  0.50931520952E+00  0.45515727386E+03  0.47371354383E+03  0.12509000000E+03 0.  0.
         25    1    4    4    0    0 -0.54343308255E+00  0.22037683203E+02  0.16170211259E+03  0.20562353007E+03  0.12509000000E+03 0.  0.
         25    1    4    4    0    0  0.40400805778E+02 -0.22546998413E+02  0.92681861367E+02  0.16241313916E+03  0.12509000000E+03 0.  0.
<mgrwt>
<rscale>  2 0.45287376E+03</rscale>
<asrwt>0</asrwt>
<pdfrwt beam="1">  1       21 0.11406554E+00 0.45287376E+03</pdfrwt>
<pdfrwt beam="2">  1       21 0.97212479E-02 0.45287376E+03</pdfrwt>
<totfact> 0.46582898E+04</totfact>
</mgrwt>
</event>
<event>
 7    0  0.4712189E-002  0.4635649E+03  0.7546771E-02  0.1023752E+00
         21   -1    0    0  502  501  0.00000000000E+00  0.00000000000E+00  0.14122656266E+03  0.14122656266E+03  0.00000000000E+00 0. -1.
         21   -1    0    0  501  502 -0.00000000000E+00 -0.00000000000E+00 -0.38040362821E+03  0.38040362821E+03  0.00000000000E+00 0. -1.
      99926    2    1    2    0    0  0.00000000000E+00  0.00000000000E+00 -0.23917706555E+03  0.52163019087E+03  0.46356486853E+03 0.  0.
      99925    2    3    3    0    0 -0.34743364796E+02  0.86656176439E+02 -0.63288790432E+02  0.28646942089E+03  0.26333033209E+03 0.  0.
         25    1    4    4    0    0 -0.44409660083E+02  0.35300615611E+02 -0.62490418178E+02  0.15090033743E+03  0.12509000000E+03 0.  0.
         25    1    3    3    0    0  0.34743364796E+02 -0.86656176439E+02 -0.17588827512E+03  0.23516076998E+03  0.12509000000E+03 0.  0.
         25    1    4    4    0    0  0.96662952871E+01  0.51355560828E+02 -0.79837225459E+00  0.13556908346E+03  0.12509000000E+03 0.  0.
<mgrwt>
<rscale>  2 0.46356487E+03</rscale>
<asrwt>0</asrwt>
<pdfrwt beam="1">  1       21 0.20768612E-01 0.46356487E+03</pdfrwt>
<pdfrwt beam="2">  1       21 0.55941710E-01 0.46356487E+03</pdfrwt>
<totfact> 0.59620368E+04</totfact>
</mgrwt>
</event>
<event>
 7    0  0.4712189E-002  0.4316345E+03  0.7546771E-02  0.1033345E+00
         21   -1    0    0  502  501  0.00000000000E+00  0.00000000000E+00  0.12086351040E+03  0.12086351040E+03  0.00000000000E+00 0. -1.
         21   -1    0    0  501  502 -0.00000000000E+00 -0.00000000000E+00 -0.38536920328E+03  0.38536920328E+03  0.00000000000E+00 0. -1.
      99926    2    1    2    0    0  0.14210854715E-13  0.71054273576E-14 -0.26450569288E+03  0.50623271368E+03  0.43163445047E+03 0.  0.
      99925    2    3    3    0    0 -0.66096463060E+02 -0.54551578770E+02 -0.20088735800E+03  0.34179604561E+03  0.26291479421E+03 0.  0.
         25    1    4    4    0    0 -0.71142055834E+02 -0.38748116461E+02 -0.92118226391E+02  0.17520240972E+03  0.12509000000E+03 0.  0.
         25    1    3    3    0    0  0.66096463060E+02  0.54551578770E+02 -0.63618334883E+02  0.16443666808E+03  0.12509000000E+03 0.  0.
         25    1    4    4    0    0  0.50455927741E+01 -0.15803462309E+02 -0.10876913161E+03  0.16659363589E+03  0.12509000000E+03 0.  0.
<mgrwt>
<rscale>  2 0.43163445E+03</rscale>
<asrwt>0</asrwt>
<pdfrwt beam="1">  1       21 0.17774046E-01 0.43163445E+03</pdfrwt>
<pdfrwt beam="2">  1       21 0.56671942E-01 0.43163445E+03</pdfrwt>
<totfact> 0.78383349E+04</totfact>
</mgrwt>
</event>
<event>
 7    0  0.4712189E-002  0.4470554E+03  0.7546771E-02  0.1028604E+00
         21   -1    0    0  502  501  0.00000000000E+00  0.00000000000E+00  0.32360093048E+03  0.32360093048E+03  0.00000000000E+00 0.  1.
         21   -1    0    0  501  502 -0.00000000000E+00 -0.00000000000E+00 -0.15440202386E+03  0.15440202386E+03  0.00000000000E+00 0.  1.
      99926    2    1    2    0    0 -0.14210854715E-13 -0.14210854715E-13  0.16919890663E+03  0.47800295434E+03  0.44705542649E+03 0.  0.
      99925    2    3    3    0    0 -0.80005471708E+02  0.65207010734E+02  0.83459144215E+02  0.29455910814E+03  0.26295780970E+03 0.  0.
         25    1    4    4    0    0 -0.82311950941E+02  0.36438991841E+02  0.45533946523E+02  0.16069818226E+03  0.12509000000E+03 0.  0.
         25    1    4    4    0    0  0.23064792331E+01  0.28768018893E+02  0.37925197692E+02  0.13386092588E+03  0.12509000000E+03 0.  0.
         25    1    3    3    0    0  0.80005471708E+02 -0.65207010734E+02  0.85739762411E+02  0.18344384620E+03  0.12509000000E+03 0.  0.
<mgrwt>
<rscale>  2 0.44705543E+03</rscale>
<asrwt>0</asrwt>
<pdfrwt beam="1">  1       21 0.47588372E-01 0.44705543E+03</pdfrwt>
<pdfrwt beam="2">  1       21 0.22706180E-01 0.44705543E+03</pdfrwt>
<totfact> 0.71233095E+04</totfact>
</mgrwt>
</event>
<event>
 7    0  0.4712189E-002  0.4576196E+03  0.7546771E-02  0.1025474E+00
         21   -1    0    0  502  501  0.00000000000E+00  0.00000000000E+00  0.22469751916E+03  0.22469751916E+03  0.00000000000E+00 0.  1.
         21   -1    0    0  501  502 -0.00000000000E+00 -0.00000000000E+00 -0.23299733715E+03  0.23299733715E+03  0.00000000000E+00 0.  1.
      99926    2    1    2    0    0  0.71054273576E-14  0.00000000000E+00 -0.82998179878E+01  0.45769485631E+03  0.45761959586E+03 0.  0.
      99925    2    3    3    0    0 -0.36370628482E+02  0.10218403172E+03  0.34876240828E+02  0.28659231656E+03  0.26297225097E+03 0.  0.
         25    1    3    3    0    0  0.36370628482E+02 -0.10218403172E+03 -0.43176058816E+02  0.17110253975E+03  0.12509000000E+03 0.  0.
         25    1    4    4    0    0  0.74374434816E+01  0.22558760413E+02  0.34718598481E+02  0.13197387021E+03  0.12509000000E+03 0.  0.
         25    1    4    4    0    0 -0.43808071964E+02  0.79625271309E+02  0.15764234719E+00  0.15461844635E+03  0.12509000000E+03 0.  0.
<mgrwt>
<rscale>  2 0.45761960E+03</rscale>
<asrwt>0</asrwt>
<pdfrwt beam="1">  1       21 0.33043753E-01 0.45761960E+03</pdfrwt>
<pdfrwt beam="2">  1       21 0.34264314E-01 0.45761960E+03</pdfrwt>
<totfact> 0.66938714E+04</totfact>
</mgrwt>
</event>
<event>
 7    0  0.4712189E-002  0.4539466E+03  0.7546771E-02  0.1026552E+00
         21   -1    0    0  502  501  0.00000000000E+00  0.00000000000E+00  0.72451906496E+03  0.72451906496E+03  0.00000000000E+00 0. -1.
         21   -1    0    0  501  502 -0.00000000000E+00 -0.00000000000E+00 -0.71104919804E+02  0.71104919804E+02  0.00000000000E+00 0. -1.
      99926    2    1    2    0    0  0.00000000000E+00  0.00000000000E+00  0.65341414515E+03  0.79562398476E+03  0.45394656078E+03 0.  0.
      99925    2    3    3    0    0  0.89858527338E+02 -0.25598250308E+02  0.52041494512E+03  0.59052371498E+03  0.26297664819E+03 0.  0.
         25    1    4    4    0    0  0.53898904279E+02  0.16261805665E+02  0.31727019700E+03  0.34565506536E+03  0.12509000000E+03 0.  0.
         25    1    4    4    0    0  0.35959623060E+02 -0.41860055974E+02  0.20314474812E+03  0.24486864962E+03  0.12509000000E+03 0.  0.
         25    1    3    3    0    0 -0.89858527338E+02  0.25598250308E+02  0.13299920003E+03  0.20510026978E+03  0.12509000000E+03 0.  0.
<mgrwt>
<rscale>  2 0.45394656E+03</rscale>
<asrwt>0</asrwt>
<pdfrwt beam="1">  1       21 0.10654692E+00 0.45394656E+03</pdfrwt>
<pdfrwt beam="2">  1       21 0.10456606E-01 0.45394656E+03</pdfrwt>
<totfact> 0.48375914E+04</totfact>
</mgrwt>
</event>
<event>
 7    0  0.4712189E-002  0.4620663E+03  0.7546771E-02  0.1024184E+00
         21   -1    0    0  502  501  0.00000000000E+00  0.00000000000E+00  0.12382064468E+03  0.12382064468E+03  0.00000000000E+00 0.  1.
         21   -1    0    0  501  502 -0.00000000000E+00 -0.00000000000E+00 -0.43107774158E+03  0.43107774158E+03  0.00000000000E+00 0.  1.
      99926    2    1    2    0    0 -0.35527136788E-14  0.00000000000E+00 -0.30725709690E+03  0.55489838626E+03  0.46206633234E+03 0.  0.
      99925    2    3    3    0    0  0.18528413942E+02  0.94101842080E+02 -0.10562903957E+03  0.29896902021E+03  0.26272899010E+03 0.  0.
         25    1    4    4    0    0 -0.12835912877E+02  0.73906170614E+02 -0.78521116626E+02  0.16565010284E+03  0.12509000000E+03 0.  0.
         25    1    4    4    0    0  0.31364326819E+02  0.20195671466E+02 -0.27107922944E+02  0.13331891737E+03  0.12509000000E+03 0.  0.
         25    1    3    3    0    0 -0.18528413942E+02 -0.94101842080E+02 -0.20162805733E+03  0.25592936605E+03  0.12509000000E+03 0.  0.
<mgrwt>
<rscale>  2 0.46206633E+03</rscale>
<asrwt>0</asrwt>
<pdfrwt beam="1">  1       21 0.18208918E-01 0.46206633E+03</pdfrwt>
<pdfrwt beam="2">  1       21 0.63393786E-01 0.46206633E+03</pdfrwt>
<totfact> 0.58220425E+04</totfact>
</mgrwt>
</event>
<event>
 7    0  0.4712189E-002  0.4553336E+03  0.7546771E-02  0.1026143E+00
         21   -1    0    0  502  501  0.00000000000E+00  0.00000000000E+00  0.93272651373E+02  0.93272651373E+02  0.00000000000E+00 0.  1.
         21   -1    0    0  501  502 -0.00000000000E+00 -0.00000000000E+00 -0.55570609148E+03  0.55570609148E+03  0.00000000000E+00 0.  1.
      99926    2    1    2    0    0  0.00000000000E+00 -0.14210854715E-13 -0.46243344011E+03  0.64897874286E+03  0.45533363828E+03 0.  0.
      99925    2    3    3    0    0  0.38620081869E+02  0.10551826118E+03 -0.31014634605E+03  0.42212089908E+03  0.26338125086E+03 0.  0.
         25    1    3    3    0    0 -0.38620081869E+02 -0.10551826118E+03 -0.15228709406E+03  0.22685784378E+03  0.12509000000E+03 0.  0.
         25    1    4    4    0    0  0.47166156260E+02  0.50831515970E+02 -0.20319590716E+03  0.24848455505E+03  0.12509000000E+03 0.  0.
         25    1    4    4    0    0 -0.85460743912E+01  0.54686745207E+02 -0.10695043889E+03  0.17363634403E+03  0.12509000000E+03 0.  0.
<mgrwt>
<rscale>  2 0.45533364E+03</rscale>
<asrwt>0</asrwt>
<pdfrwt beam="1">  1       21 0.13716566E-01 0.45533364E+03</pdfrwt>
<pdfrwt beam="2">  1       21 0.81721486E-01 0.45533364E+03</pdfrwt>
<totfact> 0.55613833E+04</totfact>
</mgrwt>
</event>
<event>
 7    0  0.4712189E-002  0.4484989E+03  0.7546771E-02  0.1028171E+00
         21   -1    0    0  502  501  0.00000000000E+00  0.00000000000E+00  0.44686932104E+03  0.44686932104E+03  0.00000000000E+00 0.  1.
         21   -1    0    0  501  502 -0.00000000000E+00 -0.00000000000E+00 -0.11253361178E+03  0.11253361178E+03  0.00000000000E+00 0.  1.
      99926    2    1    2    0    0  0.00000000000E+00  0.17763568394E-14  0.33433570926E+03  0.55940293283E+03  0.44849891278E+03 0.  0.
      99925    2    3    3    0    0  0.10494049654E+03  0.14766896796E+02  0.23900153127E+03  0.36975409247E+03  0.26146852180E+03 0.  0.
         25    1    4    4    0    0  0.77192949962E+02 -0.65050139488E+01  0.16163517649E+03  0.21857379785E+03  0.12509000000E+03 0.  0.
         25    1    4    4    0    0  0.27747546579E+02  0.21271910745E+02  0.77366354784E+02  0.15118029462E+03  0.12509000000E+03 0.  0.
         25    1    3    3    0    0 -0.10494049654E+03 -0.14766896796E+02  0.95334177989E+02  0.18964884036E+03  0.12509000000E+03 0.  0.
<mgrwt>
<rscale>  2 0.44849891E+03</rscale>
<asrwt>0</asrwt>
<pdfrwt beam="1">  1       21 0.65716076E-01 0.44849891E+03</pdfrwt>
<pdfrwt beam="2">  1       21 0.16549061E-01 0.44849891E+03</pdfrwt>
<totfact> 0.64502891E+04</totfact>
</mgrwt>
</event>
<event>
 7    0  0.4712189E-002  0.4661854E+03  0.7546771E-02  0.1023002E+00
         21   -1    0    0  502  501  0.00000000000E+00  0.00000000000E+00  0.42590002172E+03  0.42590002172E+03  0.00000000000E+00 0.  1.
         21   -1    0    0  501  502 -0.00000000000E+00 -0.00000000000E+00 -0.12757032818E+03  0.12757032818E+03  0.00000000000E+00 0.  1.
      99926    2    1    2    0    0  0.00000000000E+00  0.14210854715E-13  0.29832969354E+03  0.55347034990E+03  0.46618539464E+03 0.  0.
      99925    2    3    3    0    0  0.11045566645E+02  0.11551391795E+03  0.23602892031E+03  0.37182684127E+03  0.26283089408E+03 0.  0.
         25    1    3    3    0    0 -0.11045566645E+02 -0.11551391795E+03  0.62300773222E+02  0.18164350863E+03  0.12509000000E+03 0.  0.
         25    1    4    4    0    0  0.81655722973E+01  0.14800478391E+02  0.11434785816E+03  0.17031932215E+03  0.12509000000E+03 0.  0.
         25    1    4    4    0    0  0.28799943479E+01  0.10071343956E+03  0.12168106215E+03  0.20150751912E+03  0.12509000000E+03 0.  0.
<mgrwt>
<rscale>  2 0.46618539E+03</rscale>
<asrwt>0</asrwt>
<pdfrwt beam="1">  1       21 0.62632356E-01 0.46618539E+03</pdfrwt>
<pdfrwt beam="2">  1       21 0.18760342E-01 0.46618539E+03</pdfrwt>
<totfact> 0.56471900E+04</totfact>
</mgrwt>
</event>
<event>
 7    0  0.4712189E-002  0.4537477E+03  0.7546771E-02  0.1026610E+00
         21   -1    0    0  502  501  0.00000000000E+00  0.00000000000E+00  0.67116003856E+03  0.67116003856E+03  0.00000000000E+00 0.  1.
         21   -1    0    0  501  502 -0.00000000000E+00 -0.00000000000E+00 -0.76690731853E+02  0.76690731853E+02  0.00000000000E+00 0.  1.
      99926    2    1    2    0    0  0.00000000000E+00  0.00000000000E+00  0.59446930670E+03  0.74785077041E+03  0.45374774731E+03 0.  0.
      99925    2    3    3    0    0 -0.10533125001E+03  0.21771507595E+02  0.42535780832E+03  0.51159904500E+03  0.26312667477E+03 0.  0.
         25    1    3    3    0    0  0.10533125001E+03 -0.21771507595E+02  0.16911149838E+03  0.23625172541E+03  0.12509000000E+03 0.  0.
         25    1    4    4    0    0 -0.55215589584E+02  0.92633644153E+01  0.14073545038E+03  0.19643967610E+03  0.12509000000E+03 0.  0.
         25    1    4    4    0    0 -0.50115660430E+02  0.12508143180E+02  0.28462235795E+03  0.31515936890E+03  0.12509000000E+03 0.  0.
<mgrwt>
<rscale>  2 0.45374775E+03</rscale>
<asrwt>0</asrwt>
<pdfrwt beam="1">  1       21 0.98700003E-01 0.45374775E+03</pdfrwt>
<pdfrwt beam="2">  1       21 0.11278049E-01 0.45374775E+03</pdfrwt>
<totfact> 0.50879710E+04</totfact>
</mgrwt>
</event>
<event>
 7    0  0.4712189E-002  0.4295177E+03  0.7546771E-02  0.1034012E+00
         21   -1    0    0  502  501  0.00000000000E+00  0.00000000000E+00  0.47976382675E+02  0.47976382675E+02  0.00000000000E+00 0.  1.
         21   -1    0    0  501  502 -0.00000000000E+00 -0.00000000000E+00 -0.96133467299E+03  0.96133467299E+03  0.00000000000E+00 0.  1.
      99926    2    1    2    0    0  0.00000000000E+00  0.00000000000E+00 -0.91335829032E+03  0.10093110557E+04  0.42951768369E+03 0.  0.
      99925    2    3    3    0    0  0.71514226945E+02  0.49553327121E+02 -0.57928254876E+03  0.64212727868E+03  0.26303869268E+03 0.  0.
         25    1    4    4    0    0  0.19668242805E+02  0.59278255279E+02 -0.32701985062E+03  0.35565466695E+03  0.12509000000E+03 0.  0.
         25    1    3    3    0    0 -0.71514226945E+02 -0.49553327121E+02 -0.33407574156E+03  0.36718377698E+03  0.12509000000E+03 0.  0.
         25    1    4    4    0    0  0.51845984140E+02 -0.97249281575E+01 -0.25226269814E+03  0.28647261173E+03  0.12509000000E+03 0.  0.
<mgrwt>
<rscale>  2 0.42951768E+03</rscale>
<asrwt>0</asrwt>
<pdfrwt beam="1">  1       21 0.70553510E-02 0.42951768E+03</pdfrwt>
<pdfrwt beam="2">  1       21 0.14137273E+00 0.42951768E+03</pdfrwt>
<totfact> 0.47595168E+04</totfact>
</mgrwt>
</event>
<event>
 7    0  0.4712189E-002  0.4578532E+03  0.7546771E-02  0.1025406E+00
         21   -1    0    0  502  501  0.00000000000E+00  0.00000000000E+00  0.12004182248E+03  0.12004182248E+03  0.00000000000E+00 0.  1.
         21   -1    0    0  501  502 -0.00000000000E+00 -0.00000000000E+00 -0.43657605054E+03  0.43657605054E+03  0.00000000000E+00 0.  1.
      99926    2    1    2    0    0  0.14210854715E-13  0.00000000000E+00 -0.31653422805E+03  0.55661787302E+03  0.45785318502E+03 0.  0.
      99925    2    3    3    0    0  0.11292986578E+03  0.16583934207E+02 -0.17628206087E+03  0.33673981601E+03  0.26323023618E+03 0.  0.
         25    1    4    4    0    0  0.75010028116E+02 -0.21093253151E+02 -0.65364763502E+02  0.16121876458E+03  0.12509000000E+03 0.  0.
         25    1    4    4    0    0  0.37919837661E+02  0.37677187358E+02 -0.11091729737E+03  0.17552105142E+03  0.12509000000E+03 0.  0.
         25    1    3    3    0    0 -0.11292986578E+03 -0.16583934207E+02 -0.14025216718E+03  0.21987805701E+03  0.12509000000E+03 0.  0.
<mgrwt>
<rscale>  2 0.45785319E+03</rscale>
<asrwt>0</asrwt>
<pdfrwt beam="1">  1       21 0.17653209E-01 0.45785319E+03</pdfrwt>
<pdfrwt beam="2">  1       21 0.64202361E-01 0.45785319E+03</pdfrwt>
<totfact> 0.60064106E+04</totfact>
</mgrwt>
</event>
<event>
 7    0  0.4712189E-002  0.4576520E+03  0.7546771E-02  0.1025464E+00
         21   -1    0    0  502  501  0.00000000000E+00  0.00000000000E+00  0.40740991325E+03  0.40740991325E+03  0.00000000000E+00 0.  1.
         21   -1    0    0  501  502 -0.00000000000E+00 -0.00000000000E+00 -0.12852248113E+03  0.12852248113E+03  0.00000000000E+00 0.  1.
      99926    2    1    2    0    0  0.00000000000E+00  0.35527136788E-14  0.27888743212E+03  0.53593239438E+03  0.45765197646E+03 0.  0.
      99925    2    3    3    0    0  0.10774421025E+03  0.29345532009E+02  0.14000032020E+03  0.31820064877E+03  0.26302393072E+03 0.  0.
         25    1    4    4    0    0  0.22080773511E+02 -0.90310594151E+01  0.44190878416E+02  0.13479414835E+03  0.12509000000E+03 0.  0.
         25    1    4    4    0    0  0.85663436736E+02  0.38376591424E+02  0.95809441788E+02  0.18340650043E+03  0.12509000000E+03 0.  0.
         25    1    3    3    0    0 -0.10774421025E+03 -0.29345532009E+02  0.13888711192E+03  0.21773174561E+03  0.12509000000E+03 0.  0.
<mgrwt>
<rscale>  2 0.45765198E+03</rscale>
<asrwt>0</asrwt>
<pdfrwt beam="1">  1       21 0.59913222E-01 0.45765198E+03</pdfrwt>
<pdfrwt beam="2">  1       21 0.18900365E-01 0.45765198E+03</pdfrwt>
<totfact> 0.61503812E+04</totfact>
</mgrwt>
</event>
<event>
 7    0  0.4712189E-002  0.4508487E+03  0.7546771E-02  0.1027469E+00
         21   -1    0    0  502  501  0.00000000000E+00  0.00000000000E+00  0.94779363861E+03  0.94779363861E+03  0.00000000000E+00 0.  1.
         21   -1    0    0  501  502 -0.00000000000E+00 -0.00000000000E+00 -0.53615196482E+02  0.53615196482E+02  0.00000000000E+00 0.  1.
      99926    2    1    2    0    0  0.00000000000E+00  0.00000000000E+00  0.89417844213E+03  0.10014088351E+04  0.45084872034E+03 0.  0.
      99925    2    3    3    0    0 -0.78800119463E+02  0.39939000480E+02  0.70781514137E+03  0.76019654155E+03  0.26285342844E+03 0.  0.
         25    1    4    4    0    0 -0.60026972044E+02 -0.14098526807E+02  0.37374436930E+03  0.39891649191E+03  0.12509000000E+03 0.  0.
         25    1    4    4    0    0 -0.18773147419E+02  0.54037527287E+02  0.33407077207E+03  0.36128004964E+03  0.12509000000E+03 0.  0.
         25    1    3    3    0    0  0.78800119463E+02 -0.39939000480E+02  0.18636330076E+03  0.24121229354E+03  0.12509000000E+03 0.  0.
<mgrwt>
<rscale>  2 0.45084872E+03</rscale>
<asrwt>0</asrwt>
<pdfrwt beam="1">  1       21 0.13938141E+00 0.45084872E+03</pdfrwt>
<pdfrwt beam="2">  1       21 0.78845883E-02 0.45084872E+03</pdfrwt>
<totfact> 0.40406198E+04</totfact>
</mgrwt>
</event>
<event>
 7    0  0.4712189E-002  0.4634760E+03  0.7546771E-02  0.1023778E+00
         21   -1    0    0  502  501  0.00000000000E+00  0.00000000000E+00  0.33886642523E+03  0.33886642523E+03  0.00000000000E+00 0.  1.
         21   -1    0    0  501  502 -0.00000000000E+00 -0.00000000000E+00 -0.15847687260E+03  0.15847687260E+03  0.00000000000E+00 0.  1.
      99926    2    1    2    0    0  0.00000000000E+00 -0.35527136788E-14  0.18038955262E+03  0.49734329783E+03  0.46347595968E+03 0.  0.
      99925    2    3    3    0    0 -0.11698777529E+03  0.30361613555E+02  0.11003357018E+03  0.30971217165E+03  0.26307085653E+03 0.  0.
         25    1    3    3    0    0  0.11698777529E+03 -0.30361613555E+02  0.70355982443E+02  0.18763112618E+03  0.12509000000E+03 0.  0.
         25    1    4    4    0    0 -0.50362340283E+02  0.54386312071E+02  0.63011462625E+02  0.15846825796E+03  0.12509000000E+03 0.  0.
         25    1    4    4    0    0 -0.66625435010E+02 -0.24024698516E+02  0.47022107555E+02  0.15124391369E+03  0.12509000000E+03 0.  0.
<mgrwt>
<rscale>  2 0.46347596E+03</rscale>
<asrwt>0</asrwt>
<pdfrwt beam="1">  1       21 0.49833298E-01 0.46347596E+03</pdfrwt>
<pdfrwt beam="2">  1       21 0.23305422E-01 0.46347596E+03</pdfrwt>
<totfact> 0.61232640E+04</totfact>
</mgrwt>
</event>
<event>
 7    0  0.4712189E-002  0.4536589E+03  0.7546771E-02  0.1026637E+00
         21   -1    0    0  502  501  0.00000000000E+00  0.00000000000E+00  0.10172282671E+04  0.10172282671E+04  0.00000000000E+00 0. -1.
         21   -1    0    0  501  502 -0.00000000000E+00 -0.00000000000E+00 -0.50580181278E+02  0.50580181278E+02  0.00000000000E+00 0. -1.
      99926    2    1    2    0    0  0.00000000000E+00  0.14210854715E-13  0.96664808578E+03  0.10678084483E+04  0.45365885927E+03 0.  0.
      99925    2    3    3    0    0 -0.77195465317E+02  0.80579286518E+02  0.58724816584E+03  0.65302661577E+03  0.26292811058E+03 0.  0.
         25    1    3    3    0    0  0.77195465317E+02 -0.80579286518E+02  0.37939991994E+03  0.41478183258E+03  0.12509000000E+03 0.  0.
         25    1    4    4    0    0 -0.53989510819E+02  0.39994898254E+02  0.38800516769E+03  0.41317063959E+03  0.12509000000E+03 0.  0.
         25    1    4    4    0    0 -0.23205954498E+02  0.40584388265E+02  0.19924299815E+03  0.23985597617E+03  0.12509000000E+03 0.  0.
<mgrwt>
<rscale>  2 0.45365886E+03</rscale>
<asrwt>0</asrwt>
<pdfrwt beam="1">  1       21 0.14959238E+00 0.45365886E+03</pdfrwt>
<pdfrwt beam="2">  1       21 0.74382626E-02 0.45365886E+03</pdfrwt>
<totfact> 0.37016560E+04</totfact>
</mgrwt>
</event>
<event>
 7    0  0.4712189E-002  0.4553721E+03  0.7546771E-02  0.1026132E+00
         21   -1    0    0  502  501  0.00000000000E+00  0.00000000000E+00  0.32785024542E+03  0.32785024542E+03  0.00000000000E+00 0. -1.
         21   -1    0    0  501  502 -0.00000000000E+00 -0.00000000000E+00 -0.15812385782E+03  0.15812385782E+03  0.00000000000E+00 0. -1.
      99926    2    1    2    0    0  0.00000000000E+00 -0.71054273576E-14  0.16972638761E+03  0.48597410324E+03  0.45537213614E+03 0.  0.
      99925    2    3    3    0    0  0.43996520127E+02  0.44935388616E+02  0.60937466306E+01  0.27061850841E+03  0.26313943150E+03 0.  0.
         25    1    4    4    0    0  0.55048523140E+02 -0.13906248099E+01  0.11976575227E+01  0.13667924576E+03  0.12509000000E+03 0.  0.
         25    1    4    4    0    0 -0.11052003013E+02  0.46326013426E+02  0.48960891079E+01  0.13393926265E+03  0.12509000000E+03 0.  0.
         25    1    3    3    0    0 -0.43996520127E+02 -0.44935388616E+02  0.16363264097E+03  0.21535559483E+03  0.12509000000E+03 0.  0.
<mgrwt>
<rscale>  2 0.45537214E+03</rscale>
<asrwt>0</asrwt>
<pdfrwt beam="1">  1       21 0.48213272E-01 0.45537214E+03</pdfrwt>
<pdfrwt beam="2">  1       21 0.23253508E-01 0.45537214E+03</pdfrwt>
<totfact> 0.66072332E+04</totfact>
</mgrwt>
</event>
<event>
 7    0  0.4712189E-002  0.4631647E+03  0.7546771E-02  0.1023867E+00
         21   -1    0    0  502  501  0.00000000000E+00  0.00000000000E+00  0.35259081591E+03  0.35259081591E+03  0.00000000000E+00 0.  1.
         21   -1    0    0  501  502 -0.00000000000E+00 -0.00000000000E+00 -0.15210375320E+03  0.15210375320E+03  0.00000000000E+00 0.  1.
      99926    2    1    2    0    0  0.14210854715E-13  0.71054273576E-14  0.20048706271E+03  0.50469456910E+03  0.46316470695E+03 0.  0.
      99925    2    3    3    0    0  0.94797855968E+02  0.59617692730E+02  0.77068532168E+02  0.29631859985E+03  0.26329498890E+03 0.  0.
         25    1    4    4    0    0  0.80946704574E+01  0.45125371430E+02  0.36801219432E+02  0.13821599288E+03  0.12509000000E+03 0.  0.
         25    1    3    3    0    0 -0.94797855968E+02 -0.59617692730E+02  0.12341853054E+03  0.20837596926E+03  0.12509000000E+03 0.  0.
         25    1    4    4    0    0  0.86703185511E+02  0.14492321300E+02  0.40267312737E+02  0.15810260697E+03  0.12509000000E+03 0.  0.
<mgrwt>
<rscale>  2 0.46316471E+03</rscale>
<asrwt>0</asrwt>
<pdfrwt beam="1">  1       21 0.51851591E-01 0.46316471E+03</pdfrwt>
<pdfrwt beam="2">  1       21 0.22368199E-01 0.46316471E+03</pdfrwt>
<totfact> 0.60898429E+04</totfact>
</mgrwt>
</event>
<event>
 7    0  0.4712189E-002  0.4805652E+03  0.7546771E-02  0.1018980E+00
         21   -1    0    0  502  501  0.00000000000E+00  0.00000000000E+00  0.32236153674E+03  0.32236153674E+03  0.00000000000E+00 0. -1.
         21   -1    0    0  501  502 -0.00000000000E+00 -0.00000000000E+00 -0.17910238509E+03  0.17910238509E+03  0.00000000000E+00 0. -1.
      99926    2    1    2    0    0  0.71054273576E-14 -0.14210854715E-13  0.14325915165E+03  0.50146392182E+03  0.48056516765E+03 0.  0.
      99925    2    3    3    0    0  0.57518853431E+02 -0.11855548992E+03  0.12240560251E+03  0.31858089554E+03  0.26295785363E+03 0.  0.
         25    1    4    4    0    0  0.32949623238E+02 -0.16067806519E+02  0.60230014195E+02  0.14359322682E+03  0.12509000000E+03 0.  0.
         25    1    4    4    0    0  0.24569230193E+02 -0.10248768341E+03  0.62175588315E+02  0.17498766872E+03  0.12509000000E+03 0.  0.
         25    1    3    3    0    0 -0.57518853431E+02  0.11855548992E+03  0.20853549141E+02  0.18288302628E+03  0.12509000000E+03 0.  0.
<mgrwt>
<rscale>  2 0.48056517E+03</rscale>
<asrwt>0</asrwt>
<pdfrwt beam="1">  1       21 0.47406109E-01 0.48056517E+03</pdfrwt>
<pdfrwt beam="2">  1       21 0.26338586E-01 0.48056517E+03</pdfrwt>
<totfact> 0.53465659E+04</totfact>
</mgrwt>
</event>
<event>
 7    0  0.4712189E-002  0.4542640E+03  0.7546771E-02  0.1026458E+00
         21   -1    0    0  502  501  0.00000000000E+00  0.00000000000E+00  0.51148318865E+03  0.51148318865E+03  0.00000000000E+00 0.  1.
         21   -1    0    0  501  502 -0.00000000000E+00 -0.00000000000E+00 -0.10086146011E+03  0.10086146011E+03  0.00000000000E+00 0.  1.
      99926    2    1    2    0    0  0.00000000000E+00  0.00000000000E+00  0.41062172853E+03  0.61234464876E+03  0.45426398154E+03 0.  0.
      99925    2    3    3    0    0  0.52391099681E+02 -0.78525989719E+02  0.34042277240E+03  0.44062813840E+03  0.26335211030E+03 0.  0.
         25    1    3    3    0    0 -0.52391099681E+02  0.78525989719E+02  0.70198956133E+02  0.17171651036E+03  0.12509000000E+03 0.  0.
         25    1    4    4    0    0 -0.97205435719E+01 -0.29227617963E+02  0.18976190048E+03  0.22935960759E+03  0.12509000000E+03 0.  0.
         25    1    4    4    0    0  0.62111643253E+02 -0.49298371756E+02  0.15066087192E+03  0.21126853081E+03  0.12509000000E+03 0.  0.
<mgrwt>
<rscale>  2 0.45426398E+03</rscale>
<asrwt>0</asrwt>
<pdfrwt beam="1">  1       21 0.75218115E-01 0.45426398E+03</pdfrwt>
<pdfrwt beam="2">  1       21 0.14832568E-01 0.45426398E+03</pdfrwt>
<totfact> 0.58262749E+04</totfact>
</mgrwt>
</event>
<event>
 7    0  0.4712189E-002  0.4514372E+03  0.7546771E-02  0.1027294E+00
         21   -1    0    0  502  501  0.00000000000E+00  0.00000000000E+00  0.53298950661E+03  0.53298950661E+03  0.00000000000E+00 0. -1.
         21   -1    0    0  501  502 -0.00000000000E+00 -0.00000000000E+00 -0.95590781541E+02  0.95590781541E+02  0.00000000000E+00 0. -1.
      99926    2    1    2    0    0  0.00000000000E+00  0.00000000000E+00  0.43739872507E+03  0.62858028815E+03  0.45143718717E+03 0.  0.
      99925    2    3    3    0    0  0.35467014750E+02 -0.71453330052E+02  0.17182175961E+03  0.32437292435E+03  0.26330892401E+03 0.  0.
         25    1    4    4    0    0 -0.22648731424E+02 -0.35241303691E+02  0.71849266663E+02  0.15021564413E+03  0.12509000000E+03 0.  0.
         25    1    4    4    0    0  0.58115746175E+02 -0.36212026361E+02  0.99972492947E+02  0.17415728022E+03  0.12509000000E+03 0.  0.
         25    1    3    3    0    0 -0.35467014750E+02  0.71453330052E+02  0.26557696546E+03  0.30420736380E+03  0.12509000000E+03 0.  0.
<mgrwt>
<rscale>  2 0.45143719E+03</rscale>
<asrwt>0</asrwt>
<pdfrwt beam="1">  1       21 0.78380809E-01 0.45143719E+03</pdfrwt>
<pdfrwt beam="2">  1       21 0.14057468E-01 0.45143719E+03</pdfrwt>
<totfact> 0.58583056E+04</totfact>
</mgrwt>
</event>
<event>
 7    0  0.4712189E-002  0.4617605E+03  0.7546771E-02  0.1024272E+00
         21   -1    0    0  502  501  0.00000000000E+00  0.00000000000E+00  0.40083196253E+03  0.40083196253E+03  0.00000000000E+00 0. -1.
         21   -1    0    0  501  502 -0.00000000000E+00 -0.00000000000E+00 -0.13298762835E+03  0.13298762835E+03  0.00000000000E+00 0. -1.
      99926    2    1    2    0    0  0.00000000000E+00 -0.14210854715E-13  0.26784433418E+03  0.53381959088E+03  0.46176050963E+03 0.  0.
      99925    2    3    3    0    0 -0.79279171424E+02  0.69497542633E+02  0.23253260006E+03  0.36645913522E+03  0.26287980570E+03 0.  0.
         25    1    3    3    0    0  0.79279171424E+02 -0.69497542633E+02  0.35311734125E+02  0.16736045567E+03  0.12509000000E+03 0.  0.
         25    1    4    4    0    0 -0.53182276459E+02  0.75052093526E+02  0.13122975717E+03  0.20329763535E+03  0.12509000000E+03 0.  0.
         25    1    4    4    0    0 -0.26096894965E+02 -0.55545508930E+01  0.10130284289E+03  0.16316149987E+03  0.12509000000E+03 0.  0.
<mgrwt>
<rscale>  2 0.46176051E+03</rscale>
<asrwt>0</asrwt>
<pdfrwt beam="1">  1       21 0.58945877E-01 0.46176051E+03</pdfrwt>
<pdfrwt beam="2">  1       21 0.19557004E-01 0.46176051E+03</pdfrwt>
<totfact> 0.59685786E+04</totfact>
</mgrwt>
</event>
<event>
 7    0  0.4712189E-002  0.4425650E+03  0.7546771E-02  0.1029963E+00
         21   -1    0    0  502  501  0.00000000000E+00  0.00000000000E+00  0.16910767255E+03  0.16910767255E+03  0.00000000000E+00 0. -1.
         21   -1    0    0  501  502 -0.00000000000E+00 -0.00000000000E+00 -0.28955479943E+03  0.28955479943E+03  0.00000000000E+00 0. -1.
      99926    2    1    2    0    0  0.00000000000E+00  0.00000000000E+00 -0.12044712688E+03  0.45866247199E+03  0.44256497018E+03 0.  0.
      99925    2    3    3    0    0  0.18304652931E+02 -0.28864035794E+02 -0.17526153058E+03  0.31787781432E+03  0.26298575599E+03 0.  0.
         25    1    4    4    0    0 -0.16393437237E+02 -0.27298251728E+02 -0.12181680660E+03  0.17748459596E+03  0.12509000000E+03 0.  0.
         25    1    3    3    0    0 -0.18304652931E+02  0.28864035794E+02  0.54814403700E+02  0.14078465767E+03  0.12509000000E+03 0.  0.
         25    1    4    4    0    0  0.34698090168E+02 -0.15657840653E+01 -0.53444723983E+02  0.14039321836E+03  0.12509000000E+03 0.  0.
<mgrwt>
<rscale>  2 0.44256497E+03</rscale>
<asrwt>0</asrwt>
<pdfrwt beam="1">  1       21 0.24868776E-01 0.44256497E+03</pdfrwt>
<pdfrwt beam="2">  1       21 0.42581587E-01 0.44256497E+03</pdfrwt>
<totfact> 0.75461808E+04</totfact>
</mgrwt>
</event>
<event>
 7    0  0.4712189E-002  0.4502414E+03  0.7546771E-02  0.1027650E+00
         21   -1    0    0  502  501  0.00000000000E+00  0.00000000000E+00  0.61306532518E+02  0.61306532518E+02  0.00000000000E+00 0.  1.
         21   -1    0    0  501  502 -0.00000000000E+00 -0.00000000000E+00 -0.82665475868E+03  0.82665475868E+03  0.00000000000E+00 0.  1.
      99926    2    1    2    0    0 -0.14210854715E-13  0.00000000000E+00 -0.76534822616E+03  0.88796129120E+03  0.45024143232E+03 0.  0.
      99925    2    3    3    0    0  0.88373790964E+02  0.62506734312E+02 -0.46660984549E+03  0.54648047629E+03  0.26305730230E+03 0.  0.
         25    1    3    3    0    0 -0.88373790964E+02 -0.62506734312E+02 -0.29873838067E+03  0.34148081491E+03  0.12509000000E+03 0.  0.
         25    1    4    4    0    0  0.60072987892E+02  0.66749399823E+02 -0.22080239975E+03  0.26919408256E+03  0.12509000000E+03 0.  0.
         25    1    4    4    0    0  0.28300803072E+02 -0.42426655103E+01 -0.24580744575E+03  0.27728639373E+03  0.12509000000E+03 0.  0.
<mgrwt>
<rscale>  2 0.45024143E+03</rscale>
<asrwt>0</asrwt>
<pdfrwt beam="1">  1       21 0.90156677E-02 0.45024143E+03</pdfrwt>
<pdfrwt beam="2">  1       21 0.12156686E+00 0.45024143E+03</pdfrwt>
<totfact> 0.45427592E+04</totfact>
</mgrwt>
</event>
<event>
 7    0  0.4712189E-002  0.4564890E+03  0.7546771E-02  0.1025804E+00
         21   -1    0    0  502  501  0.00000000000E+00  0.00000000000E+00  0.16057165028E+04  0.16057165028E+04  0.00000000000E+00 0.  1.
         21   -1    0    0  501  502 -0.00000000000E+00 -0.00000000000E+00 -0.32443804146E+02  0.32443804146E+02  0.00000000000E+00 0.  1.
      99926    2    1    2    0    0  0.00000000000E+00  0.00000000000E+00  0.15732726986E+04  0.16381603069E+04  0.45648899978E+03 0.  0.
      99925    2    3    3    0    0 -0.37564296058E+02 -0.10028364093E+03  0.84314727365E+03  0.88969619336E+03  0.26304772657E+03 0.  0.
         25    1    4    4    0    0 -0.19668797305E+02 -0.61855751737E+02  0.55677823621E+03  0.57433658079E+03  0.12509000000E+03 0.  0.
         25    1    3    3    0    0  0.37564296058E+02  0.10028364093E+03  0.73012542497E+03  0.74846411355E+03  0.12509000000E+03 0.  0.
         25    1    4    4    0    0 -0.17895498753E+02 -0.38427889197E+02  0.28636903743E+03  0.31535961257E+03  0.12509000000E+03 0.  0.
<mgrwt>
<rscale>  2 0.45648900E+03</rscale>
<asrwt>0</asrwt>
<pdfrwt beam="1">  1       21 0.23613473E+00 0.45648900E+03</pdfrwt>
<pdfrwt beam="2">  1       21 0.47711487E-02 0.45648900E+03</pdfrwt>
<totfact> 0.20344794E+04</totfact>
</mgrwt>
</event>
<event>
 7    0  0.4712189E-002  0.4581914E+03  0.7546771E-02  0.1025307E+00
         21   -1    0    0  502  501  0.00000000000E+00  0.00000000000E+00  0.10934910870E+03  0.10934910870E+03  0.00000000000E+00 0. -1.
         21   -1    0    0  501  502 -0.00000000000E+00 -0.00000000000E+00 -0.47997507146E+03  0.47997507146E+03  0.00000000000E+00 0. -1.
      99926    2    1    2    0    0  0.00000000000E+00 -0.71054273576E-14 -0.37062596276E+03  0.58932418016E+03  0.45819142840E+03 0.  0.
      99925    2    3    3    0    0 -0.56602388210E+02  0.32636705947E+02 -0.10940374076E+03  0.29241755799E+03  0.26319168832E+03 0.  0.
         25    1    4    4    0    0 -0.26871608386E+02  0.57385960688E+02 -0.54728500716E+02  0.15052557494E+03  0.12509000000E+03 0.  0.
         25    1    4    4    0    0 -0.29730779824E+02 -0.24749254741E+02 -0.54675240045E+02  0.14189198305E+03  0.12509000000E+03 0.  0.
         25    1    3    3    0    0  0.56602388210E+02 -0.32636705947E+02 -0.26122222200E+03  0.29690662217E+03  0.12509000000E+03 0.  0.
<mgrwt>
<rscale>  2 0.45819143E+03</rscale>
<asrwt>0</asrwt>
<pdfrwt beam="1">  1       21 0.16080751E-01 0.45819143E+03</pdfrwt>
<pdfrwt beam="2">  1       21 0.70584571E-01 0.45819143E+03</pdfrwt>
<totfact> 0.57866728E+04</totfact>
</mgrwt>
</event>
<event>
 7    0  0.4712189E-002  0.4620809E+03  0.7546771E-02  0.1024179E+00
         21   -1    0    0  502  501  0.00000000000E+00  0.00000000000E+00  0.67390371200E+02  0.67390371200E+02  0.00000000000E+00 0.  1.
         21   -1    0    0  501  502 -0.00000000000E+00 -0.00000000000E+00 -0.79209666864E+03  0.79209666864E+03  0.00000000000E+00 0.  1.
      99926    2    1    2    0    0  0.14210854715E-13  0.00000000000E+00 -0.72470629744E+03  0.85948703984E+03  0.46208089562E+03 0.  0.
      99925    2    3    3    0    0 -0.10651440203E+03  0.49659325181E+02 -0.49548344789E+03  0.57312714517E+03  0.26298195943E+03 0.  0.
         25    1    4    4    0    0 -0.93216692326E+02  0.22100288765E+02 -0.30335424664E+03  0.34183194927E+03  0.12509000000E+03 0.  0.
         25    1    4    4    0    0 -0.13297709705E+02  0.27559036416E+02 -0.19212920125E+03  0.23129519590E+03  0.12509000000E+03 0.  0.
         25    1    3    3    0    0  0.10651440203E+03 -0.49659325181E+02 -0.22922284955E+03  0.28635989467E+03  0.12509000000E+03 0.  0.
<mgrwt>
<rscale>  2 0.46208090E+03</rscale>
<asrwt>0</asrwt>
<pdfrwt beam="1">  1       21 0.99103491E-02 0.46208090E+03</pdfrwt>
<pdfrwt beam="2">  1       21 0.11648480E+00 0.46208090E+03</pdfrwt>
<totfact> 0.42601989E+04</totfact>
</mgrwt>
</event>
<event>
 7    0  0.4712189E-002  0.4553551E+03  0.7546771E-02  0.1026137E+00
         21   -1    0    0  502  501  0.00000000000E+00  0.00000000000E+00  0.36233147706E+03  0.36233147706E+03  0.00000000000E+00 0. -1.
         21   -1    0    0  501  502 -0.00000000000E+00 -0.00000000000E+00 -0.14306534023E+03  0.14306534023E+03  0.00000000000E+00 0. -1.
      99926    2    1    2    0    0 -0.71054273576E-14  0.17763568394E-14  0.21926613684E+03  0.50539681729E+03  0.45535514070E+03 0.  0.
      99925    2    3    3    0    0  0.62108573815E+02 -0.15530182985E+02  0.24200751764E+03  0.36304745823E+03  0.26293945464E+03 0.  0.
         25    1    4    4    0    0  0.32400576419E+02  0.31851421428E+02  0.13041960210E+03  0.18633596301E+03  0.12509000000E+03 0.  0.
         25    1    4    4    0    0  0.29707997396E+02 -0.47381604413E+02  0.11158791554E+03  0.17671149521E+03  0.12509000000E+03 0.  0.
         25    1    3    3    0    0 -0.62108573815E+02  0.15530182985E+02 -0.22741380805E+02  0.14234935906E+03  0.12509000000E+03 0.  0.
<mgrwt>
<rscale>  2 0.45535514E+03</rscale>
<asrwt>0</asrwt>
<pdfrwt beam="1">  1       21 0.53284041E-01 0.45535514E+03</pdfrwt>
<pdfrwt beam="2">  1       21 0.21039021E-01 0.45535514E+03</pdfrwt>
<totfact> 0.64710557E+04</totfact>
</mgrwt>
</event>
<event>
 7    0  0.4712189E-002  0.4447710E+03  0.7546771E-02  0.1029293E+00
         21   -1    0    0  502  501  0.00000000000E+00  0.00000000000E+00  0.19528749424E+03  0.19528749424E+03  0.00000000000E+00 0. -1.
         21   -1    0    0  501  502 -0.00000000000E+00 -0.00000000000E+00 -0.25324357520E+03  0.25324357520E+03  0.00000000000E+00 0. -1.
      99926    2    1    2    0    0  0.00000000000E+00 -0.71054273576E-14 -0.57956080955E+02  0.44853106944E+03  0.44477096683E+03 0.  0.
      99925    2    3    3    0    0 -0.65408337875E+02 -0.44652733172E+02 -0.10374691780E+03  0.29355872971E+03  0.26294711938E+03 0.  0.
         25    1    3    3    0    0  0.65408337875E+02  0.44652733172E+02  0.45790836848E+02  0.15497233973E+03  0.12509000000E+03 0.  0.
         25    1    4    4    0    0 -0.40593987956E+02  0.14693762720E+02 -0.34374916895E+02  0.13672205942E+03  0.12509000000E+03 0.  0.
         25    1    4    4    0    0 -0.24814349919E+02 -0.59346495892E+02 -0.69372000908E+02  0.15683667029E+03  0.12509000000E+03 0.  0.
<mgrwt>
<rscale>  2 0.44477097E+03</rscale>
<asrwt>0</asrwt>
<pdfrwt beam="1">  1       21 0.28718749E-01 0.44477097E+03</pdfrwt>
<pdfrwt beam="2">  1       21 0.37241702E-01 0.44477097E+03</pdfrwt>
<totfact> 0.74954933E+04</totfact>
</mgrwt>
</event>
<event>
 7    0  0.4712189E-002  0.4643340E+03  0.7546771E-02  0.1023532E+00
         21   -1    0    0  502  501  0.00000000000E+00  0.00000000000E+00  0.18376590221E+04  0.18376590221E+04  0.00000000000E+00 0.  1.
         21   -1    0    0  501  502 -0.00000000000E+00 -0.00000000000E+00 -0.29331616062E+02  0.29331616062E+02  0.00000000000E+00 0.  1.
      99926    2    1    2    0    0  0.00000000000E+00 -0.14210854715E-13  0.18083274060E+04  0.18669906381E+04  0.46433396985E+03 0.  0.
      99925    2    3    3    0    0  0.74778366310E+02  0.94893267263E+02  0.10685879344E+04  0.11070837161E+04  0.26297841091E+03 0.  0.
         25    1    4    4    0    0  0.21629517040E+02  0.80872522169E+02  0.62855149314E+03  0.64632243384E+03  0.12509000000E+03 0.  0.
         25    1    3    3    0    0 -0.74778366310E+02 -0.94893267263E+02  0.73973947161E+03  0.75990692206E+03  0.12509000000E+03 0.  0.
         25    1    4    4    0    0  0.53148849271E+02  0.14020745094E+02  0.44003644124E+03  0.46076128222E+03  0.12509000000E+03 0.  0.
<mgrwt>
<rscale>  2 0.46433397E+03</rscale>
<asrwt>0</asrwt>
<pdfrwt beam="1">  1       21 0.27024390E+00 0.46433397E+03</pdfrwt>
<pdfrwt beam="2">  1       21 0.43134742E-02 0.46433397E+03</pdfrwt>
<totfact> 0.14896661E+04</totfact>
</mgrwt>
</event>
<event>
 7    0  0.4712189E-002  0.4509826E+03  0.7546771E-02  0.1027429E+00
         21   -1    0    0  502  501  0.00000000000E+00  0.00000000000E+00  0.74619370413E+02  0.74619370413E+02  0.00000000000E+00 0. -1.
         21   -1    0    0  501  502 -0.00000000000E+00 -0.00000000000E+00 -0.68140926608E+03  0.68140926608E+03  0.00000000000E+00 0. -1.
      99926    2    1    2    0    0  0.00000000000E+00  0.00000000000E+00 -0.60678989567E+03  0.75602863650E+03  0.45098261797E+03 0.  0.
      99925    2    3    3    0    0 -0.80847604922E+02  0.45110412014E+02 -0.28610148174E+03  0.39957407920E+03  0.26312373974E+03 0.  0.
         25    1    3    3    0    0  0.80847604922E+02 -0.45110412014E+02 -0.32068841392E+03  0.35645455730E+03  0.12509000000E+03 0.  0.
         25    1    4    4    0    0 -0.79746899012E+02  0.26929598155E+02 -0.13317739909E+03  0.20116783761E+03  0.12509000000E+03 0.  0.
         25    1    4    4    0    0 -0.11007059096E+01  0.18180813859E+02 -0.15292408266E+03  0.19840624159E+03  0.12509000000E+03 0.  0.
<mgrwt>
<rscale>  2 0.45098262E+03</rscale>
<asrwt>0</asrwt>
<pdfrwt beam="1">  1       21 0.10973436E-01 0.45098262E+03</pdfrwt>
<pdfrwt beam="2">  1       21 0.10020725E+00 0.45098262E+03</pdfrwt>
<totfact> 0.51572081E+04</totfact>
</mgrwt>
</event>
<event>
 7    0  0.4712189E-002  0.4465725E+03  0.7546771E-02  0.1028749E+00
         21   -1    0    0  502  501  0.00000000000E+00  0.00000000000E+00  0.40152962388E+03  0.40152962388E+03  0.00000000000E+00 0.  1.
         21   -1    0    0  501  502 -0.00000000000E+00 -0.00000000000E+00 -0.12416704294E+03  0.12416704294E+03  0.00000000000E+00 0.  1.
      99926    2    1    2    0    0  0.00000000000E+00  0.14210854715E-13  0.27736258094E+03  0.52569666682E+03  0.44657248483E+03 0.  0.
      99925    2    3    3    0    0  0.66988451355E+02 -0.78273504854E+02  0.20109969852E+03  0.34659409981E+03  0.26281588061E+03 0.  0.
         25    1    3    3    0    0 -0.66988451355E+02  0.78273504854E+02  0.76262882420E+02  0.17910256702E+03  0.12509000000E+03 0.  0.
         25    1    4    4    0    0  0.37041225315E+02 -0.61220860736E+01  0.64878346660E+02  0.14582949042E+03  0.12509000000E+03 0.  0.
         25    1    4    4    0    0  0.29947226039E+02 -0.72151418781E+02  0.13622135186E+03  0.20076460939E+03  0.12509000000E+03 0.  0.
<mgrwt>
<rscale>  2 0.44657248E+03</rscale>
<asrwt>0</asrwt>
<pdfrwt beam="1">  1       21 0.59048474E-01 0.44657248E+03</pdfrwt>
<pdfrwt beam="2">  1       21 0.18259859E-01 0.44657248E+03</pdfrwt>
<totfact> 0.67921021E+04</totfact>
</mgrwt>
</event>
<event>
 7    0  0.4712189E-002  0.4594240E+03  0.7546771E-02  0.1024948E+00
         21   -1    0    0  502  501  0.00000000000E+00  0.00000000000E+00  0.37246703913E+03  0.37246703913E+03  0.00000000000E+00 0.  1.
         21   -1    0    0  501  502 -0.00000000000E+00 -0.00000000000E+00 -0.14167053240E+03  0.14167053240E+03  0.00000000000E+00 0.  1.
      99926    2    1    2    0    0  0.00000000000E+00  0.00000000000E+00  0.23079650673E+03  0.51413757153E+03  0.45942400344E+03 0.  0.
      99925    2    3    3    0    0 -0.10758711783E+03  0.46762944424E+02  0.14060704139E+03  0.32037635598E+03  0.26288573275E+03 0.  0.
         25    1    4    4    0    0 -0.43744295267E+02 -0.14962167486E+01  0.10116775833E+03  0.16672799842E+03  0.12509000000E+03 0.  0.
         25    1    3    3    0    0  0.10758711783E+03 -0.46762944424E+02  0.90189465332E+02  0.19376121555E+03  0.12509000000E+03 0.  0.
         25    1    4    4    0    0 -0.63842822564E+02  0.48259161172E+02  0.39439283062E+02  0.15364835755E+03  0.12509000000E+03 0.  0.
<mgrwt>
<rscale>  2 0.45942400E+03</rscale>
<asrwt>0</asrwt>
<pdfrwt beam="1">  1       21 0.54774564E-01 0.45942400E+03</pdfrwt>
<pdfrwt beam="2">  1       21 0.20833902E-01 0.45942400E+03</pdfrwt>
<totfact> 0.62080096E+04</totfact>
</mgrwt>
</event>
<event>
 7    0  0.4712189E-002  0.4531985E+03  0.7546771E-02  0.1026772E+00
         21   -1    0    0  502  501  0.00000000000E+00  0.00000000000E+00  0.11216490432E+03  0.11216490432E+03  0.00000000000E+00 0. -1.
         21   -1    0    0  501  502 -0.00000000000E+00 -0.00000000000E+00 -0.45778333210E+03  0.45778333210E+03  0.00000000000E+00 0. -1.
      99926    2    1    2    0    0 -0.71054273576E-14  0.00000000000E+00 -0.34561842778E+03  0.56994823642E+03  0.45319851564E+03 0.  0.
      99925    2    3    3    0    0 -0.52131835230E+02  0.79600350657E+02 -0.14466207811E+03  0.31483079947E+03  0.26293986267E+03 0.  0.
         25    1    4    4    0    0 -0.56499719066E+02  0.46264554239E+02 -0.10654010937E+03  0.17980803719E+03  0.12509000000E+03 0.  0.
         25    1    3    3    0    0  0.52131835230E+02 -0.79600350657E+02 -0.20095634966E+03  0.25511743696E+03  0.12509000000E+03 0.  0.
         25    1    4    4    0    0  0.43678838353E+01  0.33335796418E+02 -0.38121968748E+02  0.13502276228E+03  0.12509000000E+03 0.  0.
<mgrwt>
<rscale>  2 0.45319852E+03</rscale>
<asrwt>0</asrwt>
<pdfrwt beam="1">  1       21 0.16494839E-01 0.45319852E+03</pdfrwt>
<pdfrwt beam="2">  1       21 0.67321078E-01 0.45319852E+03</pdfrwt>
<totfact> 0.61437807E+04</totfact>
</mgrwt>
</event>
<event>
 7    0  0.4712189E-002  0.4611574E+03  0.7546771E-02  0.1024446E+00
         21   -1    0    0  502  501  0.00000000000E+00  0.00000000000E+00  0.39420489263E+03  0.39420489263E+03  0.00000000000E+00 0.  1.
         21   -1    0    0  501  502 -0.00000000000E+00 -0.00000000000E+00 -0.13487032961E+03  0.13487032961E+03  0.00000000000E+00 0.  1.
      99926    2    1    2    0    0  0.00000000000E+00  0.71054273576E-14  0.25933456302E+03  0.52907522224E+03  0.46115742997E+03 0.  0.
      99925    2    3    3    0    0 -0.47921487814E+02 -0.53424832406E+02  0.27095895694E+03  0.38439171819E+03  0.26303527321E+03 0.  0.
         25    1    3    3    0    0  0.47921487814E+02  0.53424832406E+02 -0.11624393919E+02  0.14468350406E+03  0.12509000000E+03 0.  0.
         25    1    4    4    0    0  0.42894019461E+01  0.12583270331E+01  0.14391132080E+03  0.19073006766E+03  0.12509000000E+03 0.  0.
         25    1    4    4    0    0 -0.52210889760E+02 -0.54683159439E+02  0.12704763614E+03  0.19366165053E+03  0.12509000000E+03 0.  0.
<mgrwt>
<rscale>  2 0.46115743E+03</rscale>
<asrwt>0</asrwt>
<pdfrwt beam="1">  1       21 0.57971307E-01 0.46115743E+03</pdfrwt>
<pdfrwt beam="2">  1       21 0.19833872E-01 0.46115743E+03</pdfrwt>
<totfact> 0.60273035E+04</totfact>
</mgrwt>
</event>
<event>
 7    0  0.4712189E-002  0.4565379E+03  0.7546771E-02  0.1025790E+00
         21   -1    0    0  502  501  0.00000000000E+00  0.00000000000E+00  0.10532634042E+04  0.10532634042E+04  0.00000000000E+00 0. -1.
         21   -1    0    0  501  502 -0.00000000000E+00 -0.00000000000E+00 -0.49471673341E+02  0.49471673341E+02  0.00000000000E+00 0. -1.
      99926    2    1    2    0    0  0.00000000000E+00  0.22204460493E-15  0.10037917308E+04  0.11027350775E+04  0.45653785417E+03 0.  0.
      99925    2    3    3    0    0  0.37828125818E+02 -0.12389968637E+01  0.89209054354E+03  0.93081310230E+03  0.26297336618E+03 0.  0.
         25    1    3    3    0    0 -0.37828125818E+02  0.12389968637E+01  0.11170118727E+03  0.17192197519E+03  0.12509000000E+03 0.  0.
         25    1    4    4    0    0  0.15163863264E+02  0.38487416026E+02  0.40889766182E+03  0.42959984856E+03  0.12509000000E+03 0.  0.
         25    1    4    4    0    0  0.22664262555E+02 -0.39726412890E+02  0.48319288173E+03  0.50121325375E+03  0.12509000000E+03 0.  0.
<mgrwt>
<rscale>  2 0.45653785E+03</rscale>
<asrwt>0</asrwt>
<pdfrwt beam="1">  1       21 0.15489166E+00 0.45653785E+03</pdfrwt>
<pdfrwt beam="2">  1       21 0.72752468E-02 0.45653785E+03</pdfrwt>
<totfact> 0.34978008E+04</totfact>
</mgrwt>
</event>
<event>
 7    0  0.4712189E-002  0.4608742E+03  0.7546771E-02  0.1024528E+00
         21   -1    0    0  502  501  0.00000000000E+00  0.00000000000E+00  0.87427863189E+03  0.87427863189E+03  0.00000000000E+00 0. -1.
         21   -1    0    0  501  502 -0.00000000000E+00 -0.00000000000E+00 -0.60737236910E+02  0.60737236910E+02  0.00000000000E+00 0. -1.
      99926    2    1    2    0    0  0.35527136788E-14  0.71054273576E-14  0.81354139498E+03  0.93501586880E+03  0.46087424918E+03 0.  0.
      99925    2    3    3    0    0  0.12403212328E+02  0.44786062360E+02  0.28792229251E+03  0.39272205541E+03  0.26300520000E+03 0.  0.
         25    1    4    4    0    0  0.21659254777E+02 -0.30372669304E+01  0.18100330772E+03  0.22110643097E+03  0.12509000000E+03 0.  0.
         25    1    3    3    0    0 -0.12403212328E+02 -0.44786062360E+02  0.52561910246E+03  0.54229381338E+03  0.12509000000E+03 0.  0.
         25    1    4    4    0    0 -0.92560424490E+01  0.47823329290E+02  0.10691898479E+03  0.17161562445E+03  0.12509000000E+03 0.  0.
<mgrwt>
<rscale>  2 0.46087425E+03</rscale>
<asrwt>0</asrwt>
<pdfrwt beam="1">  1       21 0.12857038E+00 0.46087425E+03</pdfrwt>
<pdfrwt beam="2">  1       21 0.89319472E-02 0.46087425E+03</pdfrwt>
<totfact> 0.39889022E+04</totfact>
</mgrwt>
</event>
<event>
 7    0  0.4712189E-002  0.4517305E+03  0.7546771E-02  0.1027207E+00
         21   -1    0    0  502  501  0.00000000000E+00  0.00000000000E+00  0.60783360421E+03  0.60783360421E+03  0.00000000000E+00 0.  1.
         21   -1    0    0  501  502 -0.00000000000E+00 -0.00000000000E+00 -0.83929415607E+02  0.83929415607E+02  0.00000000000E+00 0.  1.
      99926    2    1    2    0    0  0.00000000000E+00 -0.88817841970E-15  0.52390418861E+03  0.69176301982E+03  0.45173053555E+03 0.  0.
      99925    2    3    3    0    0  0.36712909894E+02 -0.39102387544E+01  0.17238448656E+03  0.31682737635E+03  0.26324902179E+03 0.  0.
         25    1    4    4    0    0  0.78977282599E+01  0.47499113968E+01  0.13174357116E+03  0.18190330511E+03  0.12509000000E+03 0.  0.
         25    1    3    3    0    0 -0.36712909894E+02  0.39102387544E+01  0.35151970205E+03  0.37493564348E+03  0.12509000000E+03 0.  0.
         25    1    4    4    0    0  0.28815181634E+02 -0.86601501512E+01  0.40640915403E+02  0.13492407123E+03  0.12509000000E+03 0.  0.
<mgrwt>
<rscale>  2 0.45173054E+03</rscale>
<asrwt>0</asrwt>
<pdfrwt beam="1">  1       21 0.89387292E-01 0.45173054E+03</pdfrwt>
<pdfrwt beam="2">  1       21 0.12342561E-01 0.45173054E+03</pdfrwt>
<totfact> 0.54747955E+04</totfact>
</mgrwt>
</event>
<event>
 6    0  0.4712189E-002  0.4753792E+03  0.7546771E-02  0.1020413E+00
         21   -1    0    0  502  501  0.00000000000E+00  0.00000000000E+00  0.59747359032E+03  0.59747359032E+03  0.00000000000E+00 0. -1.
         21   -1    0    0  501  502 -0.00000000000E+00 -0.00000000000E+00 -0.94558726878E+02  0.94558726878E+02  0.00000000000E+00 0. -1.
      99926    2    1    2    0    0 -0.71054273576E-14  0.00000000000E+00  0.50291486344E+03  0.69203231719E+03  0.47537918357E+03 0.  0.
         25    1    3    3    0    0 -0.64871387206E+02 -0.62478383245E+02  0.20489301787E+03  0.25639910710E+03  0.12509000000E+03 0.  0.
         25    1    3    3    0    0  0.57460382773E+02  0.10680393332E+03  0.11244083988E+03  0.20736254805E+03  0.12509000000E+03 0.  0.
         25    1    3    3    0    0  0.74110044323E+01 -0.44325550075E+02  0.18558100569E+03  0.22827066204E+03  0.12509000000E+03 0.  0.
<mgrwt>
<rscale>  2 0.47537918E+03</rscale>
<asrwt>0</asrwt>
<pdfrwt beam="1">  1       21 0.87863762E-01 0.47537918E+03</pdfrwt>
<pdfrwt beam="2">  1       21 0.13905695E-01 0.47537918E+03</pdfrwt>
<totfact> 0.45569757E+04</totfact>
</mgrwt>
</event>
<event>
 7    0  0.4712189E-002  0.4548398E+03  0.7546771E-02  0.1026289E+00
         21   -1    0    0  502  501  0.00000000000E+00  0.00000000000E+00  0.83806772749E+03  0.83806772749E+03  0.00000000000E+00 0. -1.
         21   -1    0    0  501  502 -0.00000000000E+00 -0.00000000000E+00 -0.61713157931E+02  0.61713157931E+02  0.00000000000E+00 0. -1.
      99926    2    1    2    0    0  0.17763568394E-14  0.00000000000E+00  0.77635456956E+03  0.89978088542E+03  0.45483977849E+03 0.  0.
      99925    2    3    3    0    0 -0.10723116393E+02 -0.25501862136E+02  0.70536395957E+03  0.75331414857E+03  0.26301817576E+03 0.  0.
         25    1    4    4    0    0 -0.12606098583E+02 -0.41180819653E+02  0.28043375178E+03  0.31007317018E+03  0.12509000000E+03 0.  0.
         25    1    4    4    0    0  0.18829821897E+01  0.15678957517E+02  0.42493020779E+03  0.44324097839E+03  0.12509000000E+03 0.  0.
         25    1    3    3    0    0  0.10723116393E+02  0.25501862136E+02  0.70990609993E+02  0.14646673685E+03  0.12509000000E+03 0.  0.
<mgrwt>
<rscale>  2 0.45483978E+03</rscale>
<asrwt>0</asrwt>
<pdfrwt beam="1">  1       21 0.12324525E+00 0.45483978E+03</pdfrwt>
<pdfrwt beam="2">  1       21 0.90754649E-02 0.45483978E+03</pdfrwt>
<totfact> 0.43297452E+04</totfact>
</mgrwt>
</event>
<event>
 7    0  0.4712189E-002  0.4697447E+03  0.7546771E-02  0.1021992E+00
         21   -1    0    0  502  501  0.00000000000E+00  0.00000000000E+00  0.43288657765E+03  0.43288657765E+03  0.00000000000E+00 0.  1.
         21   -1    0    0  501  502 -0.00000000000E+00 -0.00000000000E+00 -0.12743526716E+03  0.12743526716E+03  0.00000000000E+00 0.  1.
      99926    2    1    2    0    0  0.00000000000E+00  0.00000000000E+00  0.30545131049E+03  0.56032184481E+03  0.46974468245E+03 0.  0.
      99925    2    3    3    0    0  0.31334408677E+02 -0.66456682491E+02  0.66885747511E+02  0.28110978964E+03  0.26296515890E+03 0.  0.
         25    1    4    4    0    0  0.37320318495E+01 -0.73580961771E+01  0.89789731142E+00  0.12536500293E+03  0.12509000000E+03 0.  0.
         25    1    3    3    0    0 -0.31334408677E+02  0.66456682491E+02  0.23856556298E+03  0.27921205517E+03  0.12509000000E+03 0.  0.
         25    1    4    4    0    0  0.27602376827E+02 -0.59098586314E+02  0.65987850200E+02  0.15574478670E+03  0.12509000000E+03 0.  0.
<mgrwt>
<rscale>  2 0.46974468E+03</rscale>
<asrwt>0</asrwt>
<pdfrwt beam="1">  1       21 0.63659790E-01 0.46974468E+03</pdfrwt>
<pdfrwt beam="2">  1       21 0.18740481E-01 0.46974468E+03</pdfrwt>
<totfact> 0.54544020E+04</totfact>
</mgrwt>
</event>
<event>
 7    0  0.4712189E-002  0.4552352E+03  0.7546771E-02  0.1026172E+00
         21   -1    0    0  502  501  0.00000000000E+00  0.00000000000E+00  0.10370342217E+04  0.10370342217E+04  0.00000000000E+00 0.  1.
         21   -1    0    0  501  502 -0.00000000000E+00 -0.00000000000E+00 -0.49959556293E+02  0.49959556293E+02  0.00000000000E+00 0.  1.
      99926    2    1    2    0    0  0.00000000000E+00  0.00000000000E+00  0.98707466541E+03  0.10869937780E+04  0.45523519010E+03 0.  0.
      99925    2    3    3    0    0  0.95163957550E+02  0.33150603426E+02  0.74506204782E+03  0.79652388885E+03  0.26301655669E+03 0.  0.
         25    1    4    4    0    0  0.19000805458E+02  0.92603921725E+01  0.26047879407E+03  0.28973003940E+03  0.12509000000E+03 0.  0.
         25    1    3    3    0    0 -0.95163957550E+02 -0.33150603426E+02  0.24201261759E+03  0.29046988914E+03  0.12509000000E+03 0.  0.
         25    1    4    4    0    0  0.76163152092E+02  0.23890211253E+02  0.48458325375E+03  0.50679384945E+03  0.12509000000E+03 0.  0.
<mgrwt>
<rscale>  2 0.45523519E+03</rscale>
<asrwt>0</asrwt>
<pdfrwt beam="1">  1       21 0.15250502E+00 0.45523519E+03</pdfrwt>
<pdfrwt beam="2">  1       21 0.73469942E-02 0.45523519E+03</pdfrwt>
<totfact> 0.35882630E+04</totfact>
</mgrwt>
</event>
<event>
 7    0  0.4712189E-002  0.4578340E+03  0.7546771E-02  0.1025411E+00
         21   -1    0    0  502  501  0.00000000000E+00  0.00000000000E+00  0.16501890751E+04  0.16501890751E+04  0.00000000000E+00 0. -1.
         21   -1    0    0  501  502 -0.00000000000E+00 -0.00000000000E+00 -0.31755746935E+02  0.31755746935E+02  0.00000000000E+00 0. -1.
      99926    2    1    2    0    0  0.00000000000E+00 -0.17763568394E-14  0.16184333282E+04  0.16819448221E+04  0.45783397281E+03 0.  0.
      99925    2    3    3    0    0 -0.81095206772E+02  0.50109853688E+01  0.13188901559E+04  0.13473179213E+04  0.26304523423E+03 0.  0.
         25    1    4    4    0    0 -0.73724342275E+02 -0.22631327123E+02  0.69323054449E+03  0.70863499175E+03  0.12509000000E+03 0.  0.
         25    1    4    4    0    0 -0.73708644976E+01  0.27642312491E+02  0.62565961137E+03  0.63868292954E+03  0.12509000000E+03 0.  0.
         25    1    3    3    0    0  0.81095206772E+02 -0.50109853688E+01  0.29954317234E+03  0.33462690079E+03  0.12509000000E+03 0.  0.
<mgrwt>
<rscale>  2 0.45783397E+03</rscale>
<asrwt>0</asrwt>
<pdfrwt beam="1">  1       21 0.24267481E+00 0.45783397E+03</pdfrwt>
<pdfrwt beam="2">  1       21 0.46699639E-02 0.45783397E+03</pdfrwt>
<totfact> 0.19213632E+04</totfact>
</mgrwt>
</event>
<event>
 6    0  0.4712189E-002  0.4533691E+03  0.7546771E-02  0.1026722E+00
         21   -1    0    0  502  501  0.00000000000E+00  0.00000000000E+00  0.13761192413E+03  0.13761192413E+03  0.00000000000E+00 0.  1.
         21   -1    0    0  501  502 -0.00000000000E+00 -0.00000000000E+00 -0.37341164395E+03  0.37341164395E+03  0.00000000000E+00 0.  1.
      99926    2    1    2    0    0  0.00000000000E+00  0.00000000000E+00 -0.23579971982E+03  0.51102356808E+03  0.45336914238E+03 0.  0.
         25    1    3    3    0    0  0.83013202629E+02 -0.30213270885E+02 -0.16429467408E+02  0.15401775562E+03  0.12509000000E+03 0.  0.
         25    1    3    3    0    0 -0.34859752941E+02 -0.22808984084E+02 -0.69399396012E+02  0.14899408175E+03  0.12509000000E+03 0.  0.
         25    1    3    3    0    0 -0.48153449688E+02  0.53022254969E+02 -0.14997085640E+03  0.20801173070E+03  0.12509000000E+03 0.  0.
<mgrwt>
<rscale>  2 0.45336914E+03</rscale>
<asrwt>0</asrwt>
<pdfrwt beam="1">  1       21 0.20237048E-01 0.45336914E+03</pdfrwt>
<pdfrwt beam="2">  1       21 0.54913476E-01 0.45336914E+03</pdfrwt>
<totfact> 0.65344572E+04</totfact>
</mgrwt>
</event>
<event>
 6    0  0.4712189E-002  0.4549215E+03  0.7546771E-02  0.1026264E+00
         21   -1    0    0  502  501  0.00000000000E+00  0.00000000000E+00  0.20393017022E+03  0.20393017022E+03  0.00000000000E+00 0. -1.
         21   -1    0    0  501  502 -0.00000000000E+00 -0.00000000000E+00 -0.25370638984E+03  0.25370638984E+03  0.00000000000E+00 0. -1.
      99926    2    1    2    0    0  0.17763568394E-14 -0.14210854715E-13 -0.49776219622E+02  0.45763656006E+03  0.45492147571E+03 0.  0.
         25    1    3    3    0    0  0.31662500979E+02 -0.43864933345E+02 -0.99564531105E+02  0.16878166458E+03  0.12509000000E+03 0.  0.
         25    1    3    3    0    0  0.86895528092E+01  0.76753381201E+02  0.43080465121E+02  0.15319929644E+03  0.12509000000E+03 0.  0.
         25    1    3    3    0    0 -0.40352053789E+02 -0.32888447856E+02  0.67078463624E+01  0.13565559904E+03  0.12509000000E+03 0.  0.
<mgrwt>
<rscale>  2 0.45492148E+03</rscale>
<asrwt>0</asrwt>
<pdfrwt beam="1">  1       21 0.29989731E-01 0.45492148E+03</pdfrwt>
<pdfrwt beam="2">  1       21 0.37309763E-01 0.45492148E+03</pdfrwt>
<totfact> 0.68395860E+04</totfact>
</mgrwt>
</event>
<event>
 7    0  0.4712189E-002  0.4582856E+03  0.7546771E-02  0.1025280E+00
         21   -1    0    0  502  501  0.00000000000E+00  0.00000000000E+00  0.91948015372E+03  0.91948015372E+03  0.00000000000E+00 0. -1.
         21   -1    0    0  501  502 -0.00000000000E+00 -0.00000000000E+00 -0.57104456788E+02  0.57104456788E+02  0.00000000000E+00 0. -1.
      99926    2    1    2    0    0  0.00000000000E+00  0.00000000000E+00  0.86237569693E+03  0.97658461051E+03  0.45828556471E+03 0.  0.
      99925    2    3    3    0    0  0.94075292541E+02  0.20946865974E+02  0.40256937965E+03  0.49041767481E+03  0.26297995830E+03 0.  0.
         25    1    3    3    0    0 -0.94075292541E+02 -0.20946865974E+02  0.45980631728E+03  0.48616693570E+03  0.12509000000E+03 0.  0.
         25    1    4    4    0    0  0.11096955683E+02 -0.48108116336E+01  0.15240111756E+03  0.19753454145E+03  0.12509000000E+03 0.  0.
         25    1    4    4    0    0  0.82978336858E+02  0.25757677607E+02  0.25016826209E+03  0.29288313335E+03  0.12509000000E+03 0.  0.
<mgrwt>
<rscale>  2 0.45828556E+03</rscale>
<asrwt>0</asrwt>
<pdfrwt beam="1">  1       21 0.13521766E+00 0.45828556E+03</pdfrwt>
<pdfrwt beam="2">  1       21 0.83977148E-02 0.45828556E+03</pdfrwt>
<totfact> 0.39069428E+04</totfact>
</mgrwt>
</event>
<event>
 7    0  0.4712189E-002  0.4548949E+03  0.7546771E-02  0.1026272E+00
         21   -1    0    0  502  501  0.00000000000E+00  0.00000000000E+00  0.36521710302E+03  0.36521710302E+03  0.00000000000E+00 0.  1.
         21   -1    0    0  501  502 -0.00000000000E+00 -0.00000000000E+00 -0.14164817047E+03  0.14164817047E+03  0.00000000000E+00 0.  1.
      99926    2    1    2    0    0  0.00000000000E+00  0.71054273576E-14  0.22356893256E+03  0.50686527349E+03  0.45489486463E+03 0.  0.
      99925    2    3    3    0    0 -0.91234622736E+02  0.63788002878E+02  0.11895287370E+03  0.30941985428E+03  0.26305549674E+03 0.  0.
         25    1    3    3    0    0  0.91234622736E+02 -0.63788002878E+02  0.10461605885E+03  0.19744541921E+03  0.12509000000E+03 0.  0.
         25    1    4    4    0    0 -0.25201292699E+02  0.33172696424E+02  0.95521040398E+02  0.16281065751E+03  0.12509000000E+03 0.  0.
         25    1    4    4    0    0 -0.66033330036E+02  0.30615306453E+02  0.23431833307E+02  0.14660919677E+03  0.12509000000E+03 0.  0.
<mgrwt>
<rscale>  2 0.45489486E+03</rscale>
<asrwt>0</asrwt>
<pdfrwt beam="1">  1       21 0.53708398E-01 0.45489486E+03</pdfrwt>
<pdfrwt beam="2">  1       21 0.20830613E-01 0.45489486E+03</pdfrwt>
<totfact> 0.64845090E+04</totfact>
</mgrwt>
</event>
<event>
 7    0  0.4712189E-002  0.4554794E+03  0.7546771E-02  0.1026101E+00
         21   -1    0    0  502  501  0.00000000000E+00  0.00000000000E+00  0.47797872526E+02  0.47797872526E+02  0.00000000000E+00 0. -1.
         21   -1    0    0  501  502 -0.00000000000E+00 -0.00000000000E+00 -0.10850979627E+04  0.10850979627E+04  0.00000000000E+00 0. -1.
      99926    2    1    2    0    0  0.00000000000E+00  0.00000000000E+00 -0.10373000902E+04  0.11328958352E+04  0.45547941380E+03 0.  0.
      99925    2    3    3    0    0 -0.41260918170E+02  0.31736999364E+02 -0.40027376553E+03  0.48162035827E+03  0.26273443176E+03 0.  0.
         25    1    4    4    0    0 -0.40918484037E+02 -0.15915150568E+02 -0.22386345270E+03  0.26017295768E+03  0.12509000000E+03 0.  0.
         25    1    3    3    0    0  0.41260918170E+02 -0.31736999364E+02 -0.63702632463E+03  0.65127547694E+03  0.12509000000E+03 0.  0.
         25    1    4    4    0    0 -0.34243413304E+00  0.47652149932E+02 -0.17641031283E+03  0.22144740059E+03  0.12509000000E+03 0.  0.
<mgrwt>
<rscale>  2 0.45547941E+03</rscale>
<asrwt>0</asrwt>
<pdfrwt beam="1">  1       21 0.70290993E-02 0.45547941E+03</pdfrwt>
<pdfrwt beam="2">  1       21 0.15957322E+00 0.45547941E+03</pdfrwt>
<totfact> 0.34230502E+04</totfact>
</mgrwt>
</event>
<event>
 7    0  0.4712189E-002  0.4667915E+03  0.7546771E-02  0.1022830E+00
         21   -1    0    0  502  501  0.00000000000E+00  0.00000000000E+00  0.23798063060E+03  0.23798063060E+03  0.00000000000E+00 0.  1.
         21   -1    0    0  501  502 -0.00000000000E+00 -0.00000000000E+00 -0.22889924018E+03  0.22889924018E+03  0.00000000000E+00 0.  1.
      99926    2    1    2    0    0  0.00000000000E+00 -0.14210854715E-13  0.90813904229E+01  0.46687987077E+03  0.46679154028E+03 0.  0.
      99925    2    3    3    0    0 -0.32030573933E+02 -0.10931592673E+03  0.54358903404E+02  0.29174138047E+03  0.26302511895E+03 0.  0.
         25    1    4    4    0    0 -0.31646704327E+02 -0.57796951785E+02 -0.10379957676E+02  0.14176478107E+03  0.12509000000E+03 0.  0.
         25    1    3    3    0    0  0.32030573933E+02  0.10931592673E+03 -0.45277512981E+02  0.17513849030E+03  0.12509000000E+03 0.  0.
         25    1    4    4    0    0 -0.38386960641E+00 -0.51518974942E+02  0.64738861080E+02  0.14997659940E+03  0.12509000000E+03 0.  0.
<mgrwt>
<rscale>  2 0.46679154E+03</rscale>
<asrwt>0</asrwt>
<pdfrwt beam="1">  1       21 0.34997151E-01 0.46679154E+03</pdfrwt>
<pdfrwt beam="2">  1       21 0.33661653E-01 0.46679154E+03</pdfrwt>
<totfact> 0.61674085E+04</totfact>
</mgrwt>
</event>
<event>
 7    0  0.4712189E-002  0.4609055E+03  0.7546771E-02  0.1024519E+00
         21   -1    0    0  502  501  0.00000000000E+00  0.00000000000E+00  0.24830065349E+03  0.24830065349E+03  0.00000000000E+00 0. -1.
         21   -1    0    0  501  502 -0.00000000000E+00 -0.00000000000E+00 -0.21388771499E+03  0.21388771499E+03  0.00000000000E+00 0. -1.
      99926    2    1    2    0    0  0.00000000000E+00 -0.17763568394E-14  0.34412938501E+02  0.46218836849E+03  0.46090545411E+03 0.  0.
      99925    2    3    3    0    0  0.11584405734E+03 -0.14899460892E+02  0.70481656096E+00  0.28775905576E+03  0.26298847475E+03 0.  0.
         25    1    3    3    0    0 -0.11584405734E+03  0.14899460892E+02  0.33708121940E+02  0.17442931273E+03  0.12509000000E+03 0.  0.
         25    1    4    4    0    0  0.66221041270E+02 -0.33376353039E+02 -0.30035177803E+02  0.14848847516E+03  0.12509000000E+03 0.  0.
         25    1    4    4    0    0  0.49623016067E+02  0.18476892147E+02  0.30739994364E+02  0.13927058060E+03  0.12509000000E+03 0.  0.
<mgrwt>
<rscale>  2 0.46090545E+03</rscale>
<asrwt>0</asrwt>
<pdfrwt beam="1">  1       21 0.36514802E-01 0.46090545E+03</pdfrwt>
<pdfrwt beam="2">  1       21 0.31454076E-01 0.46090545E+03</pdfrwt>
<totfact> 0.64909633E+04</totfact>
</mgrwt>
</event>
<event>
 7    0  0.4712189E-002  0.4537289E+03  0.7546771E-02  0.1026616E+00
         21   -1    0    0  502  501  0.00000000000E+00  0.00000000000E+00  0.59369433630E+03  0.59369433630E+03  0.00000000000E+00 0.  1.
         21   -1    0    0  501  502 -0.00000000000E+00 -0.00000000000E+00 -0.86690204318E+02  0.86690204318E+02  0.00000000000E+00 0.  1.
      99926    2    1    2    0    0  0.44408920985E-15 -0.88817841970E-15  0.50700413199E+03  0.68038454062E+03  0.45372892046E+03 0.  0.
      99925    2    3    3    0    0 -0.17643711060E+01 -0.64062315796E+01  0.15178628406E+03  0.30372636615E+03  0.26299520273E+03 0.  0.
         25    1    3    3    0    0  0.17643711060E+01  0.64062315796E+01  0.35521784793E+03  0.37665817447E+03  0.12509000000E+03 0.  0.
         25    1    4    4    0    0 -0.16188336110E+02  0.34309590877E+02  0.73332176200E+02  0.14988104089E+03  0.12509000000E+03 0.  0.
         25    1    4    4    0    0  0.14423965004E+02 -0.40715822457E+02  0.78454107857E+02  0.15384532526E+03  0.12509000000E+03 0.  0.
<mgrwt>
<rscale>  2 0.45372892E+03</rscale>
<asrwt>0</asrwt>
<pdfrwt beam="1">  1       21 0.87307989E-01 0.45372892E+03</pdfrwt>
<pdfrwt beam="2">  1       21 0.12748560E-01 0.45372892E+03</pdfrwt>
<totfact> 0.54525021E+04</totfact>
</mgrwt>
</event>
<event>
 7    0  0.4712189E-002  0.4621401E+03  0.7546771E-02  0.1024162E+00
         21   -1    0    0  502  501  0.00000000000E+00  0.00000000000E+00  0.94044358145E+03  0.94044358145E+03  0.00000000000E+00 0.  1.
         21   -1    0    0  501  502 -0.00000000000E+00 -0.00000000000E+00 -0.56774656955E+02  0.56774656955E+02  0.00000000000E+00 0.  1.
      99926    2    1    2    0    0  0.18873791419E-14 -0.14210854715E-13  0.88366892449E+03  0.99721823840E+03  0.46214007280E+03 0.  0.
      99925    2    3    3    0    0 -0.82899593054E+00  0.10214185377E+03  0.41758643212E+03  0.50394950503E+03  0.26296963666E+03 0.  0.
         25    1    3    3    0    0  0.82899593054E+00 -0.10214185377E+03  0.46608249237E+03  0.49326873337E+03  0.12509000000E+03 0.  0.
         25    1    4    4    0    0  0.22543517409E+02  0.38643994555E+02  0.14610870814E+03  0.19747615347E+03  0.12509000000E+03 0.  0.
         25    1    4    4    0    0 -0.23372513339E+02  0.63497859213E+02  0.27147772398E+03  0.30647335157E+03  0.12509000000E+03 0.  0.
<mgrwt>
<rscale>  2 0.46214007E+03</rscale>
<asrwt>0</asrwt>
<pdfrwt beam="1">  1       21 0.13830052E+00 0.46214007E+03</pdfrwt>
<pdfrwt beam="2">  1       21 0.83492148E-02 0.46214007E+03</pdfrwt>
<totfact> 0.37159313E+04</totfact>
</mgrwt>
</event>
<event>
 7    0  0.4712189E-002  0.4577067E+03  0.7546771E-02  0.1025448E+00
         21   -1    0    0  502  501  0.00000000000E+00  0.00000000000E+00  0.47026871755E+02  0.47026871755E+02  0.00000000000E+00 0.  1.
         21   -1    0    0  501  502 -0.00000000000E+00 -0.00000000000E+00 -0.11137007205E+04  0.11137007205E+04  0.00000000000E+00 0.  1.
      99926    2    1    2    0    0  0.00000000000E+00  0.00000000000E+00 -0.10666738487E+04  0.11607275922E+04  0.45770672250E+03 0.  0.
      99925    2    3    3    0    0 -0.89505180611E+02 -0.74177352041E+02 -0.67046874023E+03  0.72928877501E+03  0.26233628955E+03 0.  0.
         25    1    4    4    0    0 -0.50210131871E+02 -0.11312550045E+01 -0.27402319367E+03  0.30538263842E+03  0.12509000000E+03 0.  0.
         25    1    3    3    0    0  0.89505180611E+02  0.74177352041E+02 -0.39620510849E+03  0.43143881722E+03  0.12509000000E+03 0.  0.
         25    1    4    4    0    0 -0.39295048739E+02 -0.73046097036E+02 -0.39644554656E+03  0.42390613658E+03  0.12509000000E+03 0.  0.
<mgrwt>
<rscale>  2 0.45770672E+03</rscale>
<asrwt>0</asrwt>
<pdfrwt beam="1">  1       21 0.69157166E-02 0.45770672E+03</pdfrwt>
<pdfrwt beam="2">  1       21 0.16377951E+00 0.45770672E+03</pdfrwt>
<totfact> 0.32730354E+04</totfact>
</mgrwt>
</event>
<event>
 7    0  0.4712189E-002  0.4547095E+03  0.7546771E-02  0.1026327E+00
         21   -1    0    0  502  501  0.00000000000E+00  0.00000000000E+00  0.95328764390E+03  0.95328764390E+03  0.00000000000E+00 0.  1.
         21   -1    0    0  501  502 -0.00000000000E+00 -0.00000000000E+00 -0.54223072809E+02  0.54223072809E+02  0.00000000000E+00 0.  1.
      99926    2    1    2    0    0  0.71054273576E-14  0.14210854715E-13  0.89906457109E+03  0.10075107167E+04  0.45470951309E+03 0.  0.
      99925    2    3    3    0    0 -0.30973039306E+02 -0.10229537368E+03  0.49174948659E+03  0.56821951625E+03  0.26387911711E+03 0.  0.
         25    1    3    3    0    0  0.30973039306E+02  0.10229537368E+03  0.40731508449E+03  0.43929120045E+03  0.12509000000E+03 0.  0.
         25    1    4    4    0    0 -0.39147646654E+02 -0.86641215519E+02  0.29881249298E+03  0.33760280290E+03  0.12509000000E+03 0.  0.
         25    1    4    4    0    0  0.81746073485E+01 -0.15654158156E+02  0.19293699361E+03  0.23061671335E+03  0.12509000000E+03 0.  0.
<mgrwt>
<rscale>  2 0.45470951E+03</rscale>
<asrwt>0</asrwt>
<pdfrwt beam="1">  1       21 0.14018935E+00 0.45470951E+03</pdfrwt>
<pdfrwt beam="2">  1       21 0.79739819E-02 0.45470951E+03</pdfrwt>
<totfact> 0.38964234E+04</totfact>
</mgrwt>
</event>
<event>
 7    0  0.4712189E-002  0.4504000E+03  0.7546771E-02  0.1027603E+00
         21   -1    0    0  502  501  0.00000000000E+00  0.00000000000E+00  0.27713266686E+03  0.27713266686E+03  0.00000000000E+00 0.  1.
         21   -1    0    0  501  502 -0.00000000000E+00 -0.00000000000E+00 -0.18299917817E+03  0.18299917817E+03  0.00000000000E+00 0.  1.
      99926    2    1    2    0    0  0.00000000000E+00 -0.35527136788E-14  0.94133488692E+02  0.46013184503E+03  0.45040004564E+03 0.  0.
      99925    2    3    3    0    0 -0.10703765800E+03  0.18575159205E+02  0.54053288625E+02  0.28967355891E+03  0.26303405854E+03 0.  0.
         25    1    4    4    0    0 -0.96327103026E+02  0.14854800767E+02  0.37821926569E+02  0.16302632337E+03  0.12509000000E+03 0.  0.
         25    1    4    4    0    0 -0.10710554971E+02  0.37203584381E+01  0.16231362056E+02  0.12664723554E+03  0.12509000000E+03 0.  0.
         25    1    3    3    0    0  0.10703765800E+03 -0.18575159205E+02  0.40080200067E+02  0.17045828612E+03  0.12509000000E+03 0.  0.
<mgrwt>
<rscale>  2 0.45040005E+03</rscale>
<asrwt>0</asrwt>
<pdfrwt beam="1">  1       21 0.40754804E-01 0.45040005E+03</pdfrwt>
<pdfrwt beam="2">  1       21 0.26911644E-01 0.45040005E+03</pdfrwt>
<totfact> 0.70722876E+04</totfact>
</mgrwt>
</event>
<event>
 7    0  0.4712189E-002  0.4502522E+03  0.7546771E-02  0.1027647E+00
         21   -1    0    0  502  501  0.00000000000E+00  0.00000000000E+00  0.16751942745E+03  0.16751942745E+03  0.00000000000E+00 0.  1.
         21   -1    0    0  501  502 -0.00000000000E+00 -0.00000000000E+00 -0.30254265259E+03  0.30254265259E+03  0.00000000000E+00 0.  1.
      99926    2    1    2    0    0  0.00000000000E+00  0.00000000000E+00 -0.13502322515E+03  0.47006208004E+03  0.45025224904E+03 0.  0.
      99925    2    3    3    0    0 -0.32620948784E+02  0.10341273076E+03 -0.91639520708E+02  0.29892478693E+03  0.26305875257E+03 0.  0.
         25    1    4    4    0    0 -0.44860349599E+01  0.63214735381E+02 -0.75869590786E+01  0.14043253657E+03  0.12509000000E+03 0.  0.
         25    1    3    3    0    0  0.32620948784E+02 -0.10341273076E+03 -0.43383704438E+02  0.17113729311E+03  0.12509000000E+03 0.  0.
         25    1    4    4    0    0 -0.28134913824E+02  0.40197995375E+02 -0.84052561630E+02  0.15849225036E+03  0.12509000000E+03 0.  0.
<mgrwt>
<rscale>  2 0.45025225E+03</rscale>
<asrwt>0</asrwt>
<pdfrwt beam="1">  1       21 0.24635210E-01 0.45025225E+03</pdfrwt>
<pdfrwt beam="2">  1       21 0.44491567E-01 0.45025225E+03</pdfrwt>
<totfact> 0.70032345E+04</totfact>
</mgrwt>
</event>
<event>
 7    0  0.4712189E-002  0.4440520E+03  0.7546771E-02  0.1029511E+00
         21   -1    0    0  502  501  0.00000000000E+00  0.00000000000E+00  0.10792002239E+03  0.10792002239E+03  0.00000000000E+00 0. -1.
         21   -1    0    0  501  502 -0.00000000000E+00 -0.00000000000E+00 -0.45677847820E+03  0.45677847820E+03  0.00000000000E+00 0. -1.
      99926    2    1    2    0    0  0.17763568394E-14  0.00000000000E+00 -0.34885845581E+03  0.56469850059E+03  0.44405199512E+03 0.  0.
      99925    2    3    3    0    0 -0.15859760209E+02 -0.11710424669E+02 -0.94074803142E+02  0.28017981261E+03  0.26317673295E+03 0.  0.
         25    1    3    3    0    0  0.15859760209E+02  0.11710424669E+02 -0.25478365267E+03  0.28451868798E+03  0.12509000000E+03 0.  0.
         25    1    4    4    0    0  0.32276799035E+02 -0.86607842221E+01 -0.38804729923E+02  0.13516699340E+03  0.12509000000E+03 0.  0.
         25    1    4    4    0    0 -0.48136559244E+02 -0.30496404469E+01 -0.55270073219E+02  0.14501281921E+03  0.12509000000E+03 0.  0.
<mgrwt>
<rscale>  2 0.44405200E+03</rscale>
<asrwt>0</asrwt>
<pdfrwt beam="1">  1       21 0.15870591E-01 0.44405200E+03</pdfrwt>
<pdfrwt beam="2">  1       21 0.67173307E-01 0.44405200E+03</pdfrwt>
<totfact> 0.66477190E+04</totfact>
</mgrwt>
</event>
<event>
 7    0  0.4712189E-002  0.4406283E+03  0.7546771E-02  0.1030554E+00
         21   -1    0    0  502  501  0.00000000000E+00  0.00000000000E+00  0.29755516483E+04  0.29755516483E+04  0.00000000000E+00 0.  1.
         21   -1    0    0  501  502 -0.00000000000E+00 -0.00000000000E+00 -0.16312375703E+02  0.16312375703E+02  0.00000000000E+00 0.  1.
      99926    2    1    2    0    0  0.00000000000E+00 -0.17763568394E-14  0.29592392726E+04  0.29918640240E+04  0.44062826242E+03 0.  0.
      99925    2    3    3    0    0  0.34653035111E+02  0.70218789908E+01  0.12600935088E+04  0.12877531196E+04  0.26310132383E+03 0.  0.
         25    1    4    4    0    0  0.90238442257E+01 -0.15477606525E+02  0.45231524471E+03  0.46963557655E+03  0.12509000000E+03 0.  0.
         25    1    3    3    0    0 -0.34653035111E+02 -0.70218789908E+01  0.16991457638E+04  0.17041109044E+04  0.12509000000E+03 0.  0.
         25    1    4    4    0    0  0.25629190885E+02  0.22499485515E+02  0.80777826405E+03  0.81811754305E+03  0.12509000000E+03 0.  0.
<mgrwt>
<rscale>  2 0.44062826E+03</rscale>
<asrwt>0</asrwt>
<pdfrwt beam="1">  1       21 0.43758075E+00 0.44062826E+03</pdfrwt>
<pdfrwt beam="2">  1       21 0.23988808E-02 0.44062826E+03</pdfrwt>
<totfact> 0.36882245E+03</totfact>
</mgrwt>
</event>
<event>
 7    0  0.4712189E-002  0.4542649E+03  0.7546771E-02  0.1026458E+00
         21   -1    0    0  502  501  0.00000000000E+00  0.00000000000E+00  0.29322777013E+02  0.29322777013E+02  0.00000000000E+00 0. -1.
         21   -1    0    0  501  502 -0.00000000000E+00 -0.00000000000E+00 -0.17593540496E+04  0.17593540496E+04  0.00000000000E+00 0. -1.
      99926    2    1    2    0    0  0.00000000000E+00  0.00000000000E+00 -0.17300312726E+04  0.17886768266E+04  0.45426488521E+03 0.  0.
      99925    2    3    3    0    0 -0.97051889084E+02  0.44762698565E+02 -0.12281428680E+04  0.12605080589E+04  0.26291233168E+03 0.  0.
         25    1    4    4    0    0 -0.37850371337E+02  0.39436792687E+02 -0.45419218848E+03  0.47426360118E+03  0.12509000000E+03 0.  0.
         25    1    4    4    0    0 -0.59201517746E+02  0.53259058780E+01 -0.77395067948E+03  0.78624445775E+03  0.12509000000E+03 0.  0.
         25    1    3    3    0    0  0.97051889084E+02 -0.44762698565E+02 -0.50188840465E+03  0.52816876770E+03  0.12509000000E+03 0.  0.
<mgrwt>
<rscale>  2 0.45426489E+03</rscale>
<asrwt>0</asrwt>
<pdfrwt beam="1">  1       21 0.43121724E-02 0.45426489E+03</pdfrwt>
<pdfrwt beam="2">  1       21 0.25872858E+00 0.45426489E+03</pdfrwt>
<totfact> 0.17578131E+04</totfact>
</mgrwt>
</event>
<event>
 7    0  0.4712189E-002  0.4539246E+03  0.7546771E-02  0.1026558E+00
         21   -1    0    0  502  501  0.00000000000E+00  0.00000000000E+00  0.81301564037E+03  0.81301564037E+03  0.00000000000E+00 0.  1.
         21   -1    0    0  501  502 -0.00000000000E+00 -0.00000000000E+00 -0.63359047523E+02  0.63359047523E+02  0.00000000000E+00 0.  1.
      99926    2    1    2    0    0  0.14210854715E-13  0.71054273576E-14  0.74965659284E+03  0.87637468789E+03  0.45392464835E+03 0.  0.
      99925    2    3    3    0    0 -0.89708376710E+02 -0.51627068173E+02  0.38908086657E+03  0.48093150677E+03  0.26305559574E+03 0.  0.
         25    1    4    4    0    0 -0.51021819163E+02 -0.11158046163E+02  0.25720129640E+03  0.29073655256E+03  0.12509000000E+03 0.  0.
         25    1    3    3    0    0  0.89708376710E+02  0.51627068173E+02  0.36057572627E+03  0.39544318112E+03  0.12509000000E+03 0.  0.
         25    1    4    4    0    0 -0.38686557547E+02 -0.40469022010E+02  0.13187957018E+03  0.19019495421E+03  0.12509000000E+03 0.  0.
<mgrwt>
<rscale>  2 0.45392465E+03</rscale>
<asrwt>0</asrwt>
<pdfrwt beam="1">  1       21 0.11956112E+00 0.45392465E+03</pdfrwt>
<pdfrwt beam="2">  1       21 0.93175075E-02 0.45392465E+03</pdfrwt>
<totfact> 0.44645809E+04</totfact>
</mgrwt>
</event>
<event>
 7    0  0.4712189E-002  0.4402679E+03  0.7546771E-02  0.1030665E+00
         21   -1    0    0  502  501  0.00000000000E+00  0.00000000000E+00  0.25649306476E+03  0.25649306476E+03  0.00000000000E+00 0.  1.
         21   -1    0    0  501  502 -0.00000000000E+00 -0.00000000000E+00 -0.18892895420E+03  0.18892895420E+03  0.00000000000E+00 0.  1.
      99926    2    1    2    0    0  0.00000000000E+00 -0.14210854715E-13  0.67564110563E+02  0.44542201895E+03  0.44026794788E+03 0.  0.
      99925    2    3    3    0    0 -0.28789403525E+01  0.76998896640E+02  0.10559875900E+03  0.29366148073E+03  0.26296168728E+03 0.  0.
         25    1    4    4    0    0 -0.39153029172E+01  0.78534392509E+02  0.70612280070E+02  0.16375769478E+03  0.12509000000E+03 0.  0.
         25    1    3    3    0    0  0.28789403525E+01 -0.76998896640E+02 -0.38034648435E+02  0.15176053823E+03  0.12509000000E+03 0.  0.
         25    1    4    4    0    0  0.10363625647E+01 -0.15354958693E+01  0.34986478928E+02  0.12990378594E+03  0.12509000000E+03 0.  0.
<mgrwt>
<rscale>  2 0.44026795E+03</rscale>
<asrwt>0</asrwt>
<pdfrwt beam="1">  1       21 0.37719568E-01 0.44026795E+03</pdfrwt>
<pdfrwt beam="2">  1       21 0.27783670E-01 0.44026795E+03</pdfrwt>
<totfact> 0.78028080E+04</totfact>
</mgrwt>
</event>
<event>
 7    0  0.4712189E-002  0.4476375E+03  0.7546771E-02  0.1028429E+00
         21   -1    0    0  502  501  0.00000000000E+00  0.00000000000E+00  0.16578342392E+03  0.16578342392E+03  0.00000000000E+00 0. -1.
         21   -1    0    0  501  502 -0.00000000000E+00 -0.00000000000E+00 -0.30217033179E+03  0.30217033179E+03  0.00000000000E+00 0. -1.
      99926    2    1    2    0    0  0.00000000000E+00  0.14210854715E-13 -0.13638690787E+03  0.46795375572E+03  0.44763749715E+03 0.  0.
      99925    2    3    3    0    0  0.87409929844E+01 -0.92663574630E+02 -0.33178234601E+02  0.28097118605E+03  0.26302294409E+03 0.  0.
         25    1    4    4    0    0 -0.35205653730E+02 -0.36871861987E+02 -0.12698313475E+02  0.13567508071E+03  0.12509000000E+03 0.  0.
         25    1    3    3    0    0 -0.87409929844E+01  0.92663574630E+02 -0.10320867327E+03  0.18698256967E+03  0.12509000000E+03 0.  0.
         25    1    4    4    0    0  0.43946646715E+02 -0.55791712643E+02 -0.20479921125E+02  0.14529610534E+03  0.12509000000E+03 0.  0.
<mgrwt>
<rscale>  2 0.44763750E+03</rscale>
<asrwt>0</asrwt>
<pdfrwt beam="1">  1       21 0.24379915E-01 0.44763750E+03</pdfrwt>
<pdfrwt beam="2">  1       21 0.44436813E-01 0.44763750E+03</pdfrwt>
<totfact> 0.71685156E+04</totfact>
</mgrwt>
</event>
<event>
 7    0  0.4712189E-002  0.4490055E+03  0.7546771E-02  0.1028019E+00
         21   -1    0    0  502  501  0.00000000000E+00  0.00000000000E+00  0.41796222091E+03  0.41796222091E+03  0.00000000000E+00 0.  1.
         21   -1    0    0  501  502 -0.00000000000E+00 -0.00000000000E+00 -0.12058863412E+03  0.12058863412E+03  0.00000000000E+00 0.  1.
      99926    2    1    2    0    0 -0.14210854715E-13  0.71054273576E-14  0.29737358679E+03  0.53855085503E+03  0.44900553820E+03 0.  0.
      99925    2    3    3    0    0 -0.72591102044E+02  0.26338031651E+02  0.27786047559E+03  0.39025577886E+03  0.26292578617E+03 0.  0.
         25    1    3    3    0    0  0.72591102044E+02 -0.26338031651E+02  0.19513111203E+02  0.14829507617E+03  0.12509000000E+03 0.  0.
         25    1    4    4    0    0 -0.46458963515E+02 -0.11129553424E+02  0.18298747865E+03  0.22674705663E+03  0.12509000000E+03 0.  0.
         25    1    4    4    0    0 -0.26132138529E+02  0.37467585075E+02  0.94872996943E+02  0.16350872223E+03  0.12509000000E+03 0.  0.
<mgrwt>
<rscale>  2 0.44900554E+03</rscale>
<asrwt>0</asrwt>
<pdfrwt beam="1">  1       21 0.61465032E-01 0.44900554E+03</pdfrwt>
<pdfrwt beam="2">  1       21 0.17733623E-01 0.44900554E+03</pdfrwt>
<totfact> 0.65690888E+04</totfact>
</mgrwt>
</event>
<event>
 7    0  0.4712189E-002  0.4579575E+03  0.7546771E-02  0.1025375E+00
         21   -1    0    0  502  501  0.00000000000E+00  0.00000000000E+00  0.73817100101E+03  0.73817100101E+03  0.00000000000E+00 0.  1.
         21   -1    0    0  501  502 -0.00000000000E+00 -0.00000000000E+00 -0.71028608269E+02  0.71028608269E+02  0.00000000000E+00 0.  1.
      99926    2    1    2    0    0 -0.35527136788E-14  0.00000000000E+00  0.66714239274E+03  0.80919960928E+03  0.45795746032E+03 0.  0.
      99925    2    3    3    0    0 -0.22518805255E+02 -0.97935256422E+02  0.52084199721E+03  0.59205973530E+03  0.26298276191E+03 0.  0.
         25    1    4    4    0    0  0.10637837664E+02 -0.29605599642E+02  0.18304253950E+03  0.22392350142E+03  0.12509000000E+03 0.  0.
         25    1    3    3    0    0  0.22518805255E+02  0.97935256422E+02  0.14630039553E+03  0.21713987398E+03  0.12509000000E+03 0.  0.
         25    1    4    4    0    0 -0.33156642919E+02 -0.68329656780E+02  0.33779945771E+03  0.36813623388E+03  0.12509000000E+03 0.  0.
<mgrwt>
<rscale>  2 0.45795746E+03</rscale>
<asrwt>0</asrwt>
<pdfrwt beam="1">  1       21 0.10855455E+00 0.45795746E+03</pdfrwt>
<pdfrwt beam="2">  1       21 0.10445384E-01 0.45795746E+03</pdfrwt>
<totfact> 0.46240527E+04</totfact>
</mgrwt>
</event>
<event>
 7    0  0.4712189E-002  0.4554037E+03  0.7546771E-02  0.1026123E+00
         21   -1    0    0  502  501  0.00000000000E+00  0.00000000000E+00  0.12426913539E+04  0.12426913539E+04  0.00000000000E+00 0. -1.
         21   -1    0    0  501  502 -0.00000000000E+00 -0.00000000000E+00 -0.41722452867E+02  0.41722452867E+02  0.00000000000E+00 0. -1.
      99926    2    1    2    0    0  0.00000000000E+00  0.00000000000E+00  0.12009689011E+04  0.12844138068E+04  0.45540369539E+03 0.  0.
      99925    2    3    3    0    0 -0.84208008752E+02 -0.36339443663E+02  0.94217750396E+03  0.98269864440E+03  0.26379278391E+03 0.  0.
         25    1    3    3    0    0  0.84208008752E+02  0.36339443663E+02  0.25879139712E+03  0.30171516241E+03  0.12509000000E+03 0.  0.
         25    1    4    4    0    0 -0.58015809647E+02  0.86218841563E+00  0.59767879393E+03  0.61337918644E+03  0.12509000000E+03 0.  0.
         25    1    4    4    0    0 -0.26192199105E+02 -0.37201632079E+02  0.34449871002E+03  0.36931945796E+03  0.12509000000E+03 0.  0.
<mgrwt>
<rscale>  2 0.45540370E+03</rscale>
<asrwt>0</asrwt>
<pdfrwt beam="1">  1       21 0.18274871E+00 0.45540370E+03</pdfrwt>
<pdfrwt beam="2">  1       21 0.61356556E-02 0.45540370E+03</pdfrwt>
<totfact> 0.29478157E+04</totfact>
</mgrwt>
</event>
<event>
 7    0  0.4712189E-002  0.4521559E+03  0.7546771E-02  0.1027081E+00
         21   -1    0    0  502  501  0.00000000000E+00  0.00000000000E+00  0.14154709785E+03  0.14154709785E+03  0.00000000000E+00 0. -1.
         21   -1    0    0  501  502 -0.00000000000E+00 -0.00000000000E+00 -0.36109002293E+03  0.36109002293E+03  0.00000000000E+00 0. -1.
      99926    2    1    2    0    0  0.71054273576E-14  0.00000000000E+00 -0.21954292508E+03  0.50263712079E+03  0.45215592359E+03 0.  0.
      99925    2    3    3    0    0  0.34369819176E+02  0.24752640270E+02 -0.25081334831E+02  0.26756947977E+03  0.26300261496E+03 0.  0.
         25    1    4    4    0    0  0.28160182707E+02  0.20545858721E+02 -0.51158799111E+02  0.13957026556E+03  0.12509000000E+03 0.  0.
         25    1    3    3    0    0 -0.34369819176E+02 -0.24752640270E+02 -0.19446159025E+03  0.23506764102E+03  0.12509000000E+03 0.  0.
         25    1    4    4    0    0  0.62096364683E+01  0.42067815483E+01  0.26077464279E+02  0.12799921421E+03  0.12509000000E+03 0.  0.
<mgrwt>
<rscale>  2 0.45215592E+03</rscale>
<asrwt>0</asrwt>
<pdfrwt beam="1">  1       21 0.20815750E-01 0.45215592E+03</pdfrwt>
<pdfrwt beam="2">  1       21 0.53101474E-01 0.45215592E+03</pdfrwt>
<totfact> 0.66576074E+04</totfact>
</mgrwt>
</event>
<event>
 7    0  0.4712189E-002  0.4485484E+03  0.7546771E-02  0.1028156E+00
         21   -1    0    0  502  501  0.00000000000E+00  0.00000000000E+00  0.76694449916E+02  0.76694449916E+02  0.00000000000E+00 0. -1.
         21   -1    0    0  501  502 -0.00000000000E+00 -0.00000000000E+00 -0.65583528338E+03  0.65583528338E+03  0.00000000000E+00 0. -1.
      99926    2    1    2    0    0  0.00000000000E+00  0.00000000000E+00 -0.57914083347E+03  0.73252973330E+03  0.44854844240E+03 0.  0.
      99925    2    3    3    0    0 -0.10219950488E+03  0.87331862864E+01 -0.31514552747E+03  0.42291378244E+03  0.26271344951E+03 0.  0.
         25    1    4    4    0    0 -0.75858247793E+02  0.22410555237E+02 -0.12690060707E+03  0.19495635132E+03  0.12509000000E+03 0.  0.
         25    1    3    3    0    0  0.10219950488E+03 -0.87331862864E+01 -0.26399530600E+03  0.30961595086E+03  0.12509000000E+03 0.  0.
         25    1    4    4    0    0 -0.26341257085E+02 -0.13677368951E+02 -0.18824492040E+03  0.22795743112E+03  0.12509000000E+03 0.  0.
<mgrwt>
<rscale>  2 0.44854844E+03</rscale>
<asrwt>0</asrwt>
<pdfrwt beam="1">  1       21 0.11278596E-01 0.44854844E+03</pdfrwt>
<pdfrwt beam="2">  1       21 0.96446362E-01 0.44854844E+03</pdfrwt>
<totfact> 0.53852449E+04</totfact>
</mgrwt>
</event>
<event>
 7    0  0.4712189E-002  0.4578111E+03  0.7546771E-02  0.1025418E+00
         21   -1    0    0  502  501  0.00000000000E+00  0.00000000000E+00  0.15433226625E+03  0.15433226625E+03  0.00000000000E+00 0. -1.
         21   -1    0    0  501  502 -0.00000000000E+00 -0.00000000000E+00 -0.33951256795E+03  0.33951256795E+03  0.00000000000E+00 0. -1.
      99926    2    1    2    0    0  0.14210854715E-13  0.13322676296E-14 -0.18518030171E+03  0.49384483420E+03  0.45781107034E+03 0.  0.
      99925    2    3    3    0    0  0.99511707413E+02 -0.30706253430E+01 -0.52539166206E+02  0.28611138099E+03  0.26303488304E+03 0.  0.
         25    1    3    3    0    0 -0.99511707413E+02  0.30706253430E+01 -0.13264113550E+03  0.20773345320E+03  0.12509000000E+03 0.  0.
         25    1    4    4    0    0  0.79854636491E+02 -0.18011402153E+02 -0.35990660505E+01  0.14953807192E+03  0.12509000000E+03 0.  0.
         25    1    4    4    0    0  0.19657070922E+02  0.14940776810E+02 -0.48940100155E+02  0.13657330908E+03  0.12509000000E+03 0.  0.
<mgrwt>
<rscale>  2 0.45781107E+03</rscale>
<asrwt>0</asrwt>
<pdfrwt beam="1">  1       21 0.22695922E-01 0.45781107E+03</pdfrwt>
<pdfrwt beam="2">  1       21 0.49928318E-01 0.45781107E+03</pdfrwt>
<totfact> 0.64259241E+04</totfact>
</mgrwt>
</event>
<event>
 7    0  0.4712189E-002  0.4572162E+03  0.7546771E-02  0.1025592E+00
         21   -1    0    0  502  501  0.00000000000E+00  0.00000000000E+00  0.10838717063E+04  0.10838717063E+04  0.00000000000E+00 0.  1.
         21   -1    0    0  501  502 -0.00000000000E+00 -0.00000000000E+00 -0.48217571810E+02  0.48217571810E+02  0.00000000000E+00 0.  1.
      99926    2    1    2    0    0  0.14210854715E-13  0.00000000000E+00  0.10356541345E+04  0.11320892781E+04  0.45721619320E+03 0.  0.
      99925    2    3    3    0    0  0.93007354571E+02  0.45631444126E+02  0.52534182592E+03  0.59655332500E+03  0.26298144195E+03 0.  0.
         25    1    4    4    0    0  0.75622994301E+02  0.54484356632E+02  0.28424468175E+03  0.32423745865E+03  0.12509000000E+03 0.  0.
         25    1    3    3    0    0 -0.93007354571E+02 -0.45631444126E+02  0.51031230859E+03  0.53553595313E+03  0.12509000000E+03 0.  0.
         25    1    4    4    0    0  0.17384360270E+02 -0.88529125067E+01  0.24109714417E+03  0.27231586635E+03  0.12509000000E+03 0.  0.
<mgrwt>
<rscale>  2 0.45721619E+03</rscale>
<asrwt>0</asrwt>
<pdfrwt beam="1">  1       21 0.15939288E+00 0.45721619E+03</pdfrwt>
<pdfrwt beam="2">  1       21 0.70908201E-02 0.45721619E+03</pdfrwt>
<totfact> 0.33798362E+04</totfact>
</mgrwt>
</event>
<event>
 7    0  0.4712189E-002  0.4653008E+03  0.7546771E-02  0.1023255E+00
         21   -1    0    0  502  501  0.00000000000E+00  0.00000000000E+00  0.24688175749E+04  0.24688175749E+04  0.00000000000E+00 0.  1.
         21   -1    0    0  501  502 -0.00000000000E+00 -0.00000000000E+00 -0.21923937979E+02  0.21923937979E+02  0.00000000000E+00 0.  1.
      99926    2    1    2    0    0  0.71054273576E-14  0.14210854715E-13  0.24468936369E+04  0.24907415129E+04  0.46530077753E+03 0.  0.
      99925    2    3    3    0    0 -0.38646890969E+02 -0.11093229708E+03  0.13373108324E+04  0.13679676866E+04  0.26293682226E+03 0.  0.
         25    1    4    4    0    0 -0.31514208757E+02 -0.20650614655E+02  0.51728404463E+03  0.53352589831E+03  0.12509000000E+03 0.  0.
         25    1    3    3    0    0  0.38646890969E+02  0.11093229708E+03  0.11095828045E+04  0.11227738262E+04  0.12509000000E+03 0.  0.
         25    1    4    4    0    0 -0.71326822117E+01 -0.90281682423E+02  0.82002678778E+03  0.83444178833E+03  0.12509000000E+03 0.  0.
<mgrwt>
<rscale>  2 0.46530078E+03</rscale>
<asrwt>0</asrwt>
<pdfrwt beam="1">  1       21 0.36306122E+00 0.46530078E+03</pdfrwt>
<pdfrwt beam="2">  1       21 0.32241102E-02 0.46530078E+03</pdfrwt>
<totfact> 0.66761641E+03</totfact>
</mgrwt>
</event>
<event>
 7    0  0.4712189E-002  0.4566806E+03  0.7546771E-02  0.1025748E+00
         21   -1    0    0  502  501  0.00000000000E+00  0.00000000000E+00  0.16666499365E+03  0.16666499365E+03  0.00000000000E+00 0.  1.
         21   -1    0    0  501  502 -0.00000000000E+00 -0.00000000000E+00 -0.31283891603E+03  0.31283891603E+03  0.00000000000E+00 0.  1.
      99926    2    1    2    0    0  0.00000000000E+00 -0.71054273576E-14 -0.14617392238E+03  0.47950390968E+03  0.45668061467E+03 0.  0.
      99925    2    3    3    0    0 -0.31210364681E+02  0.52736899249E+02  0.10026940305E+02  0.27021586652E+03  0.26298442460E+03 0.  0.
         25    1    4    4    0    0 -0.10173497913E+02  0.27371611178E+02 -0.35184577606E+02  0.13318471293E+03  0.12509000000E+03 0.  0.
         25    1    3    3    0    0  0.31210364681E+02 -0.52736899249E+02 -0.15620086268E+03  0.20928804316E+03  0.12509000000E+03 0.  0.
         25    1    4    4    0    0 -0.21036866768E+02  0.25365288071E+02  0.45211517911E+02  0.13703115359E+03  0.12509000000E+03 0.  0.
<mgrwt>
<rscale>  2 0.45668061E+03</rscale>
<asrwt>0</asrwt>
<pdfrwt beam="1">  1       21 0.24509558E-01 0.45668061E+03</pdfrwt>
<pdfrwt beam="2">  1       21 0.46005723E-01 0.45668061E+03</pdfrwt>
<totfact> 0.65853405E+04</totfact>
</mgrwt>
</event>
<event>
 7    0  0.4712189E-002  0.4573358E+03  0.7546771E-02  0.1025557E+00
         21   -1    0    0  502  501  0.00000000000E+00  0.00000000000E+00  0.17419630524E+03  0.17419630524E+03  0.00000000000E+00 0. -1.
         21   -1    0    0  501  502 -0.00000000000E+00 -0.00000000000E+00 -0.30017295412E+03  0.30017295412E+03  0.00000000000E+00 0. -1.
      99926    2    1    2    0    0 -0.14210854715E-13 -0.14210854715E-13 -0.12597664888E+03  0.47436925936E+03  0.45733584832E+03 0.  0.
      99925    2    3    3    0    0 -0.76291072307E+02 -0.86357604467E+02 -0.73645376098E+02  0.29642535310E+03  0.26299502843E+03 0.  0.
         25    1    3    3    0    0  0.76291072307E+02  0.86357604467E+02 -0.52331272781E+02  0.17794390626E+03  0.12509000000E+03 0.  0.
         25    1    4    4    0    0 -0.59506781805E+02 -0.24916276717E+02 -0.66951585381E+01  0.14090497214E+03  0.12509000000E+03 0.  0.
         25    1    4    4    0    0 -0.16784290502E+02 -0.61441327750E+02 -0.66950217560E+02  0.15552038096E+03  0.12509000000E+03 0.  0.
<mgrwt>
<rscale>  2 0.45733585E+03</rscale>
<asrwt>0</asrwt>
<pdfrwt beam="1">  1       21 0.25617104E-01 0.45733585E+03</pdfrwt>
<pdfrwt beam="2">  1       21 0.44143081E-01 0.45733585E+03</pdfrwt>
<totfact> 0.65882739E+04</totfact>
</mgrwt>
</event>
<event>
 7    0  0.4712189E-002  0.4460058E+03  0.7546771E-02  0.1028920E+00
         21   -1    0    0  502  501  0.00000000000E+00  0.00000000000E+00  0.17209735533E+04  0.17209735533E+04  0.00000000000E+00 0. -1.
         21   -1    0    0  501  502 -0.00000000000E+00 -0.00000000000E+00 -0.28896604427E+02  0.28896604427E+02  0.00000000000E+00 0. -1.
      99926    2    1    2    0    0  0.00000000000E+00  0.00000000000E+00  0.16920769488E+04  0.17498701577E+04  0.44600579367E+03 0.  0.
      99925    2    3    3    0    0  0.95036332259E+02 -0.58447162011E+01  0.12426374040E+04  0.12737299707E+04  0.26300999057E+03 0.  0.
         25    1    4    4    0    0  0.21387777798E+02 -0.16746998040E+02  0.71560261258E+03  0.72696114491E+03  0.12509000000E+03 0.  0.
         25    1    4    4    0    0  0.73648554462E+02  0.10902281839E+02  0.52703479144E+03  0.54676882575E+03  0.12509000000E+03 0.  0.
         25    1    3    3    0    0 -0.95036332259E+02  0.58447162011E+01  0.44943954481E+03  0.47614018702E+03  0.12509000000E+03 0.  0.
<mgrwt>
<rscale>  2 0.44600579E+03</rscale>
<asrwt>0</asrwt>
<pdfrwt beam="1">  1       21 0.25308428E+00 0.44600579E+03</pdfrwt>
<pdfrwt beam="2">  1       21 0.42495018E-02 0.44600579E+03</pdfrwt>
<totfact> 0.19574471E+04</totfact>
</mgrwt>
</event>
<event>
 7    0  0.4712189E-002  0.4530963E+03  0.7546771E-02  0.1026803E+00
         21   -1    0    0  502  501  0.00000000000E+00  0.00000000000E+00  0.62667010653E+02  0.62667010653E+02  0.00000000000E+00 0.  1.
         21   -1    0    0  501  502 -0.00000000000E+00 -0.00000000000E+00 -0.81899649732E+03  0.81899649732E+03  0.00000000000E+00 0.  1.
      99926    2    1    2    0    0  0.00000000000E+00  0.00000000000E+00 -0.75632948667E+03  0.88166350798E+03  0.45309629097E+03 0.  0.
      99925    2    3    3    0    0 -0.73914437158E+02 -0.82144067964E+02 -0.50461368435E+03  0.57963810315E+03  0.26293415197E+03 0.  0.
         25    1    4    4    0    0 -0.12891408395E+02 -0.72677010782E+02 -0.24083422121E+03  0.28124147367E+03  0.12509000000E+03 0.  0.
         25    1    4    4    0    0 -0.61023028763E+02 -0.94670571816E+01 -0.26377946313E+03  0.29839662948E+03  0.12509000000E+03 0.  0.
         25    1    3    3    0    0  0.73914437158E+02  0.82144067964E+02 -0.25171580232E+03  0.30202540483E+03  0.12509000000E+03 0.  0.
<mgrwt>
<rscale>  2 0.45309629E+03</rscale>
<asrwt>0</asrwt>
<pdfrwt beam="1">  1       21 0.92157366E-02 0.45309629E+03</pdfrwt>
<pdfrwt beam="2">  1       21 0.12044067E+00 0.45309629E+03</pdfrwt>
<totfact> 0.44698721E+04</totfact>
</mgrwt>
</event>
<event>
 7    0  0.4712189E-002  0.4534235E+03  0.7546771E-02  0.1026706E+00
         21   -1    0    0  502  501  0.00000000000E+00  0.00000000000E+00  0.11435768561E+03  0.11435768561E+03  0.00000000000E+00 0. -1.
         21   -1    0    0  501  502 -0.00000000000E+00 -0.00000000000E+00 -0.44945140866E+03  0.44945140866E+03  0.00000000000E+00 0. -1.
      99926    2    1    2    0    0  0.00000000000E+00  0.00000000000E+00 -0.33509372304E+03  0.56380909427E+03  0.45342352338E+03 0.  0.
      99925    2    3    3    0    0 -0.57749239436E+02  0.94798097440E+02 -0.22758537536E+03  0.36499459064E+03  0.26287695635E+03 0.  0.
         25    1    4    4    0    0 -0.55759964314E+02  0.44765347995E+02 -0.78644575726E+02  0.16415111146E+03  0.12509000000E+03 0.  0.
         25    1    3    3    0    0  0.57749239436E+02 -0.94798097440E+02 -0.10750834768E+03  0.19881450363E+03  0.12509000000E+03 0.  0.
         25    1    4    4    0    0 -0.19892751220E+01  0.50032749445E+02 -0.14894079964E+03  0.20084347918E+03  0.12509000000E+03 0.  0.
<mgrwt>
<rscale>  2 0.45342352E+03</rscale>
<asrwt>0</asrwt>
<pdfrwt beam="1">  1       21 0.16817307E-01 0.45342352E+03</pdfrwt>
<pdfrwt beam="2">  1       21 0.66095795E-01 0.45342352E+03</pdfrwt>
<totfact> 0.61729190E+04</totfact>
</mgrwt>
</event>
<event>
 7    0  0.5400404E-002  0.4223931E+03  0.7546771E-02  0.1036290E+00
         21   -1    0    0  502  501  0.00000000000E+00  0.00000000000E+00  0.10557824450E+04  0.10557824450E+04  0.00000000000E+00 0.  1.
         21   -1    0    0  501  502 -0.00000000000E+00 -0.00000000000E+00 -0.42247329619E+02  0.42247329619E+02  0.00000000000E+00 0.  1.
      99926    2    1    2    0    0  0.00000000000E+00  0.00000000000E+00  0.10135351154E+04  0.10980297746E+04  0.42239312948E+03 0.  0.
      99925    2    3    3    0    0  0.19143790849E+02  0.76447227785E+02  0.63593938890E+03  0.69252181647E+03  0.26259645193E+03 0.  0.
         25    1    4    4    0    0  0.25429083508E+02  0.75169597222E+02  0.37036874088E+03  0.39889549879E+03  0.12509000000E+03 0.  0.
         25    1    3    3    0    0 -0.19143790849E+02 -0.76447227785E+02  0.37759572645E+03  0.40550795812E+03  0.12509000000E+03 0.  0.
         25    1    4    4    0    0 -0.62852926587E+01  0.12776305632E+01  0.26557064802E+03  0.29362631768E+03  0.12509000000E+03 0.  0.
<mgrwt>
<rscale>  2 0.42239313E+03</rscale>
<asrwt>0</asrwt>
<pdfrwt beam="1">  1       21 0.15526211E+00 0.42239313E+03</pdfrwt>
<pdfrwt beam="2">  1       21 0.62128433E-02 0.42239313E+03</pdfrwt>
<totfact> 0.46254478E+04</totfact>
</mgrwt>
</event>
<event>
 7    0  0.4712189E-002  0.4592642E+03  0.7546771E-02  0.1024995E+00
         21   -1    0    0  502  501  0.00000000000E+00  0.00000000000E+00  0.66161684239E+02  0.66161684239E+02  0.00000000000E+00 0.  1.
         21   -1    0    0  501  502 -0.00000000000E+00 -0.00000000000E+00 -0.79700049020E+03  0.79700049020E+03  0.00000000000E+00 0.  1.
      99926    2    1    2    0    0  0.00000000000E+00  0.14210854715E-13 -0.73083880596E+03  0.86316217444E+03  0.45926417135E+03 0.  0.
      99925    2    3    3    0    0  0.23424851402E+02  0.11220139400E+03 -0.41255999162E+03  0.50248671334E+03  0.26296249527E+03 0.  0.
         25    1    4    4    0    0  0.36471415546E+02  0.24807947087E+02 -0.21317891949E+03  0.25107440771E+03  0.12509000000E+03 0.  0.
         25    1    3    3    0    0 -0.23424851402E+02 -0.11220139400E+03 -0.31827881434E+03  0.36067546110E+03  0.12509000000E+03 0.  0.
         25    1    4    4    0    0 -0.13046564144E+02  0.87393446917E+02 -0.19938107212E+03  0.25141230563E+03  0.12509000000E+03 0.  0.
<mgrwt>
<rscale>  2 0.45926417E+03</rscale>
<asrwt>0</asrwt>
<pdfrwt beam="1">  1       21 0.97296604E-02 0.45926417E+03</pdfrwt>
<pdfrwt beam="2">  1       21 0.11720594E+00 0.45926417E+03</pdfrwt>
<totfact> 0.43386767E+04</totfact>
</mgrwt>
</event>
<event>
 7    0  0.4712189E-002  0.4541000E+03  0.7546771E-02  0.1026506E+00
         21   -1    0    0  502  501  0.00000000000E+00  0.00000000000E+00  0.19089996467E+03  0.19089996467E+03  0.00000000000E+00 0. -1.
         21   -1    0    0  501  502 -0.00000000000E+00 -0.00000000000E+00 -0.27004568886E+03  0.27004568886E+03  0.00000000000E+00 0. -1.
      99926    2    1    2    0    0  0.14210854715E-13 -0.14210854715E-13 -0.79145724198E+02  0.46094565353E+03  0.45410004388E+03 0.  0.
      99925    2    3    3    0    0 -0.74811078833E+02  0.65934513642E+02  0.28981333870E+01  0.28116033635E+03  0.26286627390E+03 0.  0.
         25    1    4    4    0    0  0.13476605399E+01  0.35740647548E+02 -0.13177316189E+02  0.13076834417E+03  0.12509000000E+03 0.  0.
         25    1    4    4    0    0 -0.76158739372E+02  0.30193866095E+02  0.16075449576E+02  0.15039199218E+03  0.12509000000E+03 0.  0.
         25    1    3    3    0    0  0.74811078833E+02 -0.65934513642E+02 -0.82043857585E+02  0.17978531718E+03  0.12509000000E+03 0.  0.
<mgrwt>
<rscale>  2 0.45410004E+03</rscale>
<asrwt>0</asrwt>
<pdfrwt beam="1">  1       21 0.28073524E-01 0.45410004E+03</pdfrwt>
<pdfrwt beam="2">  1       21 0.39712601E-01 0.45410004E+03</pdfrwt>
<totfact> 0.68601590E+04</totfact>
</mgrwt>
</event>
<event>
 7    0  0.4712189E-002  0.4707898E+03  0.7546771E-02  0.1021698E+00
         21   -1    0    0  502  501  0.00000000000E+00  0.00000000000E+00  0.50382632987E+03  0.50382632987E+03  0.00000000000E+00 0. -1.
         21   -1    0    0  501  502 -0.00000000000E+00 -0.00000000000E+00 -0.10997988693E+03  0.10997988693E+03  0.00000000000E+00 0. -1.
      99926    2    1    2    0    0  0.00000000000E+00  0.00000000000E+00  0.39384644295E+03  0.61380621680E+03  0.47078981633E+03 0.  0.
      99925    2    3    3    0    0  0.26571684385E+02 -0.53768161822E+02  0.97740192557E+02  0.28681464312E+03  0.26289242026E+03 0.  0.
         25    1    4    4    0    0  0.33119856328E+02 -0.63126452110E+02  0.49190203730E+02  0.15214814518E+03  0.12509000000E+03 0.  0.
         25    1    4    4    0    0 -0.65481719431E+01  0.93582902881E+01  0.48549988828E+02  0.13466649794E+03  0.12509000000E+03 0.  0.
         25    1    3    3    0    0 -0.26571684385E+02  0.53768161822E+02  0.29610625039E+03  0.32699157368E+03  0.12509000000E+03 0.  0.
<mgrwt>
<rscale>  2 0.47078982E+03</rscale>
<asrwt>0</asrwt>
<pdfrwt beam="1">  1       21 0.74092106E-01 0.47078982E+03</pdfrwt>
<pdfrwt beam="2">  1       21 0.16173513E-01 0.47078982E+03</pdfrwt>
<totfact> 0.51151924E+04</totfact>
</mgrwt>
</event>
<event>
 7    0  0.4712189E-002  0.4559528E+03  0.7546771E-02  0.1025962E+00
         21   -1    0    0  502  501  0.00000000000E+00  0.00000000000E+00  0.17536180631E+03  0.17536180631E+03  0.00000000000E+00 0. -1.
         21   -1    0    0  501  502 -0.00000000000E+00 -0.00000000000E+00 -0.29637718949E+03  0.29637718949E+03  0.00000000000E+00 0. -1.
      99926    2    1    2    0    0  0.00000000000E+00  0.00000000000E+00 -0.12101538318E+03  0.47173899579E+03  0.45595280149E+03 0.  0.
      99925    2    3    3    0    0 -0.15831558411E+02  0.10284644654E+03 -0.12446698129E+03  0.30898933700E+03  0.26297214897E+03 0.  0.
         25    1    3    3    0    0  0.15831558411E+02 -0.10284644654E+03  0.34515981153E+01  0.16274965880E+03  0.12509000000E+03 0.  0.
         25    1    4    4    0    0 -0.72487604286E+01  0.26713595394E+02 -0.94687249119E+02  0.15930895754E+03  0.12509000000E+03 0.  0.
         25    1    4    4    0    0 -0.85827979820E+01  0.76132851151E+02 -0.29779732175E+02  0.14968037946E+03  0.12509000000E+03 0.  0.
<mgrwt>
<rscale>  2 0.45595280E+03</rscale>
<asrwt>0</asrwt>
<pdfrwt beam="1">  1       21 0.25788501E-01 0.45595280E+03</pdfrwt>
<pdfrwt beam="2">  1       21 0.43584880E-01 0.45595280E+03</pdfrwt>
<totfact> 0.66800228E+04</totfact>
</mgrwt>
</event>
<event>
 7    0  0.4712189E-002  0.4528586E+03  0.7546771E-02  0.1026873E+00
         21   -1    0    0  502  501  0.00000000000E+00  0.00000000000E+00  0.19343463847E+03  0.19343463847E+03  0.00000000000E+00 0.  1.
         21   -1    0    0  501  502 -0.00000000000E+00 -0.00000000000E+00 -0.26505193693E+03  0.26505193693E+03  0.00000000000E+00 0.  1.
      99926    2    1    2    0    0  0.35527136788E-14 -0.14210854715E-13 -0.71617298460E+02  0.45848657539E+03  0.45285858982E+03 0.  0.
      99925    2    3    3    0    0 -0.28581863078E+02  0.93475996181E+02 -0.98724037684E+02  0.29743699244E+03  0.26299742222E+03 0.  0.
         25    1    4    4    0    0 -0.27731802944E+02  0.85259520323E+02 -0.68643853651E+02  0.16851624683E+03  0.12509000000E+03 0.  0.
         25    1    3    3    0    0  0.28581863078E+02 -0.93475996181E+02  0.27106739224E+02  0.16104958296E+03  0.12509000000E+03 0.  0.
         25    1    4    4    0    0 -0.85006013359E+00  0.82164758576E+01 -0.30080184033E+02  0.12892074561E+03  0.12509000000E+03 0.  0.
<mgrwt>
<rscale>  2 0.45285859E+03</rscale>
<asrwt>0</asrwt>
<pdfrwt beam="1">  1       21 0.28446270E-01 0.45285859E+03</pdfrwt>
<pdfrwt beam="2">  1       21 0.38978226E-01 0.45285859E+03</pdfrwt>
<totfact> 0.69469739E+04</totfact>
</mgrwt>
</event>
<event>
 7    0  0.4712189E-002  0.4447447E+03  0.7546771E-02  0.1029301E+00
         21   -1    0    0  502  501  0.00000000000E+00  0.00000000000E+00  0.62750934842E+02  0.62750934842E+02  0.00000000000E+00 0. -1.
         21   -1    0    0  501  502 -0.00000000000E+00 -0.00000000000E+00 -0.78802738373E+03  0.78802738373E+03  0.00000000000E+00 0. -1.
      99926    2    1    2    0    0  0.35527136788E-14  0.00000000000E+00 -0.72527644888E+03  0.85077831857E+03  0.44474466836E+03 0.  0.
      99925    2    3    3    0    0 -0.23912588583E+02  0.68955582716E+02 -0.32051590729E+03  0.42088846243E+03  0.26284970363E+03 0.  0.
         25    1    3    3    0    0  0.23912588583E+02 -0.68955582716E+02 -0.40476054160E+03  0.42988985614E+03  0.12509000000E+03 0.  0.
         25    1    4    4    0    0 -0.34283776381E+02  0.11617974057E+02 -0.11739746359E+03  0.17532834113E+03  0.12509000000E+03 0.  0.
         25    1    4    4    0    0  0.10371187799E+02  0.57337608660E+02 -0.20311844370E+03  0.24556012130E+03  0.12509000000E+03 0.  0.
<mgrwt>
<rscale>  2 0.44474467E+03</rscale>
<asrwt>0</asrwt>
<pdfrwt beam="1">  1       21 0.92280791E-02 0.44474467E+03</pdfrwt>
<pdfrwt beam="2">  1       21 0.11588637E+00 0.44474467E+03</pdfrwt>
<totfact> 0.49248467E+04</totfact>
</mgrwt>
</event>
<event>
 7    0  0.4712189E-002  0.4502500E+03  0.7546771E-02  0.1027648E+00
         21   -1    0    0  502  501  0.00000000000E+00  0.00000000000E+00  0.21148028617E+02  0.21148028617E+02  0.00000000000E+00 0.  1.
         21   -1    0    0  501  502 -0.00000000000E+00 -0.00000000000E+00 -0.23965007216E+04  0.23965007216E+04  0.00000000000E+00 0.  1.
      99926    2    1    2    0    0 -0.71054273576E-14  0.00000000000E+00 -0.23753526930E+04  0.24176487502E+04  0.45025000097E+03 0.  0.
      99925    2    3    3    0    0  0.56221623177E+02 -0.80160743749E+02 -0.12481769799E+04  0.12793345528E+04  0.26299146206E+03 0.  0.
         25    1    4    4    0    0  0.34655038414E+02  0.89701921010E+00 -0.55302005699E+03  0.56804970546E+03  0.12509000000E+03 0.  0.
         25    1    4    4    0    0  0.21566584763E+02 -0.81057762959E+02 -0.69515692288E+03  0.71128484733E+03  0.12509000000E+03 0.  0.
         25    1    3    3    0    0 -0.56221623177E+02  0.80160743749E+02 -0.11271757131E+04  0.11383141975E+04  0.12509000000E+03 0.  0.
<mgrwt>
<rscale>  2 0.45025000E+03</rscale>
<asrwt>0</asrwt>
<pdfrwt beam="1">  1       21 0.31100056E-02 0.45025000E+03</pdfrwt>
<pdfrwt beam="2">  1       21 0.35242642E+00 0.45025000E+03</pdfrwt>
<totfact> 0.83141985E+03</totfact>
</mgrwt>
</event>
<event>
 7    0  0.4712189E-002  0.4318834E+03  0.7546771E-02  0.1033267E+00
         21   -1    0    0  502  501  0.00000000000E+00  0.00000000000E+00  0.49477610075E+02  0.49477610075E+02  0.00000000000E+00 0.  1.
         21   -1    0    0  501  502 -0.00000000000E+00 -0.00000000000E+00 -0.94246307732E+03  0.94246307732E+03  0.00000000000E+00 0.  1.
      99926    2    1    2    0    0  0.00000000000E+00  0.71054273576E-14 -0.89298546725E+03  0.99194068740E+03  0.43188341320E+03 0.  0.
      99925    2    3    3    0    0  0.75540157754E+02  0.32901835500E+02 -0.49293584286E+03  0.56476852505E+03  0.26303782142E+03 0.  0.
         25    1    4    4    0    0  0.27867816079E+02 -0.15757305650E+02 -0.18636993940E+03  0.22672928850E+03  0.12509000000E+03 0.  0.
         25    1    4    4    0    0  0.47672341675E+02  0.48659141149E+02 -0.30656590347E+03  0.33803923655E+03  0.12509000000E+03 0.  0.
         25    1    3    3    0    0 -0.75540157754E+02 -0.32901835500E+02 -0.40004962439E+03  0.42717216235E+03  0.12509000000E+03 0.  0.
<mgrwt>
<rscale>  2 0.43188341E+03</rscale>
<asrwt>0</asrwt>
<pdfrwt beam="1">  1       21 0.72761195E-02 0.43188341E+03</pdfrwt>
<pdfrwt beam="2">  1       21 0.13859751E+00 0.43188341E+03</pdfrwt>
<totfact> 0.47494848E+04</totfact>
</mgrwt>
</event>
<event>
 7    0  0.4712189E-002  0.4492349E+03  0.7546771E-02  0.1027950E+00
         21   -1    0    0  502  501  0.00000000000E+00  0.00000000000E+00  0.24752961969E+03  0.24752961969E+03  0.00000000000E+00 0. -1.
         21   -1    0    0  501  502 -0.00000000000E+00 -0.00000000000E+00 -0.20382612811E+03  0.20382612811E+03  0.00000000000E+00 0. -1.
      99926    2    1    2    0    0 -0.17763568394E-14  0.00000000000E+00  0.43703491584E+02  0.45135574780E+03  0.44923492283E+03 0.  0.
      99925    2    3    3    0    0  0.62524057529E+01  0.10678843553E+03  0.40166811098E+02  0.28672622812E+03  0.26297470342E+03 0.  0.
         25    1    3    3    0    0 -0.62524057529E+01 -0.10678843553E+03  0.35366804855E+01  0.16462951968E+03  0.12509000000E+03 0.  0.
         25    1    4    4    0    0  0.20067553502E+02  0.84643530556E+02 -0.13410226066E+01  0.15236974900E+03  0.12509000000E+03 0.  0.
         25    1    4    4    0    0 -0.13815147749E+02  0.22144904970E+02  0.41507833705E+02  0.13435647912E+03  0.12509000000E+03 0.  0.
<mgrwt>
<rscale>  2 0.44923492E+03</rscale>
<asrwt>0</asrwt>
<pdfrwt beam="1">  1       21 0.36401415E-01 0.44923492E+03</pdfrwt>
<pdfrwt beam="2">  1       21 0.29974430E-01 0.44923492E+03</pdfrwt>
<totfact> 0.72072089E+04</totfact>
</mgrwt>
</event>
<event>
 7    0  0.4712189E-002  0.4532063E+03  0.7546771E-02  0.1026770E+00
         21   -1    0    0  502  501  0.00000000000E+00  0.00000000000E+00  0.30787713739E+03  0.30787713739E+03  0.00000000000E+00 0. -1.
         21   -1    0    0  501  502 -0.00000000000E+00 -0.00000000000E+00 -0.16678400760E+03  0.16678400760E+03  0.00000000000E+00 0. -1.
      99926    2    1    2    0    0  0.00000000000E+00  0.00000000000E+00  0.14109312979E+03  0.47466114499E+03  0.45320627896E+03 0.  0.
      99925    2    3    3    0    0  0.57315369852E+02 -0.92336538111E+02  0.11490876924E+03  0.30689876325E+03  0.26300520478E+03 0.  0.
         25    1    4    4    0    0  0.18047995064E+02 -0.60276677593E+02  0.18965737764E+02  0.14130185879E+03  0.12509000000E+03 0.  0.
         25    1    4    4    0    0  0.39267374788E+02 -0.32059860518E+02  0.95943031472E+02  0.16559690446E+03  0.12509000000E+03 0.  0.
         25    1    3    3    0    0 -0.57315369852E+02  0.92336538111E+02  0.26184360555E+02  0.16776238175E+03  0.12509000000E+03 0.  0.
<mgrwt>
<rscale>  2 0.45320628E+03</rscale>
<asrwt>0</asrwt>
<pdfrwt beam="1">  1       21 0.45276049E-01 0.45320628E+03</pdfrwt>
<pdfrwt beam="2">  1       21 0.24527060E-01 0.45320628E+03</pdfrwt>
<totfact> 0.68054449E+04</totfact>
</mgrwt>
</event>
<event>
 7    0  0.4712189E-002  0.4577974E+03  0.7546771E-02  0.1025422E+00
         21   -1    0    0  502  501  0.00000000000E+00  0.00000000000E+00  0.93828959874E+02  0.93828959874E+02  0.00000000000E+00 0.  1.
         21   -1    0    0  501  502 -0.00000000000E+00 -0.00000000000E+00 -0.55840553362E+03  0.55840553362E+03  0.00000000000E+00 0.  1.
      99926    2    1    2    0    0  0.14210854715E-13 -0.88817841970E-15 -0.46457657374E+03  0.65223449349E+03  0.45779738054E+03 0.  0.
      99925    2    3    3    0    0 -0.11123609111E+03 -0.51521097471E+01 -0.33673848028E+03  0.44154491511E+03  0.26300018204E+03 0.  0.
         25    1    4    4    0    0 -0.15969848990E+02 -0.17346500518E+02 -0.13622965098E+03  0.18644560350E+03  0.12509000000E+03 0.  0.
         25    1    4    4    0    0 -0.95266242123E+02  0.12194390771E+02 -0.20050882931E+03  0.25509931161E+03  0.12509000000E+03 0.  0.
         25    1    3    3    0    0  0.11123609111E+03  0.51521097471E+01 -0.12783809346E+03  0.21068957838E+03  0.12509000000E+03 0.  0.
<mgrwt>
<rscale>  2 0.45779738E+03</rscale>
<asrwt>0</asrwt>
<pdfrwt beam="1">  1       21 0.13798377E-01 0.45779738E+03</pdfrwt>
<pdfrwt beam="2">  1       21 0.82118457E-01 0.45779738E+03</pdfrwt>
<totfact> 0.54363325E+04</totfact>
</mgrwt>
</event>
<event>
 7    0  0.4712189E-002  0.4522059E+03  0.7546771E-02  0.1027066E+00
         21   -1    0    0  502  501  0.00000000000E+00  0.00000000000E+00  0.46394364438E+02  0.46394364438E+02  0.00000000000E+00 0. -1.
         21   -1    0    0  501  502 -0.00000000000E+00 -0.00000000000E+00 -0.11019128003E+04  0.11019128003E+04  0.00000000000E+00 0. -1.
      99926    2    1    2    0    0  0.35527136788E-14  0.00000000000E+00 -0.10555184358E+04  0.11483071647E+04  0.45220590016E+03 0.  0.
      99925    2    3    3    0    0 -0.20035714973E+02  0.91345782913E+02 -0.81454797247E+03  0.86114909979E+03  0.26333228190E+03 0.  0.
         25    1    4    4    0    0  0.18623637962E+02  0.74884993943E+02 -0.45508186007E+03  0.47822757101E+03  0.12509000000E+03 0.  0.
         25    1    3    3    0    0  0.20035714973E+02 -0.91345782913E+02 -0.24097046334E+03  0.28715806490E+03  0.12509000000E+03 0.  0.
         25    1    4    4    0    0 -0.38659352936E+02  0.16460788970E+02 -0.35946611239E+03  0.38292152878E+03  0.12509000000E+03 0.  0.
<mgrwt>
<rscale>  2 0.45220590E+03</rscale>
<asrwt>0</asrwt>
<pdfrwt beam="1">  1       21 0.68227019E-02 0.45220590E+03</pdfrwt>
<pdfrwt beam="2">  1       21 0.16204597E+00 0.45220590E+03</pdfrwt>
<totfact> 0.34585993E+04</totfact>
</mgrwt>
</event>
<event>
 7    0  0.4712189E-002  0.4539098E+03  0.7546771E-02  0.1026562E+00
         21   -1    0    0  502  501  0.00000000000E+00  0.00000000000E+00  0.18056648756E+03  0.18056648756E+03  0.00000000000E+00 0. -1.
         21   -1    0    0  501  502 -0.00000000000E+00 -0.00000000000E+00 -0.28526075320E+03  0.28526075320E+03  0.00000000000E+00 0. -1.
      99926    2    1    2    0    0 -0.35527136788E-14  0.00000000000E+00 -0.10469426563E+03  0.46582724076E+03  0.45390982472E+03 0.  0.
      99925    2    3    3    0    0 -0.27870184169E+02 -0.10749938036E+03 -0.49855350192E+02  0.28979406579E+03  0.26298703520E+03 0.  0.
         25    1    4    4    0    0  0.10559331818E+02 -0.83918647104E+02 -0.41321359459E+02  0.15655287180E+03  0.12509000000E+03 0.  0.
         25    1    4    4    0    0 -0.38429515987E+02 -0.23580733252E+02 -0.85339907337E+01  0.13324119400E+03  0.12509000000E+03 0.  0.
         25    1    3    3    0    0  0.27870184169E+02  0.10749938036E+03 -0.54838915439E+02  0.17603317497E+03  0.12509000000E+03 0.  0.
<mgrwt>
<rscale>  2 0.45390982E+03</rscale>
<asrwt>0</asrwt>
<pdfrwt beam="1">  1       21 0.26553895E-01 0.45390982E+03</pdfrwt>
<pdfrwt beam="2">  1       21 0.41950110E-01 0.45390982E+03</pdfrwt>
<totfact> 0.68336635E+04</totfact>
</mgrwt>
</event>
<event>
 7    0  0.4712189E-002  0.4570239E+03  0.7546771E-02  0.1025648E+00
         21   -1    0    0  502  501  0.00000000000E+00  0.00000000000E+00  0.39302007410E+03  0.39302007410E+03  0.00000000000E+00 0. -1.
         21   -1    0    0  501  502 -0.00000000000E+00 -0.00000000000E+00 -0.13286271117E+03  0.13286271117E+03  0.00000000000E+00 0. -1.
      99926    2    1    2    0    0  0.00000000000E+00  0.00000000000E+00  0.26015736292E+03  0.52588278527E+03  0.45702390568E+03 0.  0.
      99925    2    3    3    0    0  0.82642852489E+02 -0.37845178322E+02  0.82242875749E+02  0.29016436971E+03  0.26300070769E+03 0.  0.
         25    1    4    4    0    0  0.21223512151E+02  0.17826739713E+02  0.34473775948E+02  0.13268074255E+03  0.12509000000E+03 0.  0.
         25    1    4    4    0    0  0.61419340338E+02 -0.55671918035E+02  0.47769099801E+02  0.15748362715E+03  0.12509000000E+03 0.  0.
         25    1    3    3    0    0 -0.82642852489E+02  0.37845178322E+02  0.17791448717E+03  0.23571841556E+03  0.12509000000E+03 0.  0.
<mgrwt>
<rscale>  2 0.45702391E+03</rscale>
<asrwt>0</asrwt>
<pdfrwt beam="1">  1       21 0.57797070E-01 0.45702391E+03</pdfrwt>
<pdfrwt beam="2">  1       21 0.19538634E-01 0.45702391E+03</pdfrwt>
<totfact> 0.62477652E+04</totfact>
</mgrwt>
</event>
<event>
 7    0  0.4712189E-002  0.4536835E+03  0.7546771E-02  0.1026629E+00
         21   -1    0    0  502  501  0.00000000000E+00  0.00000000000E+00  0.50676071285E+03  0.50676071285E+03  0.00000000000E+00 0. -1.
         21   -1    0    0  501  502 -0.00000000000E+00 -0.00000000000E+00 -0.10154139428E+03  0.10154139428E+03  0.00000000000E+00 0. -1.
      99926    2    1    2    0    0  0.00000000000E+00 -0.71054273576E-14  0.40521931857E+03  0.60830210712E+03  0.45368354322E+03 0.  0.
      99925    2    3    3    0    0  0.64104152319E+02 -0.40535039466E+02  0.36573168670E+03  0.45677912887E+03  0.26293549426E+03 0.  0.
         25    1    4    4    0    0  0.69532735353E+02 -0.19841229415E+02  0.22377415818E+03  0.26636602193E+03  0.12509000000E+03 0.  0.
         25    1    3    3    0    0 -0.64104152319E+02  0.40535039466E+02  0.39487631865E+02  0.15152297826E+03  0.12509000000E+03 0.  0.
         25    1    4    4    0    0 -0.54285830344E+01 -0.20693810051E+02  0.14195752852E+03  0.19041310693E+03  0.12509000000E+03 0.  0.
<mgrwt>
<rscale>  2 0.45368354E+03</rscale>
<asrwt>0</asrwt>
<pdfrwt beam="1">  1       21 0.74523633E-01 0.45368354E+03</pdfrwt>
<pdfrwt beam="2">  1       21 0.14932558E-01 0.45368354E+03</pdfrwt>
<totfact> 0.58779007E+04</totfact>
</mgrwt>
</event>
<event>
 7    0  0.4712189E-002  0.4587333E+03  0.7546771E-02  0.1025149E+00
         21   -1    0    0  502  501  0.00000000000E+00  0.00000000000E+00  0.22046780366E+03  0.22046780366E+03  0.00000000000E+00 0.  1.
         21   -1    0    0  501  502 -0.00000000000E+00 -0.00000000000E+00 -0.23862465109E+03  0.23862465109E+03  0.00000000000E+00 0.  1.
      99926    2    1    2    0    0  0.00000000000E+00  0.00000000000E+00 -0.18156847435E+02  0.45909245475E+03  0.45873326771E+03 0.  0.
      99925    2    3    3    0    0  0.89000354559E+02 -0.56124751207E+02 -0.61646894931E+02  0.28994771454E+03  0.26305567225E+03 0.  0.
         25    1    4    4    0    0  0.70925186456E+02 -0.60219991578E+02 -0.45903055418E+02  0.16251593170E+03  0.12509000000E+03 0.  0.
         25    1    4    4    0    0  0.18075168104E+02  0.40952403708E+01 -0.15743839513E+02  0.12743178284E+03  0.12509000000E+03 0.  0.
         25    1    3    3    0    0 -0.89000354559E+02  0.56124751207E+02  0.43490047495E+02  0.16914474021E+03  0.12509000000E+03 0.  0.
<mgrwt>
<rscale>  2 0.45873327E+03</rscale>
<asrwt>0</asrwt>
<pdfrwt beam="1">  1       21 0.32421736E-01 0.45873327E+03</pdfrwt>
<pdfrwt beam="2">  1       21 0.35091860E-01 0.45873327E+03</pdfrwt>
<totfact> 0.66251476E+04</totfact>
</mgrwt>
</event>
<event>
 7    0  0.4712189E-002  0.4330198E+03  0.7546771E-02  0.1032910E+00
         21   -1    0    0  502  501  0.00000000000E+00  0.00000000000E+00  0.54402231588E+03  0.54402231588E+03  0.00000000000E+00 0.  1.
         21   -1    0    0  501  502 -0.00000000000E+00 -0.00000000000E+00 -0.86166571822E+02  0.86166571822E+02  0.00000000000E+00 0.  1.
      99926    2    1    2    0    0  0.00000000000E+00  0.00000000000E+00  0.45785574406E+03  0.63018888771E+03  0.43301980534E+03 0.  0.
      99925    2    3    3    0    0  0.88316872191E+02  0.22058846943E+02  0.28639547264E+03  0.39925037767E+03  0.26285363737E+03 0.  0.
         25    1    3    3    0    0 -0.88316872191E+02 -0.22058846943E+02  0.17146027142E+03  0.23093851003E+03  0.12509000000E+03 0.  0.
         25    1    4    4    0    0  0.66446115207E+02  0.20279439569E+02  0.10354513161E+03  0.17662232100E+03  0.12509000000E+03 0.  0.
         25    1    4    4    0    0  0.21870756985E+02  0.17794073735E+01  0.18285034103E+03  0.22262805667E+03  0.12509000000E+03 0.  0.
<mgrwt>
<rscale>  2 0.43301981E+03</rscale>
<asrwt>0</asrwt>
<pdfrwt beam="1">  1       21 0.80003280E-01 0.43301981E+03</pdfrwt>
<pdfrwt beam="2">  1       21 0.12671555E-01 0.43301981E+03</pdfrwt>
<totfact> 0.67889350E+04</totfact>
</mgrwt>
</event>
<event>
 7    0  0.4712189E-002  0.4595480E+03  0.7546771E-02  0.1024912E+00
         21   -1    0    0  502  501  0.00000000000E+00  0.00000000000E+00  0.75261433936E+02  0.75261433936E+02  0.00000000000E+00 0. -1.
         21   -1    0    0  501  502 -0.00000000000E+00 -0.00000000000E+00 -0.70150250845E+03  0.70150250845E+03  0.00000000000E+00 0. -1.
      99926    2    1    2    0    0  0.26645352591E-14  0.00000000000E+00 -0.62624107451E+03  0.77676394238E+03  0.45954797223E+03 0.  0.
      99925    2    3    3    0    0 -0.77479147977E+01  0.53846636547E+02 -0.56755659683E+03  0.62826860080E+03  0.26389667238E+03 0.  0.
         25    1    4    4    0    0  0.17386815786E+02  0.52170499654E+02 -0.35450356366E+03  0.37992676551E+03  0.12509000000E+03 0.  0.
         25    1    4    4    0    0 -0.25134730583E+02  0.16761368924E+01 -0.21305303317E+03  0.24834183530E+03  0.12509000000E+03 0.  0.
         25    1    3    3    0    0  0.77479147977E+01 -0.53846636547E+02 -0.58684477681E+02  0.14849534158E+03  0.12509000000E+03 0.  0.
<mgrwt>
<rscale>  2 0.45954797E+03</rscale>
<asrwt>0</asrwt>
<pdfrwt beam="1">  1       21 0.11067858E-01 0.45954797E+03</pdfrwt>
<pdfrwt beam="2">  1       21 0.10316213E+00 0.45954797E+03</pdfrwt>
<totfact> 0.47201535E+04</totfact>
</mgrwt>
</event>
<event>
 7    0  0.4712189E-002  0.4690938E+03  0.7546771E-02  0.1022176E+00
         21   -1    0    0  502  501  0.00000000000E+00  0.00000000000E+00  0.68146747571E+02  0.68146747571E+02  0.00000000000E+00 0. -1.
         21   -1    0    0  501  502 -0.00000000000E+00 -0.00000000000E+00 -0.80726141758E+03  0.80726141758E+03  0.00000000000E+00 0. -1.
      99926    2    1    2    0    0  0.00000000000E+00  0.14210854715E-13 -0.73911467001E+03  0.87540816515E+03  0.46909376482E+03 0.  0.
      99925    2    3    3    0    0  0.41020495771E+02  0.92304702932E+02 -0.59985374330E+03  0.66270190510E+03  0.26295714939E+03 0.  0.
         25    1    4    4    0    0  0.13572470528E+02  0.24204014831E+02 -0.20176499795E+03  0.23901185910E+03  0.12509000000E+03 0.  0.
         25    1    4    4    0    0  0.27448025244E+02  0.68100688101E+02 -0.39808874535E+03  0.42369004601E+03  0.12509000000E+03 0.  0.
         25    1    3    3    0    0 -0.41020495771E+02 -0.92304702932E+02 -0.13926092671E+03  0.21270626005E+03  0.12509000000E+03 0.  0.
<mgrwt>
<rscale>  2 0.46909376E+03</rscale>
<asrwt>0</asrwt>
<pdfrwt beam="1">  1       21 0.10021580E-01 0.46909376E+03</pdfrwt>
<pdfrwt beam="2">  1       21 0.11871492E+00 0.46909376E+03</pdfrwt>
<totfact> 0.39741882E+04</totfact>
</mgrwt>
</event>
<event>
 7    0  0.4712189E-002  0.4704978E+03  0.7546771E-02  0.1021780E+00
         21   -1    0    0  502  501  0.00000000000E+00  0.00000000000E+00  0.21092791477E+04  0.21092791477E+04  0.00000000000E+00 0.  1.
         21   -1    0    0  501  502 -0.00000000000E+00 -0.00000000000E+00 -0.26237424893E+02  0.26237424893E+02  0.00000000000E+00 0.  1.
      99926    2    1    2    0    0  0.00000000000E+00  0.71054273576E-14  0.20830417228E+04  0.21355165725E+04  0.47049783512E+03 0.  0.
      99925    2    3    3    0    0 -0.87154489339E+02  0.43439463036E+02  0.16643074288E+04  0.16877791394E+04  0.26305192268E+03 0.  0.
         25    1    3    3    0    0  0.87154489339E+02 -0.43439463036E+02  0.41873429397E+03  0.44773743311E+03  0.12509000000E+03 0.  0.
         25    1    4    4    0    0 -0.30538477553E+02 -0.77910772638E+01  0.62351635468E+03  0.63672085890E+03  0.12509000000E+03 0.  0.
         25    1    4    4    0    0 -0.56616011786E+02  0.51230540300E+02  0.10407910741E+04  0.10510582805E+04  0.12509000000E+03 0.  0.
<mgrwt>
<rscale>  2 0.47049784E+03</rscale>
<asrwt>0</asrwt>
<pdfrwt beam="1">  1       21 0.31018800E+00 0.47049784E+03</pdfrwt>
<pdfrwt beam="2">  1       21 0.38584463E-02 0.47049784E+03</pdfrwt>
<totfact> 0.10321729E+04</totfact>
</mgrwt>
</event>
<event>
 7    0  0.4712189E-002  0.4477552E+03  0.7546771E-02  0.1028394E+00
         21   -1    0    0  502  501  0.00000000000E+00  0.00000000000E+00  0.20387845961E+03  0.20387845961E+03  0.00000000000E+00 0. -1.
         21   -1    0    0  501  502 -0.00000000000E+00 -0.00000000000E+00 -0.24583856992E+03  0.24583856992E+03  0.00000000000E+00 0. -1.
      99926    2    1    2    0    0  0.00000000000E+00  0.00000000000E+00 -0.41960110305E+02  0.44971702953E+03  0.44775524094E+03 0.  0.
      99925    2    3    3    0    0 -0.85410086838E+02  0.36219528792E+02 -0.78036996344E+02  0.28985525484E+03  0.26328607779E+03 0.  0.
         25    1    3    3    0    0  0.85410086838E+02 -0.36219528792E+02  0.36076886040E+02  0.15986177469E+03  0.12509000000E+03 0.  0.
         25    1    4    4    0    0 -0.85230781771E+02  0.26328001979E+02 -0.45176289100E+02  0.16014323291E+03  0.12509000000E+03 0.  0.
         25    1    4    4    0    0 -0.17930506744E+00  0.98915268132E+01 -0.32860707244E+02  0.12971202193E+03  0.12509000000E+03 0.  0.
<mgrwt>
<rscale>  2 0.44775524E+03</rscale>
<asrwt>0</asrwt>
<pdfrwt beam="1">  1       21 0.29982126E-01 0.44775524E+03</pdfrwt>
<pdfrwt beam="2">  1       21 0.36152731E-01 0.44775524E+03</pdfrwt>
<totfact> 0.73067644E+04</totfact>
</mgrwt>
</event>
<event>
 7    0  0.4712189E-002  0.4055816E+03  0.7546771E-02  0.1041864E+00
         21   -1    0    0  502  501  0.00000000000E+00  0.00000000000E+00  0.27522675121E+02  0.27522675121E+02  0.00000000000E+00 0. -1.
         21   -1    0    0  501  502 -0.00000000000E+00 -0.00000000000E+00 -0.14941902532E+04  0.14941902532E+04  0.00000000000E+00 0. -1.
      99926    2    1    2    0    0  0.13322676296E-14  0.00000000000E+00 -0.14666675781E+04  0.15217129283E+04  0.40558162142E+03 0.  0.
      99925    2    3    3    0    0 -0.13274865977E+01 -0.32476560505E+02 -0.11398309730E+04  0.11702500374E+04  0.26308556350E+03 0.  0.
         25    1    4    4    0    0  0.18652416320E+02  0.16382422945E+02 -0.48456504384E+03  0.50106594998E+03  0.12509000000E+03 0.  0.
         25    1    4    4    0    0 -0.19979902918E+02 -0.48858983451E+02 -0.65526592919E+03  0.66918408741E+03  0.12509000000E+03 0.  0.
         25    1    3    3    0    0  0.13274865977E+01  0.32476560505E+02 -0.32683660503E+03  0.35146289092E+03  0.12509000000E+03 0.  0.
<mgrwt>
<rscale>  2 0.40558162E+03</rscale>
<asrwt>0</asrwt>
<pdfrwt beam="1">  1       21 0.40474508E-02 0.40558162E+03</pdfrwt>
<pdfrwt beam="2">  1       21 0.21973394E+00 0.40558162E+03</pdfrwt>
<totfact> 0.34822142E+04</totfact>
</mgrwt>
</event>
<event>
 7    0  0.4712189E-002  0.4484955E+03  0.7546771E-02  0.1028172E+00
         21   -1    0    0  502  501  0.00000000000E+00  0.00000000000E+00  0.30637978999E+03  0.30637978999E+03  0.00000000000E+00 0. -1.
         21   -1    0    0  501  502 -0.00000000000E+00 -0.00000000000E+00 -0.16413302669E+03  0.16413302669E+03  0.00000000000E+00 0. -1.
      99926    2    1    2    0    0  0.00000000000E+00  0.00000000000E+00  0.14224676330E+03  0.47051281668E+03  0.44849545036E+03 0.  0.
      99925    2    3    3    0    0  0.32143003367E+02  0.51688598855E+02  0.18225801256E+03  0.32576029655E+03  0.26305304360E+03 0.  0.
         25    1    4    4    0    0  0.53622742526E+02  0.19632320786E+02  0.75702482058E+02  0.15696878806E+03  0.12509000000E+03 0.  0.
         25    1    4    4    0    0 -0.21479739159E+02  0.32056278069E+02  0.10655553050E+03  0.16879150849E+03  0.12509000000E+03 0.  0.
         25    1    3    3    0    0 -0.32143003367E+02 -0.51688598855E+02 -0.40011249258E+02  0.14475252013E+03  0.12509000000E+03 0.  0.
<mgrwt>
<rscale>  2 0.44849545E+03</rscale>
<asrwt>0</asrwt>
<pdfrwt beam="1">  1       21 0.45055852E-01 0.44849545E+03</pdfrwt>
<pdfrwt beam="2">  1       21 0.24137210E-01 0.44849545E+03</pdfrwt>
<totfact> 0.70991693E+04</totfact>
</mgrwt>
</event>
<event>
 7    0  0.4712189E-002  0.4538587E+03  0.7546771E-02  0.1026578E+00
         21   -1    0    0  502  501  0.00000000000E+00  0.00000000000E+00  0.16779812951E+03  0.16779812951E+03  0.00000000000E+00 0. -1.
         21   -1    0    0  501  502 -0.00000000000E+00 -0.00000000000E+00 -0.30689808208E+03  0.30689808208E+03  0.00000000000E+00 0. -1.
      99926    2    1    2    0    0  0.88817841970E-15  0.00000000000E+00 -0.13909995257E+03  0.47469621159E+03  0.45385867458E+03 0.  0.
      99925    2    3    3    0    0  0.55427683745E+01 -0.98999448821E+02 -0.32794152198E+02  0.28291497048E+03  0.26293309216E+03 0.  0.
         25    1    4    4    0    0  0.14313068796E+02 -0.45668037860E+02 -0.55119616761E+02  0.14483132904E+03  0.12509000000E+03 0.  0.
         25    1    4    4    0    0 -0.87703004218E+01 -0.53331410960E+02  0.22325464563E+02  0.13808364144E+03  0.12509000000E+03 0.  0.
         25    1    3    3    0    0 -0.55427683745E+01  0.98999448821E+02 -0.10630580037E+03  0.19178124111E+03  0.12509000000E+03 0.  0.
<mgrwt>
<rscale>  2 0.45385867E+03</rscale>
<asrwt>0</asrwt>
<pdfrwt beam="1">  1       21 0.24676195E-01 0.45385867E+03</pdfrwt>
<pdfrwt beam="2">  1       21 0.45132071E-01 0.45385867E+03</pdfrwt>
<totfact> 0.67699367E+04</totfact>
</mgrwt>
</event>
<event>
 7    0  0.4712189E-002  0.4389902E+03  0.7546771E-02  0.1031057E+00
         21   -1    0    0  502  501  0.00000000000E+00  0.00000000000E+00  0.93594827000E+03  0.93594827000E+03  0.00000000000E+00 0.  1.
         21   -1    0    0  501  502 -0.00000000000E+00 -0.00000000000E+00 -0.51475175911E+02  0.51475175911E+02  0.00000000000E+00 0.  1.
      99926    2    1    2    0    0  0.00000000000E+00 -0.14210854715E-13  0.88447309409E+03  0.98742344591E+03  0.43899021329E+03 0.  0.
      99925    2    3    3    0    0 -0.11429854246E+02  0.96678115670E+02  0.56347507451E+03  0.62942269690E+03  0.26304271927E+03 0.  0.
         25    1    4    4    0    0 -0.38846561920E+02  0.58359689217E+02  0.24246346667E+03  0.28169300571E+03  0.12509000000E+03 0.  0.
         25    1    3    3    0    0  0.11429854246E+02 -0.96678115670E+02  0.32099801959E+03  0.35800074902E+03  0.12509000000E+03 0.  0.
         25    1    4    4    0    0  0.27416707674E+02  0.38318426454E+02  0.32101160784E+03  0.34772969119E+03  0.12509000000E+03 0.  0.
<mgrwt>
<rscale>  2 0.43899021E+03</rscale>
<asrwt>0</asrwt>
<pdfrwt beam="1">  1       21 0.13763944E+00 0.43899021E+03</pdfrwt>
<pdfrwt beam="2">  1       21 0.75698794E-02 0.43899021E+03</pdfrwt>
<totfact> 0.45032845E+04</totfact>
</mgrwt>
</event>
<event>
 7    0  0.4712189E-002  0.4505961E+03  0.7546771E-02  0.1027544E+00
         21   -1    0    0  502  501  0.00000000000E+00  0.00000000000E+00  0.11516565828E+03  0.11516565828E+03  0.00000000000E+00 0.  1.
         21   -1    0    0  501  502 -0.00000000000E+00 -0.00000000000E+00 -0.44074959018E+03  0.44074959018E+03  0.00000000000E+00 0.  1.
      99926    2    1    2    0    0  0.00000000000E+00 -0.23592239273E-14 -0.32558393191E+03  0.55591524846E+03  0.45059612377E+03 0.  0.
      99925    2    3    3    0    0  0.91250320605E+02  0.13216718349E+00 -0.13210417801E+03  0.30810773899E+03  0.26296810928E+03 0.  0.
         25    1    3    3    0    0 -0.91250320605E+02 -0.13216718349E+00 -0.19347975390E+03  0.24780750947E+03  0.12509000000E+03 0.  0.
         25    1    4    4    0    0  0.58396798151E+02  0.33890071208E+02 -0.47307826255E+02  0.14981408974E+03  0.12509000000E+03 0.  0.
         25    1    4    4    0    0  0.32853522454E+02 -0.33757904024E+02 -0.84796351751E+02  0.15829364925E+03  0.12509000000E+03 0.  0.
<mgrwt>
<rscale>  2 0.45059612E+03</rscale>
<asrwt>0</asrwt>
<pdfrwt beam="1">  1       21 0.16936126E-01 0.45059612E+03</pdfrwt>
<pdfrwt beam="2">  1       21 0.64816116E-01 0.45059612E+03</pdfrwt>
<totfact> 0.63666472E+04</totfact>
</mgrwt>
</event>
<event>
 7    0  0.4712189E-002  0.4523030E+03  0.7546771E-02  0.1027037E+00
         21   -1    0    0  502  501  0.00000000000E+00  0.00000000000E+00  0.18846159065E+03  0.18846159065E+03  0.00000000000E+00 0. -1.
         21   -1    0    0  501  502 -0.00000000000E+00 -0.00000000000E+00 -0.27137895407E+03  0.27137895407E+03  0.00000000000E+00 0. -1.
      99926    2    1    2    0    0 -0.14210854715E-13 -0.35527136788E-14 -0.82917363419E+02  0.45984054472E+03  0.45230303715E+03 0.  0.
      99925    2    3    3    0    0  0.90166336077E+02  0.13247602618E+02  0.10501579422E+02  0.27906423511E+03  0.26355473247E+03 0.  0.
         25    1    3    3    0    0 -0.90166336077E+02 -0.13247602618E+02 -0.93418942841E+02  0.18077630962E+03  0.12509000000E+03 0.  0.
         25    1    4    4    0    0  0.47050362070E+02  0.27477552118E+02 -0.30513656434E+02  0.13981181556E+03  0.12509000000E+03 0.  0.
         25    1    4    4    0    0  0.43115974007E+02 -0.14229949500E+02  0.41015235856E+02  0.13925241955E+03  0.12509000000E+03 0.  0.
<mgrwt>
<rscale>  2 0.45230304E+03</rscale>
<asrwt>0</asrwt>
<pdfrwt beam="1">  1       21 0.27714940E-01 0.45230304E+03</pdfrwt>
<pdfrwt beam="2">  1       21 0.39908670E-01 0.45230304E+03</pdfrwt>
<totfact> 0.69676717E+04</totfact>
</mgrwt>
</event>
<event>
 7    0  0.4712189E-002  0.4524993E+03  0.7546771E-02  0.1026979E+00
         21   -1    0    0  502  501  0.00000000000E+00  0.00000000000E+00  0.31413638717E+03  0.31413638717E+03  0.00000000000E+00 0. -1.
         21   -1    0    0  501  502 -0.00000000000E+00 -0.00000000000E+00 -0.16295120021E+03  0.16295120021E+03  0.00000000000E+00 0. -1.
      99926    2    1    2    0    0  0.00000000000E+00 -0.14210854715E-13  0.15118518696E+03  0.47708758737E+03  0.45249928759E+03 0.  0.
      99925    2    3    3    0    0  0.46817484824E+02  0.90365315365E+02  0.50985012449E+02  0.28723145716E+03  0.26371323703E+03 0.  0.
         25    1    4    4    0    0  0.12664940465E+02  0.24073851136E+01  0.28483137687E+02  0.12893794419E+03  0.12509000000E+03 0.  0.
         25    1    4    4    0    0  0.34152544359E+02  0.87957930251E+02  0.22501874762E+02  0.15829351297E+03  0.12509000000E+03 0.  0.
         25    1    3    3    0    0 -0.46817484824E+02 -0.90365315365E+02  0.10020017451E+03  0.18985613021E+03  0.12509000000E+03 0.  0.
<mgrwt>
<rscale>  2 0.45249929E+03</rscale>
<asrwt>0</asrwt>
<pdfrwt beam="1">  1       21 0.46196528E-01 0.45249929E+03</pdfrwt>
<pdfrwt beam="2">  1       21 0.23963412E-01 0.45249929E+03</pdfrwt>
<totfact> 0.68257480E+04</totfact>
</mgrwt>
</event>
<event>
 7    0  0.4712189E-002  0.4597838E+03  0.7546771E-02  0.1024844E+00
         21   -1    0    0  502  501  0.00000000000E+00  0.00000000000E+00  0.95690284020E+03  0.95690284020E+03  0.00000000000E+00 0.  1.
         21   -1    0    0  501  502 -0.00000000000E+00 -0.00000000000E+00 -0.55230556783E+02  0.55230556783E+02  0.00000000000E+00 0.  1.
      99926    2    1    2    0    0 -0.71054273576E-14  0.00000000000E+00  0.90167228342E+03  0.10121333970E+04  0.45978376070E+03 0.  0.
      99925    2    3    3    0    0 -0.43071961013E+02  0.92971177167E+02  0.43782824946E+03  0.52091284617E+03  0.26297867530E+03 0.  0.
         25    1    4    4    0    0 -0.53196354194E+02  0.23100886453E+02  0.19591460005E+03  0.23956949236E+03  0.12509000000E+03 0.  0.
         25    1    3    3    0    0  0.43071961013E+02 -0.92971177167E+02  0.46384403396E+03  0.49122055082E+03  0.12509000000E+03 0.  0.
         25    1    4    4    0    0  0.10124393181E+02  0.69870290714E+02  0.24191364941E+03  0.28134335381E+03  0.12509000000E+03 0.  0.
<mgrwt>
<rscale>  2 0.45978376E+03</rscale>
<asrwt>0</asrwt>
<pdfrwt beam="1">  1       21 0.14072100E+00 0.45978376E+03</pdfrwt>
<pdfrwt beam="2">  1       21 0.81221413E-02 0.45978376E+03</pdfrwt>
<totfact> 0.37285752E+04</totfact>
</mgrwt>
</event>
<event>
 7    0  0.4712189E-002  0.4573322E+03  0.7546771E-02  0.1025558E+00
         21   -1    0    0  502  501  0.00000000000E+00  0.00000000000E+00  0.79116833040E+03  0.79116833040E+03  0.00000000000E+00 0. -1.
         21   -1    0    0  501  502 -0.00000000000E+00 -0.00000000000E+00 -0.66089845377E+02  0.66089845377E+02  0.00000000000E+00 0. -1.
      99926    2    1    2    0    0  0.00000000000E+00  0.71054273576E-14  0.72507848503E+03  0.85725817578E+03  0.45733223208E+03 0.  0.
      99925    2    3    3    0    0  0.90668703610E+02  0.53678810674E+02  0.54294889154E+03  0.61247066496E+03  0.26310565954E+03 0.  0.
         25    1    3    3    0    0 -0.90668703610E+02 -0.53678810674E+02  0.18212959348E+03  0.24478751081E+03  0.12509000000E+03 0.  0.
         25    1    4    4    0    0  0.25876526476E+02  0.14239559413E+02  0.32969459906E+03  0.35386211499E+03  0.12509000000E+03 0.  0.
         25    1    4    4    0    0  0.64792177134E+02  0.39439251261E+02  0.21325429249E+03  0.25860854998E+03  0.12509000000E+03 0.  0.
<mgrwt>
<rscale>  2 0.45733223E+03</rscale>
<asrwt>0</asrwt>
<pdfrwt beam="1">  1       21 0.11634828E+00 0.45733223E+03</pdfrwt>
<pdfrwt beam="2">  1       21 0.97190953E-02 0.45733223E+03</pdfrwt>
<totfact> 0.44300406E+04</totfact>
</mgrwt>
</event>
<event>
 7    0  0.4712189E-002  0.4558921E+03  0.7546771E-02  0.1025979E+00
         21   -1    0    0  502  501  0.00000000000E+00  0.00000000000E+00  0.18583556028E+03  0.18583556028E+03  0.00000000000E+00 0. -1.
         21   -1    0    0  501  502 -0.00000000000E+00 -0.00000000000E+00 -0.27959885943E+03  0.27959885943E+03  0.00000000000E+00 0. -1.
      99926    2    1    2    0    0 -0.14210854715E-13 -0.35527136788E-14 -0.93763299152E+02  0.46543441970E+03  0.45589213941E+03 0.  0.
      99925    2    3    3    0    0 -0.10690686873E+03 -0.22712117073E+02 -0.25840574111E+02  0.28597433077E+03  0.26299936073E+03 0.  0.
         25    1    3    3    0    0  0.10690686873E+03  0.22712117073E+02 -0.67922725041E+02  0.17946008894E+03  0.12509000000E+03 0.  0.
         25    1    4    4    0    0 -0.51271443265E+02 -0.51225982844E+02 -0.20638938487E+02  0.14603539329E+03  0.12509000000E+03 0.  0.
         25    1    4    4    0    0 -0.55635425466E+02  0.28513865771E+02 -0.52016356240E+01  0.13993893747E+03  0.12509000000E+03 0.  0.
<mgrwt>
<rscale>  2 0.45589214E+03</rscale>
<asrwt>0</asrwt>
<pdfrwt beam="1">  1       21 0.27328759E-01 0.45589214E+03</pdfrwt>
<pdfrwt beam="2">  1       21 0.41117479E-01 0.45589214E+03</pdfrwt>
<totfact> 0.67299501E+04</totfact>
</mgrwt>
</event>
<event>
 7    0  0.4712189E-002  0.4510241E+03  0.7546771E-02  0.1027417E+00
         21   -1    0    0  502  501  0.00000000000E+00  0.00000000000E+00  0.39136884873E+03  0.39136884873E+03  0.00000000000E+00 0. -1.
         21   -1    0    0  501  502 -0.00000000000E+00 -0.00000000000E+00 -0.12994312570E+03  0.12994312570E+03  0.00000000000E+00 0. -1.
      99926    2    1    2    0    0  0.00000000000E+00  0.00000000000E+00  0.26142572304E+03  0.52131197443E+03  0.45102413020E+03 0.  0.
      99925    2    3    3    0    0  0.72476825687E+01  0.64918278366E+02  0.26660566898E+03  0.38009847752E+03  0.26292462440E+03 0.  0.
         25    1    3    3    0    0 -0.72476825687E+01 -0.64918278366E+02 -0.51799459447E+01  0.14121349691E+03  0.12509000000E+03 0.  0.
         25    1    4    4    0    0 -0.86235078834E+01  0.56545268561E+02  0.95774797099E+02  0.16760683800E+03  0.12509000000E+03 0.  0.
         25    1    4    4    0    0  0.15871190452E+02  0.83730098048E+01  0.17083087188E+03  0.21249163952E+03  0.12509000000E+03 0.  0.
<mgrwt>
<rscale>  2 0.45102413E+03</rscale>
<asrwt>0</asrwt>
<pdfrwt beam="1">  1       21 0.57554242E-01 0.45102413E+03</pdfrwt>
<pdfrwt beam="2">  1       21 0.19109283E-01 0.45102413E+03</pdfrwt>
<totfact> 0.65849620E+04</totfact>
</mgrwt>
</event>
<event>
 7    0  0.4712189E-002  0.4020736E+03  0.7546771E-02  0.1043064E+00
         21   -1    0    0  502  501  0.00000000000E+00  0.00000000000E+00  0.26675991508E+02  0.26675991508E+02  0.00000000000E+00 0.  1.
         21   -1    0    0  501  502 -0.00000000000E+00 -0.00000000000E+00 -0.15150628010E+04  0.15150628010E+04  0.00000000000E+00 0.  1.
      99926    2    1    2    0    0 -0.44408920985E-15  0.88817841970E-15 -0.14883868095E+04  0.15417387925E+04  0.40207363711E+03 0.  0.
      99925    2    3    3    0    0  0.37054162128E+01  0.55366229008E+01 -0.11777283854E+04  0.12067752887E+04  0.26309325993E+03 0.  0.
         25    1    4    4    0    0  0.51529790859E+01 -0.37091952955E+02 -0.62021161451E+03  0.63380779503E+03  0.12509000000E+03 0.  0.
         25    1    3    3    0    0 -0.37054162128E+01 -0.55366229008E+01 -0.31065842412E+03  0.33496350380E+03  0.12509000000E+03 0.  0.
         25    1    4    4    0    0 -0.14475628731E+01  0.42628575856E+02 -0.55751677085E+03  0.57296749367E+03  0.12509000000E+03 0.  0.
<mgrwt>
<rscale>  2 0.40207364E+03</rscale>
<asrwt>0</asrwt>
<pdfrwt beam="1">  1       21 0.39229396E-02 0.40207364E+03</pdfrwt>
<pdfrwt beam="2">  1       21 0.22280337E+00 0.40207364E+03</pdfrwt>
<totfact> 0.35157337E+04</totfact>
</mgrwt>
</event>
<event>
 7    0  0.4712189E-002  0.4487468E+03  0.7546771E-02  0.1028096E+00
         21   -1    0    0  502  501  0.00000000000E+00  0.00000000000E+00  0.36224477462E+03  0.36224477462E+03  0.00000000000E+00 0. -1.
         21   -1    0    0  501  502 -0.00000000000E+00 -0.00000000000E+00 -0.13897623293E+03  0.13897623293E+03  0.00000000000E+00 0. -1.
      99926    2    1    2    0    0 -0.14210854715E-13  0.00000000000E+00  0.22326854169E+03  0.50122100755E+03  0.44874676233E+03 0.  0.
      99925    2    3    3    0    0 -0.84228925036E+02  0.62278682915E+02  0.11687507247E+03  0.30643850179E+03  0.26319503539E+03 0.  0.
         25    1    4    4    0    0 -0.18942460746E+02  0.63968325070E+02  0.50490335110E+02  0.15049101459E+03  0.12509000000E+03 0.  0.
         25    1    3    3    0    0  0.84228925036E+02 -0.62278682915E+02  0.10639346922E+03  0.19478250576E+03  0.12509000000E+03 0.  0.
         25    1    4    4    0    0 -0.65286464290E+02 -0.16896421547E+01  0.66384737362E+02  0.15594748720E+03  0.12509000000E+03 0.  0.
<mgrwt>
<rscale>  2 0.44874676E+03</rscale>
<asrwt>0</asrwt>
<pdfrwt beam="1">  1       21 0.53271290E-01 0.44874676E+03</pdfrwt>
<pdfrwt beam="2">  1       21 0.20437681E-01 0.44874676E+03</pdfrwt>
<totfact> 0.68523411E+04</totfact>
</mgrwt>
</event>
<event>
 7    0  0.4712189E-002  0.4522707E+03  0.7546771E-02  0.1027047E+00
         21   -1    0    0  502  501  0.00000000000E+00  0.00000000000E+00  0.71633662228E+02  0.71633662228E+02  0.00000000000E+00 0. -1.
         21   -1    0    0  501  502 -0.00000000000E+00 -0.00000000000E+00 -0.71387117265E+03  0.71387117265E+03  0.00000000000E+00 0. -1.
      99926    2    1    2    0    0 -0.71054273576E-14 -0.35527136788E-14 -0.64223751042E+03  0.78550483488E+03  0.45227074394E+03 0.  0.
      99925    2    3    3    0    0  0.35011791330E+02  0.11142893239E+02 -0.22406693666E+03  0.34748186006E+03  0.26303547549E+03 0.  0.
         25    1    4    4    0    0  0.15896804335E+02  0.33776717652E+02 -0.15104716356E+03  0.19964049881E+03  0.12509000000E+03 0.  0.
         25    1    3    3    0    0 -0.35011791330E+02 -0.11142893239E+02 -0.41817057377E+03  0.43802297482E+03  0.12509000000E+03 0.  0.
         25    1    4    4    0    0  0.19114986994E+02 -0.22633824413E+02 -0.73019773093E+02  0.14784136126E+03  0.12509000000E+03 0.  0.
<mgrwt>
<rscale>  2 0.45227074E+03</rscale>
<asrwt>0</asrwt>
<pdfrwt beam="1">  1       21 0.10534362E-01 0.45227074E+03</pdfrwt>
<pdfrwt beam="2">  1       21 0.10498105E+00 0.45227074E+03</pdfrwt>
<totfact> 0.49526379E+04</totfact>
</mgrwt>
</event>
<event>
 7    0  0.4712189E-002  0.4496169E+03  0.7546771E-02  0.1027836E+00
         21   -1    0    0  502  501  0.00000000000E+00  0.00000000000E+00  0.27677541675E+03  0.27677541675E+03  0.00000000000E+00 0.  1.
         21   -1    0    0  501  502 -0.00000000000E+00 -0.00000000000E+00 -0.18259872690E+03  0.18259872690E+03  0.00000000000E+00 0.  1.
      99926    2    1    2    0    0  0.17763568394E-14  0.00000000000E+00  0.94176689849E+02  0.45937414365E+03  0.44961689798E+03 0.  0.
      99925    2    3    3    0    0 -0.61455651786E+01 -0.76837252551E+02 -0.17739876520E+02  0.27467287869E+03  0.26303755572E+03 0.  0.
         25    1    4    4    0    0 -0.24906918129E+02 -0.43952167906E+02  0.24928770485E+02  0.13719001178E+03  0.12509000000E+03 0.  0.
         25    1    3    3    0    0  0.61455651786E+01  0.76837252551E+02  0.11191656637E+03  0.18470126496E+03  0.12509000000E+03 0.  0.
         25    1    4    4    0    0  0.18761352950E+02 -0.32885084645E+02 -0.42668647005E+02  0.13748286691E+03  0.12509000000E+03 0.  0.
<mgrwt>
<rscale>  2 0.44961690E+03</rscale>
<asrwt>0</asrwt>
<pdfrwt beam="1">  1       21 0.40702267E-01 0.44961690E+03</pdfrwt>
<pdfrwt beam="2">  1       21 0.26852754E-01 0.44961690E+03</pdfrwt>
<totfact> 0.71227990E+04</totfact>
</mgrwt>
</event>
<event>
 7    0  0.4712189E-002  0.4524445E+03  0.7546771E-02  0.1026996E+00
         21   -1    0    0  502  501  0.00000000000E+00  0.00000000000E+00  0.30387451629E+03  0.30387451629E+03  0.00000000000E+00 0.  1.
         21   -1    0    0  501  502 -0.00000000000E+00 -0.00000000000E+00 -0.16841326786E+03  0.16841326786E+03  0.00000000000E+00 0.  1.
      99926    2    1    2    0    0 -0.35527136788E-14  0.00000000000E+00  0.13546124843E+03  0.47228778415E+03  0.45244447309E+03 0.  0.
      99925    2    3    3    0    0 -0.29589982996E+02 -0.53774105516E+02  0.18186445115E+03  0.32542735094E+03  0.26279471195E+03 0.  0.
         25    1    3    3    0    0  0.29589982996E+02  0.53774105516E+02 -0.46403202724E+02  0.14686043320E+03  0.12509000000E+03 0.  0.
         25    1    4    4    0    0 -0.50950048700E+02 -0.94749838168E+01  0.94597320272E+02  0.16517216437E+03  0.12509000000E+03 0.  0.
         25    1    4    4    0    0  0.21360065705E+02 -0.44299121699E+02  0.87267130881E+02  0.16025518657E+03  0.12509000000E+03 0.  0.
<mgrwt>
<rscale>  2 0.45244447E+03</rscale>
<asrwt>0</asrwt>
<pdfrwt beam="1">  1       21 0.44687429E-01 0.45244447E+03</pdfrwt>
<pdfrwt beam="2">  1       21 0.24766657E-01 0.45244447E+03</pdfrwt>
<totfact> 0.68647517E+04</totfact>
</mgrwt>
</event>
<event>
 7    0  0.4712189E-002  0.4594472E+03  0.7546771E-02  0.1024942E+00
         21   -1    0    0  502  501  0.00000000000E+00  0.00000000000E+00  0.11102409622E+03  0.11102409622E+03  0.00000000000E+00 0.  1.
         21   -1    0    0  501  502 -0.00000000000E+00 -0.00000000000E+00 -0.47532869962E+03  0.47532869962E+03  0.00000000000E+00 0.  1.
      99926    2    1    2    0    0  0.00000000000E+00  0.35527136788E-14 -0.36430460341E+03  0.58635279584E+03  0.45944722997E+03 0.  0.
      99925    2    3    3    0    0 -0.16198221755E+02 -0.28732624829E+02 -0.84672067004E+02  0.27824598054E+03  0.26298958276E+03 0.  0.
         25    1    3    3    0    0  0.16198221755E+02  0.28732624829E+02 -0.27963253640E+03  0.30810681530E+03  0.12509000000E+03 0.  0.
         25    1    4    4    0    0 -0.37338265868E+02 -0.29606855058E+02 -0.18415422339E+02  0.13511975372E+03  0.12509000000E+03 0.  0.
         25    1    4    4    0    0  0.21140044113E+02  0.87423022934E+00 -0.66256644665E+02  0.14312622683E+03  0.12509000000E+03 0.  0.
<mgrwt>
<rscale>  2 0.45944723E+03</rscale>
<asrwt>0</asrwt>
<pdfrwt beam="1">  1       21 0.16327073E-01 0.45944723E+03</pdfrwt>
<pdfrwt beam="2">  1       21 0.69901279E-01 0.45944723E+03</pdfrwt>
<totfact> 0.57478891E+04</totfact>
</mgrwt>
</event>
<event>
 7    0  0.4712189E-002  0.4543067E+03  0.7546771E-02  0.1026445E+00
         21   -1    0    0  502  501  0.00000000000E+00  0.00000000000E+00  0.93483873636E+03  0.93483873636E+03  0.00000000000E+00 0.  1.
         21   -1    0    0  501  502 -0.00000000000E+00 -0.00000000000E+00 -0.55195226047E+02  0.55195226047E+02  0.00000000000E+00 0.  1.
      99926    2    1    2    0    0  0.88817841970E-15 -0.14210854715E-13  0.87964351031E+03  0.99003396241E+03  0.45430666018E+03 0.  0.
      99925    2    3    3    0    0  0.79447541230E+00 -0.86462710630E+02  0.71168577480E+03  0.76346445753E+03  0.26249743683E+03 0.  0.
         25    1    4    4    0    0 -0.26100630633E+02 -0.20414289397E+02  0.39306448099E+03  0.41381781070E+03  0.12509000000E+03 0.  0.
         25    1    3    3    0    0 -0.79447541230E+00  0.86462710630E+02  0.16795773551E+03  0.22656950488E+03  0.12509000000E+03 0.  0.
         25    1    4    4    0    0  0.26895106045E+02 -0.66048421233E+02  0.31862129381E+03  0.34964664684E+03  0.12509000000E+03 0.  0.
<mgrwt>
<rscale>  2 0.45430666E+03</rscale>
<asrwt>0</asrwt>
<pdfrwt beam="1">  1       21 0.13747627E+00 0.45430666E+03</pdfrwt>
<pdfrwt beam="2">  1       21 0.81169456E-02 0.45430666E+03</pdfrwt>
<totfact> 0.39771573E+04</totfact>
</mgrwt>
</event>
<event>
 7    0  0.4712189E-002  0.4640855E+03  0.7546771E-02  0.1023603E+00
         21   -1    0    0  502  501  0.00000000000E+00  0.00000000000E+00  0.19181012920E+04  0.19181012920E+04  0.00000000000E+00 0.  1.
         21   -1    0    0  501  502 -0.00000000000E+00 -0.00000000000E+00 -0.28071429156E+02  0.28071429156E+02  0.00000000000E+00 0.  1.
      99926    2    1    2    0    0  0.00000000000E+00  0.17763568394E-14  0.18900298628E+04  0.19461727212E+04  0.46408552890E+03 0.  0.
      99925    2    3    3    0    0  0.11028224294E+03  0.15413964915E+02  0.13842691647E+04  0.14134052716E+04  0.26289461390E+03 0.  0.
         25    1    3    3    0    0 -0.11028224294E+03 -0.15413964915E+02  0.50576069816E+03  0.53276744958E+03  0.12509000000E+03 0.  0.
         25    1    4    4    0    0  0.15176411948E+02  0.22930322071E+02  0.64080373826E+03  0.65347766773E+03  0.12509000000E+03 0.  0.
         25    1    4    4    0    0  0.95105830993E+02 -0.75163571568E+01  0.74346542642E+03  0.75992760386E+03  0.12509000000E+03 0.  0.
<mgrwt>
<rscale>  2 0.46408553E+03</rscale>
<asrwt>0</asrwt>
<pdfrwt beam="1">  1       21 0.28207363E+00 0.46408553E+03</pdfrwt>
<pdfrwt beam="2">  1       21 0.41281526E-02 0.46408553E+03</pdfrwt>
<totfact> 0.13622584E+04</totfact>
</mgrwt>
</event>
<event>
 7    0  0.4712189E-002  0.4583447E+03  0.7546771E-02  0.1025262E+00
         21   -1    0    0  502  501  0.00000000000E+00  0.00000000000E+00  0.67187404258E+03  0.67187404258E+03  0.00000000000E+00 0.  1.
         21   -1    0    0  501  502 -0.00000000000E+00 -0.00000000000E+00 -0.78169347593E+02  0.78169347593E+02  0.00000000000E+00 0.  1.
      99926    2    1    2    0    0  0.00000000000E+00  0.00000000000E+00  0.59370469499E+03  0.75004339017E+03  0.45834465448E+03 0.  0.
      99925    2    3    3    0    0  0.24000045508E+02  0.11038563452E+03  0.32967541241E+03  0.43680233180E+03  0.26334275958E+03 0.  0.
         25    1    4    4    0    0  0.27060804698E+02  0.50445648262E+02  0.10632372244E+03  0.17386573163E+03  0.12509000000E+03 0.  0.
         25    1    3    3    0    0 -0.24000045508E+02 -0.11038563452E+03  0.26402928257E+03  0.31324105837E+03  0.12509000000E+03 0.  0.
         25    1    4    4    0    0 -0.30607591907E+01  0.59939986259E+02  0.22335168997E+03  0.26293660017E+03  0.12509000000E+03 0.  0.
<mgrwt>
<rscale>  2 0.45834465E+03</rscale>
<asrwt>0</asrwt>
<pdfrwt beam="1">  1       21 0.98805003E-01 0.45834465E+03</pdfrwt>
<pdfrwt beam="2">  1       21 0.11495493E-01 0.45834465E+03</pdfrwt>
<totfact> 0.48968706E+04</totfact>
</mgrwt>
</event>
<event>
 7    0  0.4712189E-002  0.4392961E+03  0.7546771E-02  0.1030963E+00
         21   -1    0    0  502  501  0.00000000000E+00  0.00000000000E+00  0.99425421459E+03  0.99425421459E+03  0.00000000000E+00 0.  1.
         21   -1    0    0  501  502 -0.00000000000E+00 -0.00000000000E+00 -0.48524084923E+02  0.48524084923E+02  0.00000000000E+00 0.  1.
      99926    2    1    2    0    0  0.00000000000E+00  0.71054273576E-14  0.94573012967E+03  0.10427782995E+04  0.43929614587E+03 0.  0.
      99925    2    3    3    0    0 -0.52390965150E+02 -0.60115437577E+02  0.46882637738E+03  0.54333523358E+03  0.26278570139E+03 0.  0.
         25    1    4    4    0    0 -0.45373892570E+02 -0.63228308281E+02  0.22068303521E+03  0.26533962996E+03  0.12509000000E+03 0.  0.
         25    1    3    3    0    0  0.52390965150E+02  0.60115437577E+02  0.47690375229E+03  0.49944306593E+03  0.12509000000E+03 0.  0.
         25    1    4    4    0    0 -0.70170725797E+01  0.31128707043E+01  0.24814334217E+03  0.27799560362E+03  0.12509000000E+03 0.  0.
<mgrwt>
<rscale>  2 0.43929615E+03</rscale>
<asrwt>0</asrwt>
<pdfrwt beam="1">  1       21 0.14621384E+00 0.43929615E+03</pdfrwt>
<pdfrwt beam="2">  1       21 0.71358955E-02 0.43929615E+03</pdfrwt>
<totfact> 0.42521551E+04</totfact>
</mgrwt>
</event>
<event>
 7    0  0.4712189E-002  0.4508983E+03  0.7546771E-02  0.1027454E+00
         21   -1    0    0  502  501  0.00000000000E+00  0.00000000000E+00  0.89114819867E+03  0.89114819867E+03  0.00000000000E+00 0.  1.
         21   -1    0    0  501  502 -0.00000000000E+00 -0.00000000000E+00 -0.57035773699E+02  0.57035773699E+02  0.00000000000E+00 0.  1.
      99926    2    1    2    0    0 -0.35527136788E-14  0.00000000000E+00  0.83411242497E+03  0.94818397237E+03  0.45089833440E+03 0.  0.
      99925    2    3    3    0    0 -0.26856251902E+02  0.10331793106E+03  0.46491870219E+03  0.54402142316E+03  0.26156080758E+03 0.  0.
         25    1    4    4    0    0 -0.45287217135E+02  0.68958932202E+02  0.21869928788E+03  0.26510969991E+03  0.12509000000E+03 0.  0.
         25    1    4    4    0    0  0.18430965233E+02  0.34358998861E+02  0.24621941431E+03  0.27891172325E+03  0.12509000000E+03 0.  0.
         25    1    3    3    0    0  0.26856251902E+02 -0.10331793106E+03  0.36919372278E+03  0.40416254921E+03  0.12509000000E+03 0.  0.
<mgrwt>
<rscale>  2 0.45089833E+03</rscale>
<asrwt>0</asrwt>
<pdfrwt beam="1">  1       21 0.13105120E+00 0.45089833E+03</pdfrwt>
<pdfrwt beam="2">  1       21 0.83876143E-02 0.45089833E+03</pdfrwt>
<totfact> 0.42563316E+04</totfact>
</mgrwt>
</event>
<event>
 7    0  0.4712189E-002  0.4190634E+03  0.7546771E-02  0.1037372E+00
         21   -1    0    0  502  501  0.00000000000E+00  0.00000000000E+00  0.17011424980E+03  0.17011424980E+03  0.00000000000E+00 0. -1.
         21   -1    0    0  501  502 -0.00000000000E+00 -0.00000000000E+00 -0.25808262109E+03  0.25808262109E+03  0.00000000000E+00 0. -1.
      99926    2    1    2    0    0 -0.71054273576E-14 -0.35527136788E-14 -0.87968371284E+02  0.42819687089E+03  0.41906339126E+03 0.  0.
      99925    2    3    3    0    0 -0.62132156857E+02 -0.19842075981E+02 -0.94544072069E+02  0.28697059559E+03  0.26298180217E+03 0.  0.
         25    1    3    3    0    0  0.62132156857E+02  0.19842075981E+02  0.65757007846E+01  0.14122627530E+03  0.12509000000E+03 0.  0.
         25    1    4    4    0    0 -0.23440468729E+02 -0.44276202662E+02 -0.26238059036E+02  0.13727993859E+03  0.12509000000E+03 0.  0.
         25    1    4    4    0    0 -0.38691688127E+02  0.24434126681E+02 -0.68306013033E+02  0.14969065700E+03  0.12509000000E+03 0.  0.
<mgrwt>
<rscale>  2 0.41906339E+03</rscale>
<asrwt>0</asrwt>
<pdfrwt beam="1">  1       21 0.25016802E-01 0.41906339E+03</pdfrwt>
<pdfrwt beam="2">  1       21 0.37953327E-01 0.41906339E+03</pdfrwt>
<totfact> 0.94992086E+04</totfact>
</mgrwt>
</event>
<event>
 7    0  0.4712189E-002  0.4518919E+03  0.7546771E-02  0.1027159E+00
         21   -1    0    0  502  501  0.00000000000E+00  0.00000000000E+00  0.57924738814E+02  0.57924738814E+02  0.00000000000E+00 0.  1.
         21   -1    0    0  501  502 -0.00000000000E+00 -0.00000000000E+00 -0.88134307550E+03  0.88134307550E+03  0.00000000000E+00 0.  1.
      99926    2    1    2    0    0  0.10824674490E-14  0.26645352591E-14 -0.82341833669E+03  0.93926781432E+03  0.45189187846E+03 0.  0.
      99925    2    3    3    0    0  0.23186109968E+00 -0.38726138411E+01 -0.74860455922E+03  0.79346088617E+03  0.26297593216E+03 0.  0.
         25    1    4    4    0    0 -0.11586400216E+02  0.30186281221E+02 -0.43854044389E+03  0.45717686432E+03  0.12509000000E+03 0.  0.
         25    1    4    4    0    0  0.11818261316E+02 -0.34058895062E+02 -0.31006411533E+03  0.33628402185E+03  0.12509000000E+03 0.  0.
         25    1    3    3    0    0 -0.23186109968E+00  0.38726138411E+01 -0.74813777473E+02  0.14580692815E+03  0.12509000000E+03 0.  0.
<mgrwt>
<rscale>  2 0.45189188E+03</rscale>
<asrwt>0</asrwt>
<pdfrwt beam="1">  1       21 0.85183444E-02 0.45189188E+03</pdfrwt>
<pdfrwt beam="2">  1       21 0.12960927E+00 0.45189188E+03</pdfrwt>
<totfact> 0.42604690E+04</totfact>
</mgrwt>
</event>
<event>
 7    0  0.4712189E-002  0.4560525E+03  0.7546771E-02  0.1025932E+00
         21   -1    0    0  502  501  0.00000000000E+00  0.00000000000E+00  0.18803064571E+03  0.18803064571E+03  0.00000000000E+00 0.  1.
         21   -1    0    0  501  502 -0.00000000000E+00 -0.00000000000E+00 -0.27652924521E+03  0.27652924521E+03  0.00000000000E+00 0.  1.
      99926    2    1    2    0    0  0.14210854715E-13  0.00000000000E+00 -0.88498599493E+02  0.46455989092E+03  0.45605250810E+03 0.  0.
      99925    2    3    3    0    0  0.10394712902E+03 -0.24907113116E+02 -0.14994374233E+02  0.28434959946E+03  0.26306746956E+03 0.  0.
         25    1    4    4    0    0  0.33281579530E+02 -0.42535360063E+02  0.13173422954E+02  0.13688669608E+03  0.12509000000E+03 0.  0.
         25    1    3    3    0    0 -0.10394712902E+03  0.24907113116E+02 -0.73504225259E+02  0.18021029146E+03  0.12509000000E+03 0.  0.
         25    1    4    4    0    0  0.70665549494E+02  0.17628246947E+02 -0.28167797187E+02  0.14746290338E+03  0.12509000000E+03 0.  0.
<mgrwt>
<rscale>  2 0.45605251E+03</rscale>
<asrwt>0</asrwt>
<pdfrwt beam="1">  1       21 0.27651566E-01 0.45605251E+03</pdfrwt>
<pdfrwt beam="2">  1       21 0.40666065E-01 0.45605251E+03</pdfrwt>
<totfact> 0.67278223E+04</totfact>
</mgrwt>
</event>
<event>
 7    0  0.4712189E-002  0.4584645E+03  0.7546771E-02  0.1025228E+00
         21   -1    0    0  502  501  0.00000000000E+00  0.00000000000E+00  0.26843731889E+03  0.26843731889E+03  0.00000000000E+00 0. -1.
         21   -1    0    0  501  502 -0.00000000000E+00 -0.00000000000E+00 -0.19575301178E+03  0.19575301178E+03  0.00000000000E+00 0. -1.
      99926    2    1    2    0    0 -0.14210854715E-13  0.00000000000E+00  0.72684307116E+02  0.46419033067E+03  0.45846445292E+03 0.  0.
      99925    2    3    3    0    0  0.77315888969E+02  0.13872866067E+02  0.13281921362E+03  0.30471018087E+03  0.26274921069E+03 0.  0.
         25    1    3    3    0    0 -0.77315888969E+02 -0.13872866067E+02 -0.60134906504E+02  0.15948014980E+03  0.12509000000E+03 0.  0.
         25    1    4    4    0    0 -0.28181454398E+01  0.11640976887E+02  0.61725008238E+02  0.14000335363E+03  0.12509000000E+03 0.  0.
         25    1    4    4    0    0  0.80134034409E+02  0.22318891802E+01  0.71094205381E+02  0.16470682724E+03  0.12509000000E+03 0.  0.
<mgrwt>
<rscale>  2 0.45846445E+03</rscale>
<asrwt>0</asrwt>
<pdfrwt beam="1">  1       21 0.39476076E-01 0.45846445E+03</pdfrwt>
<pdfrwt beam="2">  1       21 0.28787208E-01 0.45846445E+03</pdfrwt>
<totfact> 0.66032840E+04</totfact>
</mgrwt>
</event>
<event>
 7    0  0.4712189E-002  0.4679136E+03  0.7546771E-02  0.1022511E+00
         21   -1    0    0  502  501  0.00000000000E+00  0.00000000000E+00  0.66302972582E+02  0.66302972582E+02  0.00000000000E+00 0. -1.
         21   -1    0    0  501  502 -0.00000000000E+00 -0.00000000000E+00 -0.82554056242E+03  0.82554056242E+03  0.00000000000E+00 0. -1.
      99926    2    1    2    0    0 -0.14210854715E-13  0.00000000000E+00 -0.75923758984E+03  0.89184353500E+03  0.46791363851E+03 0.  0.
      99925    2    3    3    0    0 -0.80230344929E+02  0.88396613048E+02 -0.54254813589E+03  0.61462034514E+03  0.26296163114E+03 0.  0.
         25    1    3    3    0    0  0.80230344929E+02 -0.88396613048E+02 -0.21668945395E+03  0.27722318986E+03  0.12509000000E+03 0.  0.
         25    1    4    4    0    0  0.19928461838E+01  0.36690572278E+02 -0.25025397378E+03  0.28217854104E+03  0.12509000000E+03 0.  0.
         25    1    4    4    0    0 -0.82223191113E+02  0.51706040770E+02 -0.29229416212E+03  0.33244180410E+03  0.12509000000E+03 0.  0.
<mgrwt>
<rscale>  2 0.46791364E+03</rscale>
<asrwt>0</asrwt>
<pdfrwt beam="1">  1       21 0.97504375E-02 0.46791364E+03</pdfrwt>
<pdfrwt beam="2">  1       21 0.12140302E+00 0.46791364E+03</pdfrwt>
<totfact> 0.39445594E+04</totfact>
</mgrwt>
</event>
<event>
 7    0  0.4712189E-002  0.4395242E+03  0.7546771E-02  0.1030893E+00
         21   -1    0    0  502  501  0.00000000000E+00  0.00000000000E+00  0.31879803927E+02  0.31879803927E+02  0.00000000000E+00 0. -1.
         21   -1    0    0  501  502 -0.00000000000E+00 -0.00000000000E+00 -0.15149209567E+04  0.15149209567E+04  0.00000000000E+00 0. -1.
      99926    2    1    2    0    0  0.00000000000E+00  0.00000000000E+00 -0.14830411528E+04  0.15468007606E+04  0.43952421123E+03 0.  0.
      99925    2    3    3    0    0  0.32401895989E+02 -0.83656027135E+02 -0.80499157807E+03  0.85149726747E+03  0.26265555773E+03 0.  0.
         25    1    3    3    0    0 -0.32401895989E+02  0.83656027135E+02 -0.67804957469E+03  0.69530349314E+03  0.12509000000E+03 0.  0.
         25    1    4    4    0    0 -0.15071228288E+02 -0.17390100892E+02 -0.40757305252E+03  0.42695767796E+03  0.12509000000E+03 0.  0.
         25    1    4    4    0    0  0.47473124277E+02 -0.66265926243E+02 -0.39741852555E+03  0.42453958951E+03  0.12509000000E+03 0.  0.
<mgrwt>
<rscale>  2 0.43952421E+03</rscale>
<asrwt>0</asrwt>
<pdfrwt beam="1">  1       21 0.46882059E-02 0.43952421E+03</pdfrwt>
<pdfrwt beam="2">  1       21 0.22278252E+00 0.43952421E+03</pdfrwt>
<totfact> 0.25596167E+04</totfact>
</mgrwt>
</event>
<event>
 7    0  0.4712189E-002  0.4542127E+03  0.7546771E-02  0.1026473E+00
         21   -1    0    0  502  501  0.00000000000E+00  0.00000000000E+00  0.34254359557E+03  0.34254359557E+03  0.00000000000E+00 0. -1.
         21   -1    0    0  501  502 -0.00000000000E+00 -0.00000000000E+00 -0.15057147855E+03  0.15057147855E+03  0.00000000000E+00 0. -1.
      99926    2    1    2    0    0  0.00000000000E+00  0.71054273576E-14  0.19197211701E+03  0.49311507412E+03  0.45421270635E+03 0.  0.
      99925    2    3    3    0    0 -0.98433427054E+02  0.54139274522E+02  0.12539464543E+03  0.31228291871E+03  0.26301445513E+03 0.  0.
         25    1    4    4    0    0 -0.76089799473E+02  0.57062093286E+02  0.52055859564E+02  0.16553869846E+03  0.12509000000E+03 0.  0.
         25    1    3    3    0    0  0.98433427054E+02 -0.54139274522E+02  0.66577471579E+02  0.18083215541E+03  0.12509000000E+03 0.  0.
         25    1    4    4    0    0 -0.22343627581E+02 -0.29228187644E+01  0.73338785870E+02  0.14674422025E+03  0.12509000000E+03 0.  0.
<mgrwt>
<rscale>  2 0.45421271E+03</rscale>
<asrwt>0</asrwt>
<pdfrwt beam="1">  1       21 0.50374058E-01 0.45421271E+03</pdfrwt>
<pdfrwt beam="2">  1       21 0.22142865E-01 0.45421271E+03</pdfrwt>
<totfact> 0.66169696E+04</totfact>
</mgrwt>
</event>
<event>
 7    0  0.4712189E-002  0.4542009E+03  0.7546771E-02  0.1026477E+00
         21   -1    0    0  502  501  0.00000000000E+00  0.00000000000E+00  0.34767827931E+03  0.34767827931E+03  0.00000000000E+00 0. -1.
         21   -1    0    0  501  502 -0.00000000000E+00 -0.00000000000E+00 -0.14834002905E+03  0.14834002905E+03  0.00000000000E+00 0. -1.
      99926    2    1    2    0    0  0.14210854715E-13 -0.35527136788E-14  0.19933825026E+03  0.49601830836E+03  0.45420086328E+03 0.  0.
      99925    2    3    3    0    0 -0.97530283784E+02  0.30232415947E+02  0.17684887286E+03  0.33298630099E+03  0.26301748533E+03 0.  0.
         25    1    3    3    0    0  0.97530283784E+02 -0.30232415947E+02  0.22489377408E+02  0.16303200736E+03  0.12509000000E+03 0.  0.
         25    1    4    4    0    0 -0.13485127722E+02  0.89231597989E+01  0.53210151501E+02  0.13689521457E+03  0.12509000000E+03 0.  0.
         25    1    4    4    0    0 -0.84045156062E+02  0.21309256148E+02  0.12363872136E+03  0.19609108642E+03  0.12509000000E+03 0.  0.
<mgrwt>
<rscale>  2 0.45420086E+03</rscale>
<asrwt>0</asrwt>
<pdfrwt beam="1">  1       21 0.51129159E-01 0.45420086E+03</pdfrwt>
<pdfrwt beam="2">  1       21 0.21814710E-01 0.45420086E+03</pdfrwt>
<totfact> 0.65968804E+04</totfact>
</mgrwt>
</event>
<event>
 7    0  0.4712189E-002  0.4410867E+03  0.7546771E-02  0.1030414E+00
         21   -1    0    0  502  501  0.00000000000E+00  0.00000000000E+00  0.79907221874E+02  0.79907221874E+02  0.00000000000E+00 0. -1.
         21   -1    0    0  501  502 -0.00000000000E+00 -0.00000000000E+00 -0.60869804433E+03  0.60869804433E+03  0.00000000000E+00 0. -1.
      99926    2    1    2    0    0  0.00000000000E+00  0.00000000000E+00 -0.52879082246E+03  0.68860526621E+03  0.44108670206E+03 0.  0.
      99925    2    3    3    0    0  0.38742999840E+01 -0.27994665058E+01 -0.18235596303E+03  0.32024746849E+03  0.26321454482E+03 0.  0.
         25    1    3    3    0    0 -0.38742999840E+01  0.27994665058E+01 -0.34643485943E+03  0.36835779772E+03  0.12509000000E+03 0.  0.
         25    1    4    4    0    0  0.70657646831E+01  0.36835097554E+02 -0.74408519524E+02  0.15030264575E+03  0.12509000000E+03 0.  0.
         25    1    4    4    0    0 -0.31914646991E+01 -0.39634564060E+02 -0.10794744351E+03  0.16994482274E+03  0.12509000000E+03 0.  0.
<mgrwt>
<rscale>  2 0.44108670E+03</rscale>
<asrwt>0</asrwt>
<pdfrwt beam="1">  1       21 0.11751062E-01 0.44108670E+03</pdfrwt>
<pdfrwt beam="2">  1       21 0.89514416E-01 0.44108670E+03</pdfrwt>
<totfact> 0.59812892E+04</totfact>
</mgrwt>
</event>
<event>
 7    0  0.4712189E-002  0.4563609E+03  0.7546771E-02  0.1025842E+00
         21   -1    0    0  502  501  0.00000000000E+00  0.00000000000E+00  0.21184638539E+03  0.21184638539E+03  0.00000000000E+00 0.  1.
         21   -1    0    0  501  502 -0.00000000000E+00 -0.00000000000E+00 -0.24577393662E+03  0.24577393662E+03  0.00000000000E+00 0.  1.
      99926    2    1    2    0    0 -0.14210854715E-13  0.71054273576E-14 -0.33927551237E+02  0.45762032201E+03  0.45636091023E+03 0.  0.
      99925    2    3    3    0    0  0.92518529701E+02 -0.44210676607E+02  0.29697187384E+02  0.28381043239E+03  0.26296801389E+03 0.  0.
         25    1    4    4    0    0  0.72946152030E+02 -0.53650164563E+02  0.27333489341E+02  0.15682509045E+03  0.12509000000E+03 0.  0.
         25    1    4    4    0    0  0.19572377671E+02  0.94394879567E+01  0.23636980429E+01  0.12698534195E+03  0.12509000000E+03 0.  0.
         25    1    3    3    0    0 -0.92518529701E+02  0.44210676607E+02 -0.63624738621E+02  0.17380988962E+03  0.12509000000E+03 0.  0.
<mgrwt>
<rscale>  2 0.45636091E+03</rscale>
<asrwt>0</asrwt>
<pdfrwt beam="1">  1       21 0.31153880E-01 0.45636091E+03</pdfrwt>
<pdfrwt beam="2">  1       21 0.36143226E-01 0.45636091E+03</pdfrwt>
<totfact> 0.67617092E+04</totfact>
</mgrwt>
</event>
<event>
 7    0  0.4712189E-002  0.4547693E+03  0.7546771E-02  0.1026309E+00
         21   -1    0    0  502  501  0.00000000000E+00  0.00000000000E+00  0.54030365290E+02  0.54030365290E+02  0.00000000000E+00 0. -1.
         21   -1    0    0  501  502 -0.00000000000E+00 -0.00000000000E+00 -0.95693919110E+03  0.95693919110E+03  0.00000000000E+00 0. -1.
      99926    2    1    2    0    0  0.00000000000E+00  0.00000000000E+00 -0.90290882581E+03  0.10109695564E+04  0.45476927801E+03 0.  0.
      99925    2    3    3    0    0 -0.95162437755E+02  0.43069900808E+02 -0.66382801751E+03  0.72162884562E+03  0.26300123208E+03 0.  0.
         25    1    3    3    0    0  0.95162437755E+02 -0.43069900808E+02 -0.23908080830E+03  0.28934071077E+03  0.12509000000E+03 0.  0.
         25    1    4    4    0    0 -0.17583452952E+02  0.19814100749E+02 -0.23332493243E+03  0.26606354241E+03  0.12509000000E+03 0.  0.
         25    1    4    4    0    0 -0.77578984803E+02  0.23255800058E+02 -0.43050308509E+03  0.45556530321E+03  0.12509000000E+03 0.  0.
<mgrwt>
<rscale>  2 0.45476928E+03</rscale>
<asrwt>0</asrwt>
<pdfrwt beam="1">  1       21 0.79456426E-02 0.45476928E+03</pdfrwt>
<pdfrwt beam="2">  1       21 0.14072634E+00 0.45476928E+03</pdfrwt>
<totfact> 0.38812688E+04</totfact>
</mgrwt>
</event>
<event>
 7    0  0.4712189E-002  0.4557943E+03  0.7546771E-02  0.1026008E+00
         21   -1    0    0  502  501  0.00000000000E+00  0.00000000000E+00  0.27463429464E+03  0.27463429464E+03  0.00000000000E+00 0.  1.
         21   -1    0    0  501  502 -0.00000000000E+00 -0.00000000000E+00 -0.18911368559E+03  0.18911368559E+03  0.00000000000E+00 0.  1.
      99926    2    1    2    0    0 -0.71054273576E-14  0.00000000000E+00  0.85520609050E+02  0.46374798023E+03  0.45579426784E+03 0.  0.
      99925    2    3    3    0    0  0.55293632895E+02 -0.32616367618E+02 -0.41863086197E+02  0.27402363496E+03  0.26308785843E+03 0.  0.
         25    1    4    4    0    0  0.46005099451E+02 -0.73771437593E+01 -0.57072040457E+02  0.14517443758E+03  0.12509000000E+03 0.  0.
         25    1    3    3    0    0 -0.55293632895E+02  0.32616367618E+02  0.12738369525E+03  0.18972434528E+03  0.12509000000E+03 0.  0.
         25    1    4    4    0    0  0.92885334441E+01 -0.25239223859E+02  0.15208954260E+02  0.12884919738E+03  0.12509000000E+03 0.  0.
<mgrwt>
<rscale>  2 0.45579427E+03</rscale>
<asrwt>0</asrwt>
<pdfrwt beam="1">  1       21 0.40387396E-01 0.45579427E+03</pdfrwt>
<pdfrwt beam="2">  1       21 0.27810836E-01 0.45579427E+03</pdfrwt>
<totfact> 0.67476158E+04</totfact>
</mgrwt>
</event>
<event>
 7    0  0.4712189E-002  0.4564355E+03  0.7546771E-02  0.1025820E+00
         21   -1    0    0  502  501  0.00000000000E+00  0.00000000000E+00  0.54983312546E+02  0.54983312546E+02  0.00000000000E+00 0. -1.
         21   -1    0    0  501  502 -0.00000000000E+00 -0.00000000000E+00 -0.94725718399E+03  0.94725718399E+03  0.00000000000E+00 0. -1.
      99926    2    1    2    0    0  0.00000000000E+00  0.00000000000E+00 -0.89227387145E+03  0.10022404965E+04  0.45643548420E+03 0.  0.
      99925    2    3    3    0    0 -0.42431717791E+02  0.49901103861E+02 -0.35535591374E+03  0.44706577427E+03  0.26324781148E+03 0.  0.
         25    1    4    4    0    0 -0.43419886692E+01 -0.10531588648E+01 -0.21373035513E+03  0.24768555633E+03  0.12509000000E+03 0.  0.
         25    1    4    4    0    0 -0.38089729122E+02  0.50954262726E+02 -0.14162555861E+03  0.19938021794E+03  0.12509000000E+03 0.  0.
         25    1    3    3    0    0  0.42431717791E+02 -0.49901103861E+02 -0.53691795771E+03  0.55517472227E+03  0.12509000000E+03 0.  0.
<mgrwt>
<rscale>  2 0.45643548E+03</rscale>
<asrwt>0</asrwt>
<pdfrwt beam="1">  1       21 0.80857814E-02 0.45643548E+03</pdfrwt>
<pdfrwt beam="2">  1       21 0.13930252E+00 0.45643548E+03</pdfrwt>
<totfact> 0.38644718E+04</totfact>
</mgrwt>
</event>
<event>
 7    0  0.4712189E-002  0.4559690E+03  0.7546771E-02  0.1025957E+00
         21   -1    0    0  502  501  0.00000000000E+00  0.00000000000E+00  0.86537385870E+02  0.86537385870E+02  0.00000000000E+00 0.  1.
         21   -1    0    0  501  502 -0.00000000000E+00 -0.00000000000E+00 -0.60062974080E+03  0.60062974080E+03  0.00000000000E+00 0.  1.
      99926    2    1    2    0    0  0.00000000000E+00  0.14210854715E-13 -0.51409235493E+03  0.68716712667E+03  0.45596897984E+03 0.  0.
      99925    2    3    3    0    0 -0.88691074330E+02 -0.70364058239E+02 -0.34796381778E+03  0.45039000296E+03  0.26259308621E+03 0.  0.
         25    1    4    4    0    0 -0.44661275469E+01 -0.19239604185E+02 -0.15965046847E+03  0.20377901965E+03  0.12509000000E+03 0.  0.
         25    1    4    4    0    0 -0.84224946783E+02 -0.51124454054E+02 -0.18831334930E+03  0.24661098331E+03  0.12509000000E+03 0.  0.
         25    1    3    3    0    0  0.88691074330E+02  0.70364058239E+02 -0.16612853715E+03  0.23677712371E+03  0.12509000000E+03 0.  0.
<mgrwt>
<rscale>  2 0.45596898E+03</rscale>
<asrwt>0</asrwt>
<pdfrwt beam="1">  1       21 0.12726087E-01 0.45596898E+03</pdfrwt>
<pdfrwt beam="2">  1       21 0.88327899E-01 0.45596898E+03</pdfrwt>
<totfact> 0.53198440E+04</totfact>
</mgrwt>
</event>
<event>
 7    0  0.4712189E-002  0.4517399E+03  0.7546771E-02  0.1027204E+00
         21   -1    0    0  502  501  0.00000000000E+00  0.00000000000E+00  0.87236134652E+02  0.87236134652E+02  0.00000000000E+00 0.  1.
         21   -1    0    0  501  502 -0.00000000000E+00 -0.00000000000E+00 -0.58481768156E+03  0.58481768156E+03  0.00000000000E+00 0.  1.
      99926    2    1    2    0    0 -0.71054273576E-14  0.00000000000E+00 -0.49758154690E+03  0.67205381621E+03  0.45173989868E+03 0.  0.
      99925    2    3    3    0    0  0.39049141604E+02  0.99378252184E+02 -0.35354249959E+03  0.45343170452E+03  0.26307249796E+03 0.  0.
         25    1    4    4    0    0  0.60518586717E+02  0.52511269079E+02 -0.18999823267E+03  0.24117787883E+03  0.12509000000E+03 0.  0.
         25    1    3    3    0    0 -0.39049141604E+02 -0.99378252184E+02 -0.14403904731E+03  0.21862211169E+03  0.12509000000E+03 0.  0.
         25    1    4    4    0    0 -0.21469445112E+02  0.46866983105E+02 -0.16354426692E+03  0.21225382569E+03  0.12509000000E+03 0.  0.
<mgrwt>
<rscale>  2 0.45173990E+03</rscale>
<asrwt>0</asrwt>
<pdfrwt beam="1">  1       21 0.12828843E-01 0.45173990E+03</pdfrwt>
<pdfrwt beam="2">  1       21 0.86002599E-01 0.45173990E+03</pdfrwt>
<totfact> 0.55868292E+04</totfact>
</mgrwt>
</event>
<event>
 7    0  0.4712189E-002  0.4763176E+03  0.7546771E-02  0.1020152E+00
         21   -1    0    0  502  501  0.00000000000E+00  0.00000000000E+00  0.37575194906E+02  0.37575194906E+02  0.00000000000E+00 0.  1.
         21   -1    0    0  501  502 -0.00000000000E+00 -0.00000000000E+00 -0.15094964570E+04  0.15094964570E+04  0.00000000000E+00 0.  1.
      99926    2    1    2    0    0  0.00000000000E+00  0.00000000000E+00 -0.14719212621E+04  0.15470716519E+04  0.47631764015E+03 0.  0.
      99925    2    3    3    0    0  0.13092150141E+03 -0.14359299171E+02 -0.87340607894E+03  0.92160018048E+03  0.26298685314E+03 0.  0.
         25    1    4    4    0    0  0.28886474429E+02 -0.24386557603E+02 -0.44016342246E+03  0.45915191295E+03  0.12509000000E+03 0.  0.
         25    1    4    4    0    0  0.10203502698E+03  0.10027258432E+02 -0.43324265648E+03  0.46244826753E+03  0.12509000000E+03 0.  0.
         25    1    3    3    0    0 -0.13092150141E+03  0.14359299171E+02 -0.59851518313E+03  0.62547147140E+03  0.12509000000E+03 0.  0.
<mgrwt>
<rscale>  2 0.47631764E+03</rscale>
<asrwt>0</asrwt>
<pdfrwt beam="1">  1       21 0.55257638E-02 0.47631764E+03</pdfrwt>
<pdfrwt beam="2">  1       21 0.22198478E+00 0.47631764E+03</pdfrwt>
<totfact> 0.19257679E+04</totfact>
</mgrwt>
</event>
<event>
 7    0  0.4712189E-002  0.4558747E+03  0.7546771E-02  0.1025984E+00
         21   -1    0    0  502  501  0.00000000000E+00  0.00000000000E+00  0.17104870040E+03  0.17104870040E+03  0.00000000000E+00 0. -1.
         21   -1    0    0  501  502 -0.00000000000E+00 -0.00000000000E+00 -0.30374646238E+03  0.30374646238E+03  0.00000000000E+00 0. -1.
      99926    2    1    2    0    0  0.00000000000E+00  0.35527136788E-14 -0.13269776198E+03  0.47479516279E+03  0.45587470929E+03 0.  0.
      99925    2    3    3    0    0 -0.83956634586E+02 -0.24054023058E+02 -0.72446374675E+01  0.27727729761E+03  0.26306444549E+03 0.  0.
         25    1    4    4    0    0 -0.57242670755E+01  0.10207037755E+02  0.61600717784E-01  0.12563623183E+03  0.12509000000E+03 0.  0.
         25    1    3    3    0    0  0.83956634586E+02  0.24054023058E+02 -0.12545312451E+03  0.19751786518E+03  0.12509000000E+03 0.  0.
         25    1    4    4    0    0 -0.78232367510E+02 -0.34261060813E+02 -0.73062381853E+01  0.15164106578E+03  0.12509000000E+03 0.  0.
<mgrwt>
<rscale>  2 0.45587471E+03</rscale>
<asrwt>0</asrwt>
<pdfrwt beam="1">  1       21 0.25154221E-01 0.45587471E+03</pdfrwt>
<pdfrwt beam="2">  1       21 0.44668597E-01 0.45587471E+03</pdfrwt>
<totfact> 0.66617372E+04</totfact>
</mgrwt>
</event>
<event>
 7    0  0.4712189E-002  0.4548566E+03  0.7546771E-02  0.1026284E+00
         21   -1    0    0  502  501  0.00000000000E+00  0.00000000000E+00  0.31870282687E+02  0.31870282687E+02  0.00000000000E+00 0.  1.
         21   -1    0    0  501  502 -0.00000000000E+00 -0.00000000000E+00 -0.16229427114E+04  0.16229427114E+04  0.00000000000E+00 0.  1.
      99926    2    1    2    0    0  0.00000000000E+00  0.35527136788E-14 -0.15910724287E+04  0.16548129941E+04  0.45485664993E+03 0.  0.
      99925    2    3    3    0    0 -0.10200787811E+03  0.18631405663E+02 -0.11650104444E+04  0.11988206048E+04  0.26299956380E+03 0.  0.
         25    1    4    4    0    0 -0.36329296887E+02 -0.28531562030E+02 -0.58258859790E+03  0.59765445731E+03  0.12509000000E+03 0.  0.
         25    1    3    3    0    0  0.10200787811E+03 -0.18631405663E+02 -0.42606198433E+03  0.45599238926E+03  0.12509000000E+03 0.  0.
         25    1    4    4    0    0 -0.65678581222E+02  0.47162967693E+02 -0.58242184648E+03  0.60116614751E+03  0.12509000000E+03 0.  0.
<mgrwt>
<rscale>  2 0.45485665E+03</rscale>
<asrwt>0</asrwt>
<pdfrwt beam="1">  1       21 0.46868048E-02 0.45485665E+03</pdfrwt>
<pdfrwt beam="2">  1       21 0.23866812E+00 0.45485665E+03</pdfrwt>
<totfact> 0.20241523E+04</totfact>
</mgrwt>
</event>
<event>
 7    0  0.4712189E-002  0.4548407E+03  0.7546771E-02  0.1026288E+00
         21   -1    0    0  502  501  0.00000000000E+00  0.00000000000E+00  0.95601649256E+03  0.95601649256E+03  0.00000000000E+00 0. -1.
         21   -1    0    0  501  502 -0.00000000000E+00 -0.00000000000E+00 -0.54099489643E+02  0.54099489643E+02  0.00000000000E+00 0. -1.
      99926    2    1    2    0    0  0.00000000000E+00  0.00000000000E+00  0.90191700291E+03  0.10101159822E+04  0.45484065050E+03 0.  0.
      99925    2    3    3    0    0  0.39772686708E+02  0.95817874792E+02  0.47104199218E+03  0.54961222031E+03  0.26349592517E+03 0.  0.
         25    1    3    3    0    0 -0.39772686708E+02 -0.95817874792E+02  0.43087501073E+03  0.46050376189E+03  0.12509000000E+03 0.  0.
         25    1    4    4    0    0  0.32260842094E+01  0.48382332016E+02  0.15832312523E+03  0.20752102967E+03  0.12509000000E+03 0.  0.
         25    1    4    4    0    0  0.36546602499E+02  0.47435542776E+02  0.31271886695E+03  0.34209119065E+03  0.12509000000E+03 0.  0.
<mgrwt>
<rscale>  2 0.45484065E+03</rscale>
<asrwt>0</asrwt>
<pdfrwt beam="1">  1       21 0.14059065E+00 0.45484065E+03</pdfrwt>
<pdfrwt beam="2">  1       21 0.79558079E-02 0.45484065E+03</pdfrwt>
<totfact> 0.38823896E+04</totfact>
</mgrwt>
</event>
<event>
 7    0  0.4712189E-002  0.4545576E+03  0.7546771E-02  0.1026372E+00
         21   -1    0    0  502  501  0.00000000000E+00  0.00000000000E+00  0.10817485635E+03  0.10817485635E+03  0.00000000000E+00 0.  1.
         21   -1    0    0  501  502 -0.00000000000E+00 -0.00000000000E+00 -0.47752003474E+03  0.47752003474E+03  0.00000000000E+00 0.  1.
      99926    2    1    2    0    0  0.00000000000E+00  0.00000000000E+00 -0.36934517839E+03  0.58569489109E+03  0.45455763622E+03 0.  0.
      99925    2    3    3    0    0 -0.49649650277E+02 -0.51690938640E+02 -0.12018525698E+03  0.29783170232E+03  0.26291098494E+03 0.  0.
         25    1    4    4    0    0 -0.57141636860E+01  0.99638518276E+01 -0.45130710729E+02  0.13347741068E+03  0.12509000000E+03 0.  0.
         25    1    3    3    0    0  0.49649650277E+02  0.51690938640E+02 -0.24915992141E+03  0.28786318877E+03  0.12509000000E+03 0.  0.
         25    1    4    4    0    0 -0.43935486591E+02 -0.61654790468E+02 -0.75054546251E+02  0.16435429165E+03  0.12509000000E+03 0.  0.
<mgrwt>
<rscale>  2 0.45455764E+03</rscale>
<asrwt>0</asrwt>
<pdfrwt beam="1">  1       21 0.15908067E-01 0.45455764E+03</pdfrwt>
<pdfrwt beam="2">  1       21 0.70223534E-01 0.45455764E+03</pdfrwt>
<totfact> 0.59776279E+04</totfact>
</mgrwt>
</event>
<event>
 7    0  0.4712189E-002  0.4554828E+03  0.7546771E-02  0.1026100E+00
         21   -1    0    0  502  501  0.00000000000E+00  0.00000000000E+00  0.41313141759E+03  0.41313141759E+03  0.00000000000E+00 0. -1.
         21   -1    0    0  501  502 -0.00000000000E+00 -0.00000000000E+00 -0.12554392260E+03  0.12554392260E+03  0.00000000000E+00 0. -1.
      99926    2    1    2    0    0  0.00000000000E+00  0.00000000000E+00  0.28758749499E+03  0.53867534019E+03  0.45548277119E+03 0.  0.
      99925    2    3    3    0    0 -0.51339544820E+02 -0.46592045619E+02  0.28715964002E+03  0.39565695418E+03  0.26320562105E+03 0.  0.
         25    1    3    3    0    0  0.51339544820E+02  0.46592045619E+02  0.42785496876E+00  0.14301838601E+03  0.12509000000E+03 0.  0.
         25    1    4    4    0    0 -0.40454597086E+02  0.10589654957E+01  0.18480074026E+03  0.22679620264E+03  0.12509000000E+03 0.  0.
         25    1    4    4    0    0 -0.10884947734E+02 -0.47651011115E+02  0.10235889977E+03  0.16886075153E+03  0.12509000000E+03 0.  0.
<mgrwt>
<rscale>  2 0.45548277E+03</rscale>
<asrwt>0</asrwt>
<pdfrwt beam="1">  1       21 0.60754620E-01 0.45548277E+03</pdfrwt>
<pdfrwt beam="2">  1       21 0.18462342E-01 0.45548277E+03</pdfrwt>
<totfact> 0.62382426E+04</totfact>
</mgrwt>
</event>
<event>
 7    0  0.4712189E-002  0.4531077E+03  0.7546771E-02  0.1026799E+00
         21   -1    0    0  502  501  0.00000000000E+00  0.00000000000E+00  0.35528782407E+03  0.35528782407E+03  0.00000000000E+00 0.  1.
         21   -1    0    0  501  502 -0.00000000000E+00 -0.00000000000E+00 -0.14446494792E+03  0.14446494792E+03  0.00000000000E+00 0.  1.
      99926    2    1    2    0    0  0.00000000000E+00 -0.88817841970E-15  0.21082287615E+03  0.49975277200E+03  0.45310765609E+03 0.  0.
      99925    2    3    3    0    0 -0.10410278580E+03 -0.50896933555E+01  0.90073154422E+02  0.29704288475E+03  0.26316916089E+03 0.  0.
         25    1    3    3    0    0  0.10410278580E+03  0.50896933555E+01  0.12074972173E+03  0.20270988725E+03  0.12509000000E+03 0.  0.
         25    1    4    4    0    0 -0.68347907864E+02 -0.31729454803E+02  0.21574016462E+02  0.14761822753E+03  0.12509000000E+03 0.  0.
         25    1    4    4    0    0 -0.35754877934E+02  0.26639761447E+02  0.68499137959E+02  0.14942465723E+03  0.12509000000E+03 0.  0.
<mgrwt>
<rscale>  2 0.45310766E+03</rscale>
<asrwt>0</asrwt>
<pdfrwt beam="1">  1       21 0.52248209E-01 0.45310766E+03</pdfrwt>
<pdfrwt beam="2">  1       21 0.21244845E-01 0.45310766E+03</pdfrwt>
<totfact> 0.66278035E+04</totfact>
</mgrwt>
</event>
<event>
 7    0  0.4712189E-002  0.4083719E+03  0.7546771E-02  0.1040919E+00
         21   -1    0    0  502  501  0.00000000000E+00  0.00000000000E+00  0.49582372583E+03  0.49582372583E+03  0.00000000000E+00 0. -1.
         21   -1    0    0  501  502 -0.00000000000E+00 -0.00000000000E+00 -0.84086120659E+02  0.84086120659E+02  0.00000000000E+00 0. -1.
      99926    2    1    2    0    0 -0.71054273576E-14  0.00000000000E+00  0.41173760517E+03  0.57990984649E+03  0.40837185817E+03 0.  0.
      99925    2    3    3    0    0  0.44123480801E+02 -0.33150642079E+02  0.30457495541E+03  0.40619402041E+03  0.26302439454E+03 0.  0.
         25    1    3    3    0    0 -0.44123480801E+02  0.33150642079E+02  0.10716264976E+03  0.17371582609E+03  0.12509000000E+03 0.  0.
         25    1    4    4    0    0  0.55459075989E+02 -0.36558545024E+02  0.18247685264E+03  0.23099252406E+03  0.12509000000E+03 0.  0.
         25    1    4    4    0    0 -0.11335595188E+02  0.34079029447E+01  0.12209810277E+03  0.17520149634E+03  0.12509000000E+03 0.  0.
<mgrwt>
<rscale>  2 0.40837186E+03</rscale>
<asrwt>0</asrwt>
<pdfrwt beam="1">  1       21 0.72915252E-01 0.40837186E+03</pdfrwt>
<pdfrwt beam="2">  1       21 0.12365606E-01 0.40837186E+03</pdfrwt>
<totfact> 0.88219708E+04</totfact>
</mgrwt>
</event>
<event>
 7    0  0.4712189E-002  0.4352115E+03  0.7546771E-02  0.1032226E+00
         21   -1    0    0  502  501  0.00000000000E+00  0.00000000000E+00  0.38424309256E+03  0.38424309256E+03  0.00000000000E+00 0.  1.
         21   -1    0    0  501  502 -0.00000000000E+00 -0.00000000000E+00 -0.12323515033E+03  0.12323515033E+03  0.00000000000E+00 0.  1.
      99926    2    1    2    0    0  0.00000000000E+00  0.00000000000E+00  0.26100794223E+03  0.50747824289E+03  0.43521146710E+03 0.  0.
      99925    2    3    3    0    0 -0.64188511933E+02  0.47868079616E+02  0.22270179309E+03  0.35409510407E+03  0.26339274093E+03 0.  0.
         25    1    4    4    0    0 -0.45741798281E+00  0.25182888126E+02  0.14067226770E+03  0.18992256866E+03  0.12509000000E+03 0.  0.
         25    1    3    3    0    0  0.64188511933E+02 -0.47868079616E+02  0.38306149139E+02  0.15338313881E+03  0.12509000000E+03 0.  0.
         25    1    4    4    0    0 -0.63731093950E+02  0.22685191490E+02  0.82029525389E+02  0.16417253542E+03  0.12509000000E+03 0.  0.
<mgrwt>
<rscale>  2 0.43521147E+03</rscale>
<asrwt>0</asrwt>
<pdfrwt beam="1">  1       21 0.56506337E-01 0.43521147E+03</pdfrwt>
<pdfrwt beam="2">  1       21 0.18122816E-01 0.43521147E+03</pdfrwt>
<totfact> 0.75993622E+04</totfact>
</mgrwt>
</event>
<event>
 7    0  0.4712189E-002  0.4544097E+03  0.7546771E-02  0.1026415E+00
         21   -1    0    0  502  501  0.00000000000E+00  0.00000000000E+00  0.14410381904E+03  0.14410381904E+03  0.00000000000E+00 0. -1.
         21   -1    0    0  501  502 -0.00000000000E+00 -0.00000000000E+00 -0.35822816020E+03  0.35822816020E+03  0.00000000000E+00 0. -1.
      99926    2    1    2    0    0 -0.71054273576E-14  0.66613381478E-15 -0.21412434117E+03  0.50233197924E+03  0.45440970928E+03 0.  0.
      99925    2    3    3    0    0  0.60743964284E+02  0.14070922637E+01 -0.23961429923E+03  0.36094932413E+03  0.26301633616E+03 0.  0.
         25    1    4    4    0    0  0.66361375869E+02  0.20421717237E+02 -0.13442400565E+03  0.19631148753E+03  0.12509000000E+03 0.  0.
         25    1    4    4    0    0 -0.56174115846E+01 -0.19014624973E+02 -0.10519029357E+03  0.16463783659E+03  0.12509000000E+03 0.  0.
         25    1    3    3    0    0 -0.60743964284E+02 -0.14070922637E+01  0.25489958063E+02  0.14138265512E+03  0.12509000000E+03 0.  0.
<mgrwt>
<rscale>  2 0.45440971E+03</rscale>
<asrwt>0</asrwt>
<pdfrwt beam="1">  1       21 0.21191738E-01 0.45440971E+03</pdfrwt>
<pdfrwt beam="2">  1       21 0.52680611E-01 0.45440971E+03</pdfrwt>
<totfact> 0.65413101E+04</totfact>
</mgrwt>
</event>
<event>
 7    0  0.4712189E-002  0.4557698E+03  0.7546771E-02  0.1026015E+00
         21   -1    0    0  502  501  0.00000000000E+00  0.00000000000E+00  0.59607454748E+03  0.59607454748E+03  0.00000000000E+00 0.  1.
         21   -1    0    0  501  502 -0.00000000000E+00 -0.00000000000E+00 -0.87122553424E+02  0.87122553424E+02  0.00000000000E+00 0.  1.
      99926    2    1    2    0    0  0.22204460493E-14  0.00000000000E+00  0.50895199405E+03  0.68319710090E+03  0.45576983931E+03 0.  0.
      99925    2    3    3    0    0 -0.32642771390E+01  0.11229883864E+03  0.34931421841E+03  0.45134927974E+03  0.26281945223E+03 0.  0.
         25    1    4    4    0    0 -0.21203257398E+02  0.38804122175E+02  0.11715332971E+03  0.17699646545E+03  0.12509000000E+03 0.  0.
         25    1    3    3    0    0  0.32642771390E+01 -0.11229883864E+03  0.15963777564E+03  0.23184782116E+03  0.12509000000E+03 0.  0.
         25    1    4    4    0    0  0.17938980259E+02  0.73494716468E+02  0.23216088870E+03  0.27435281428E+03  0.12509000000E+03 0.  0.
<mgrwt>
<rscale>  2 0.45576984E+03</rscale>
<asrwt>0</asrwt>
<pdfrwt beam="1">  1       21 0.87658020E-01 0.45576984E+03</pdfrwt>
<pdfrwt beam="2">  1       21 0.12812141E-01 0.45576984E+03</pdfrwt>
<totfact> 0.53500048E+04</totfact>
</mgrwt>
</event>
<event>
 7    0  0.4712189E-002  0.4583239E+03  0.7546771E-02  0.1025268E+00
         21   -1    0    0  502  501  0.00000000000E+00  0.00000000000E+00  0.37587063213E+02  0.37587063213E+02  0.00000000000E+00 0.  1.
         21   -1    0    0  501  502 -0.00000000000E+00 -0.00000000000E+00 -0.13971617314E+04  0.13971617314E+04  0.00000000000E+00 0.  1.
      99926    2    1    2    0    0 -0.71054273576E-14 -0.17763568394E-14 -0.13595746682E+04  0.14347487946E+04  0.45832393050E+03 0.  0.
      99925    2    3    3    0    0 -0.56386847455E+02 -0.90767322959E+01 -0.11699624442E+04  0.12005220514E+04  0.26301941281E+03 0.  0.
         25    1    3    3    0    0  0.56386847455E+02  0.90767322959E+01 -0.18961222401E+03  0.23422674320E+03  0.12509000000E+03 0.  0.
         25    1    4    4    0    0 -0.66056140351E+02 -0.21353159558E+02 -0.61393452759E+03  0.63038280701E+03  0.12509000000E+03 0.  0.
         25    1    4    4    0    0  0.96692928957E+01  0.12276427262E+02 -0.55602791660E+03  0.57013924442E+03  0.12509000000E+03 0.  0.
<mgrwt>
<rscale>  2 0.45832393E+03</rscale>
<asrwt>0</asrwt>
<pdfrwt beam="1">  1       21 0.55275105E-02 0.45832393E+03</pdfrwt>
<pdfrwt beam="2">  1       21 0.20546491E+00 0.45832393E+03</pdfrwt>
<totfact> 0.24774519E+04</totfact>
</mgrwt>
</event>
<event>
 7    0  0.4712189E-002  0.4408851E+03  0.7546771E-02  0.1030476E+00
         21   -1    0    0  502  501  0.00000000000E+00  0.00000000000E+00  0.15198859891E+04  0.15198859891E+04  0.00000000000E+00 0.  1.
         21   -1    0    0  501  502 -0.00000000000E+00 -0.00000000000E+00 -0.31972736031E+02  0.31972736031E+02  0.00000000000E+00 0.  1.
      99926    2    1    2    0    0  0.17763568394E-14 -0.35527136788E-14  0.14879132530E+04  0.15518587251E+04  0.44088508038E+03 0.  0.
      99925    2    3    3    0    0  0.11816573577E+02  0.10020921963E+02  0.12939538646E+04  0.13205411884E+04  0.26319645981E+03 0.  0.
         25    1    4    4    0    0  0.29993253469E+02 -0.27939064350E+02  0.63508770806E+03  0.64858622526E+03  0.12509000000E+03 0.  0.
         25    1    4    4    0    0 -0.18176679893E+02  0.37959986312E+02  0.65886615651E+03  0.67195496318E+03  0.12509000000E+03 0.  0.
         25    1    3    3    0    0 -0.11816573577E+02 -0.10020921963E+02  0.19395938846E+03  0.23131753664E+03  0.12509000000E+03 0.  0.
<mgrwt>
<rscale>  2 0.44088508E+03</rscale>
<asrwt>0</asrwt>
<pdfrwt beam="1">  1       21 0.22351260E+00 0.44088508E+03</pdfrwt>
<pdfrwt beam="2">  1       21 0.47018740E-02 0.44088508E+03</pdfrwt>
<totfact> 0.25186280E+04</totfact>
</mgrwt>
</event>
<event>
 7    0  0.4712189E-002  0.4507192E+03  0.7546771E-02  0.1027508E+00
         21   -1    0    0  502  501  0.00000000000E+00  0.00000000000E+00  0.52510049892E+02  0.52510049892E+02  0.00000000000E+00 0. -1.
         21   -1    0    0  501  502 -0.00000000000E+00 -0.00000000000E+00 -0.96718516010E+03  0.96718516010E+03  0.00000000000E+00 0. -1.
      99926    2    1    2    0    0 -0.35527136788E-14  0.00000000000E+00 -0.91467511021E+03  0.10196952100E+04  0.45071916317E+03 0.  0.
      99925    2    3    3    0    0  0.31963346926E+02 -0.81729938979E+02 -0.72450104869E+03  0.77573800013E+03  0.26299474674E+03 0.  0.
         25    1    4    4    0    0  0.24079447805E+01 -0.44381006807E+02 -0.25440993194E+03  0.28696235561E+03  0.12509000000E+03 0.  0.
         25    1    3    3    0    0 -0.31963346926E+02  0.81729938979E+02 -0.19017406152E+03  0.24395720987E+03  0.12509000000E+03 0.  0.
         25    1    4    4    0    0  0.29555402145E+02 -0.37348932172E+02 -0.47009111675E+03  0.48877564452E+03  0.12509000000E+03 0.  0.
<mgrwt>
<rscale>  2 0.45071916E+03</rscale>
<asrwt>0</asrwt>
<pdfrwt beam="1">  1       21 0.77220664E-02 0.45071916E+03</pdfrwt>
<pdfrwt beam="2">  1       21 0.14223311E+00 0.45071916E+03</pdfrwt>
<totfact> 0.39720464E+04</totfact>
</mgrwt>
</event>
<event>
 7    0  0.4712189E-002  0.4504595E+03  0.7546771E-02  0.1027585E+00
         21   -1    0    0  502  501  0.00000000000E+00  0.00000000000E+00  0.12636477207E+03  0.12636477207E+03  0.00000000000E+00 0. -1.
         21   -1    0    0  501  502 -0.00000000000E+00 -0.00000000000E+00 -0.40144456784E+03  0.40144456784E+03  0.00000000000E+00 0. -1.
      99926    2    1    2    0    0  0.00000000000E+00  0.71054273576E-14 -0.27507979577E+03  0.52780933991E+03  0.45045954897E+03 0.  0.
      99925    2    3    3    0    0  0.35424502022E+02  0.40617943206E+02 -0.63084150081E+02  0.27582843876E+03  0.26305323603E+03 0.  0.
         25    1    3    3    0    0 -0.35424502022E+02 -0.40617943206E+02 -0.21199564568E+03  0.25198090115E+03  0.12509000000E+03 0.  0.
         25    1    4    4    0    0  0.46473030197E+02 -0.73388175991E+01 -0.23473487674E+02  0.13569124328E+03  0.12509000000E+03 0.  0.
         25    1    4    4    0    0 -0.11048528175E+02  0.47956760805E+02 -0.39610662407E+02  0.14013719548E+03  0.12509000000E+03 0.  0.
<mgrwt>
<rscale>  2 0.45045955E+03</rscale>
<asrwt>0</asrwt>
<pdfrwt beam="1">  1       21 0.18583055E-01 0.45045955E+03</pdfrwt>
<pdfrwt beam="2">  1       21 0.59035965E-01 0.45045955E+03</pdfrwt>
<totfact> 0.65686498E+04</totfact>
</mgrwt>
</event>
<event>
 7    0  0.4712189E-002  0.4525329E+03  0.7546771E-02  0.1026969E+00
         21   -1    0    0  502  501  0.00000000000E+00  0.00000000000E+00  0.38294488021E+02  0.38294488021E+02  0.00000000000E+00 0. -1.
         21   -1    0    0  501  502 -0.00000000000E+00 -0.00000000000E+00 -0.13369160266E+04  0.13369160266E+04  0.00000000000E+00 0. -1.
      99926    2    1    2    0    0 -0.71054273576E-14  0.14210854715E-13 -0.12986215385E+04  0.13752105146E+04  0.45253293699E+03 0.  0.
      99925    2    3    3    0    0 -0.56033141577E+02  0.94494342909E+02 -0.86298995925E+03  0.90885091645E+03  0.26303882749E+03 0.  0.
         25    1    4    4    0    0 -0.60256987521E+02  0.56432063799E+02 -0.38089144335E+03  0.40931806959E+03  0.12509000000E+03 0.  0.
         25    1    3    3    0    0  0.56033141577E+02 -0.94494342909E+02 -0.43563157929E+03  0.46635959814E+03  0.12509000000E+03 0.  0.
         25    1    4    4    0    0  0.42238459441E+01  0.38062279110E+02 -0.48209851590E+03  0.49953284686E+03  0.12509000000E+03 0.  0.
<mgrwt>
<rscale>  2 0.45253294E+03</rscale>
<asrwt>0</asrwt>
<pdfrwt beam="1">  1       21 0.56315426E-02 0.45253294E+03</pdfrwt>
<pdfrwt beam="2">  1       21 0.19660529E+00 0.45253294E+03</pdfrwt>
<totfact> 0.27524150E+04</totfact>
</mgrwt>
</event>
<event>
 7    0  0.4712189E-002  0.4553901E+03  0.7546771E-02  0.1026127E+00
         21   -1    0    0  502  501  0.00000000000E+00  0.00000000000E+00  0.36779315565E+03  0.36779315565E+03  0.00000000000E+00 0. -1.
         21   -1    0    0  501  502 -0.00000000000E+00 -0.00000000000E+00 -0.14096248681E+03  0.14096248681E+03  0.00000000000E+00 0. -1.
      99926    2    1    2    0    0  0.00000000000E+00  0.00000000000E+00  0.22683066885E+03  0.50875564246E+03  0.45539010904E+03 0.  0.
      99925    2    3    3    0    0  0.34262558200E+02  0.93831602364E+02  0.20554908549E+03  0.34726661377E+03  0.26146774562E+03 0.  0.
         25    1    4    4    0    0  0.54513590643E+02  0.40109530086E+02  0.10732605149E+03  0.17817658487E+03  0.12509000000E+03 0.  0.
         25    1    3    3    0    0 -0.34262558200E+02 -0.93831602364E+02  0.21281583352E+02  0.16148902869E+03  0.12509000000E+03 0.  0.
         25    1    4    4    0    0 -0.20251032443E+02  0.53722072278E+02  0.98223034001E+02  0.16909002890E+03  0.12509000000E+03 0.  0.
<mgrwt>
<rscale>  2 0.45539011E+03</rscale>
<asrwt>0</asrwt>
<pdfrwt beam="1">  1       21 0.54087228E-01 0.45539011E+03</pdfrwt>
<pdfrwt beam="2">  1       21 0.20729778E-01 0.45539011E+03</pdfrwt>
<totfact> 0.64460016E+04</totfact>
</mgrwt>
</event>
<event>
 7    0  0.4712189E-002  0.4562020E+03  0.7546771E-02  0.1025889E+00
         21   -1    0    0  502  501  0.00000000000E+00  0.00000000000E+00  0.87454877910E+02  0.87454877910E+02  0.00000000000E+00 0. -1.
         21   -1    0    0  501  502 -0.00000000000E+00 -0.00000000000E+00 -0.59493625159E+03  0.59493625159E+03  0.00000000000E+00 0. -1.
      99926    2    1    2    0    0  0.00000000000E+00  0.00000000000E+00 -0.50748137368E+03  0.68239112950E+03  0.45620204843E+03 0.  0.
      99925    2    3    3    0    0  0.74675608613E+02  0.86495458243E+02 -0.32183860007E+03  0.43105737070E+03  0.26300658076E+03 0.  0.
         25    1    4    4    0    0  0.16455809566E+02  0.22759012354E+02 -0.10216819431E+03  0.16393478685E+03  0.12509000000E+03 0.  0.
         25    1    3    3    0    0 -0.74675608613E+02 -0.86495458243E+02 -0.18564277361E+03  0.25133375880E+03  0.12509000000E+03 0.  0.
         25    1    4    4    0    0  0.58219799047E+02  0.63736445888E+02 -0.21967040576E+03  0.26712258385E+03  0.12509000000E+03 0.  0.
<mgrwt>
<rscale>  2 0.45620205E+03</rscale>
<asrwt>0</asrwt>
<pdfrwt beam="1">  1       21 0.12861011E-01 0.45620205E+03</pdfrwt>
<pdfrwt beam="2">  1       21 0.87490629E-01 0.45620205E+03</pdfrwt>
<totfact> 0.53362940E+04</totfact>
</mgrwt>
</event>
<event>
 7    0  0.4712189E-002  0.4616478E+03  0.7546771E-02  0.1024304E+00
         21   -1    0    0  502  501  0.00000000000E+00  0.00000000000E+00  0.14583766445E+03  0.14583766445E+03  0.00000000000E+00 0.  1.
         21   -1    0    0  501  502 -0.00000000000E+00 -0.00000000000E+00 -0.36533540476E+03  0.36533540476E+03  0.00000000000E+00 0.  1.
      99926    2    1    2    0    0  0.00000000000E+00 -0.27478019859E-14 -0.21949774031E+03  0.51117306920E+03  0.46164775390E+03 0.  0.
      99925    2    3    3    0    0  0.82322560952E+02 -0.37725514475E-01 -0.41647637820E+02  0.27867538638E+03  0.26296090921E+03 0.  0.
         25    1    4    4    0    0  0.41972109945E+02  0.35938149770E+02 -0.39674590928E+02  0.14238957085E+03  0.12509000000E+03 0.  0.
         25    1    4    4    0    0  0.40350451007E+02 -0.35975875285E+02 -0.19730468915E+01  0.13628581552E+03  0.12509000000E+03 0.  0.
         25    1    3    3    0    0 -0.82322560952E+02  0.37725514475E-01 -0.17785010249E+03  0.23249768283E+03  0.12509000000E+03 0.  0.
<mgrwt>
<rscale>  2 0.46164775E+03</rscale>
<asrwt>0</asrwt>
<pdfrwt beam="1">  1       21 0.21446715E-01 0.46164775E+03</pdfrwt>
<pdfrwt beam="2">  1       21 0.53725795E-01 0.46164775E+03</pdfrwt>
<totfact> 0.61199322E+04</totfact>
</mgrwt>
</event>
<event>
 7    0  0.4712189E-002  0.4517765E+03  0.7546771E-02  0.1027194E+00
         21   -1    0    0  502  501  0.00000000000E+00  0.00000000000E+00  0.17339777997E+03  0.17339777997E+03  0.00000000000E+00 0.  1.
         21   -1    0    0  501  502 -0.00000000000E+00 -0.00000000000E+00 -0.29426852173E+03  0.29426852173E+03  0.00000000000E+00 0.  1.
      99926    2    1    2    0    0 -0.71054273576E-14  0.14210854715E-13 -0.12087074176E+03  0.46766630170E+03  0.45177653053E+03 0.  0.
      99925    2    3    3    0    0 -0.56877429978E+02  0.94353852768E+02 -0.75321311842E+02  0.29486598273E+03  0.26293526994E+03 0.  0.
         25    1    4    4    0    0 -0.39302371470E+01  0.37092245101E+02 -0.27535894230E+01  0.13056175460E+03  0.12509000000E+03 0.  0.
         25    1    4    4    0    0 -0.52947192831E+02  0.57261607667E+02 -0.72567722419E+02  0.16430422812E+03  0.12509000000E+03 0.  0.
         25    1    3    3    0    0  0.56877429978E+02 -0.94353852768E+02 -0.45549429918E+02  0.17280031898E+03  0.12509000000E+03 0.  0.
<mgrwt>
<rscale>  2 0.45177653E+03</rscale>
<asrwt>0</asrwt>
<pdfrwt beam="1">  1       21 0.25499674E-01 0.45177653E+03</pdfrwt>
<pdfrwt beam="2">  1       21 0.43274782E-01 0.45177653E+03</pdfrwt>
<totfact> 0.69366614E+04</totfact>
</mgrwt>
</event>
<event>
 7    0  0.4712189E-002  0.4574715E+03  0.7546771E-02  0.1025517E+00
         21   -1    0    0  502  501  0.00000000000E+00  0.00000000000E+00  0.16654601068E+03  0.16654601068E+03  0.00000000000E+00 0.  1.
         21   -1    0    0  501  502 -0.00000000000E+00 -0.00000000000E+00 -0.31414772361E+03  0.31414772361E+03  0.00000000000E+00 0.  1.
      99926    2    1    2    0    0  0.00000000000E+00 -0.71054273576E-14 -0.14760171294E+03  0.48069373429E+03  0.45747152974E+03 0.  0.
      99925    2    3    3    0    0  0.28443386346E+02  0.58026203612E+02  0.83821437502E+01  0.27056392161E+03  0.26259952172E+03 0.  0.
         25    1    4    4    0    0  0.93803690974E+01  0.68407090668E+02 -0.45052870444E+01  0.14295218463E+03  0.12509000000E+03 0.  0.
         25    1    3    3    0    0 -0.28443386346E+02 -0.58026203612E+02 -0.15598385669E+03  0.21012981269E+03  0.12509000000E+03 0.  0.
         25    1    4    4    0    0  0.19063017249E+02 -0.10380887057E+02  0.12887430795E+02  0.12761173698E+03  0.12509000000E+03 0.  0.
<mgrwt>
<rscale>  2 0.45747153E+03</rscale>
<asrwt>0</asrwt>
<pdfrwt beam="1">  1       21 0.24492061E-01 0.45747153E+03</pdfrwt>
<pdfrwt beam="2">  1       21 0.46198194E-01 0.45747153E+03</pdfrwt>
<totfact> 0.65358053E+04</totfact>
</mgrwt>
</event>
<event>
 7    0  0.4712189E-002  0.4522495E+03  0.7546771E-02  0.1027053E+00
         21   -1    0    0  502  501  0.00000000000E+00  0.00000000000E+00  0.62253261859E+03  0.62253261859E+03  0.00000000000E+00 0. -1.
         21   -1    0    0  501  502 -0.00000000000E+00 -0.00000000000E+00 -0.82136115270E+02  0.82136115270E+02  0.00000000000E+00 0. -1.
      99926    2    1    2    0    0 -0.71054273576E-14  0.00000000000E+00  0.54039650332E+03  0.70466873386E+03  0.45224953696E+03 0.  0.
      99925    2    3    3    0    0  0.59269220045E+02 -0.39857096825E+02  0.20886507801E+03  0.34319671188E+03  0.26278876235E+03 0.  0.
         25    1    4    4    0    0  0.55867643086E+02 -0.50129050303E+02  0.98434176452E+02  0.17598554038E+03  0.12509000000E+03 0.  0.
         25    1    4    4    0    0  0.34015769592E+01  0.10271953479E+02  0.11043090156E+03  0.16721117150E+03  0.12509000000E+03 0.  0.
         25    1    3    3    0    0 -0.59269220045E+02  0.39857096825E+02  0.33153142531E+03  0.36147202199E+03  0.12509000000E+03 0.  0.
<mgrwt>
<rscale>  2 0.45224954E+03</rscale>
<asrwt>0</asrwt>
<pdfrwt beam="1">  1       21 0.91548912E-01 0.45224954E+03</pdfrwt>
<pdfrwt beam="2">  1       21 0.12078841E-01 0.45224954E+03</pdfrwt>
<totfact> 0.53805275E+04</totfact>
</mgrwt>
</event>
<event>
 7    0  0.4712189E-002  0.4316768E+03  0.7546771E-02  0.1033332E+00
         21   -1    0    0  502  501  0.00000000000E+00  0.00000000000E+00  0.13074226258E+04  0.13074226258E+04  0.00000000000E+00 0. -1.
         21   -1    0    0  501  502 -0.00000000000E+00 -0.00000000000E+00 -0.35632095050E+02  0.35632095050E+02  0.00000000000E+00 0. -1.
      99926    2    1    2    0    0  0.00000000000E+00 -0.17763568394E-14  0.12717905308E+04  0.13430547209E+04  0.43167676460E+03 0.  0.
      99925    2    3    3    0    0  0.29108883719E+02 -0.11102160532E+02  0.10798309749E+04  0.11118263397E+04  0.26296823035E+03 0.  0.
         25    1    4    4    0    0  0.22185371057E+02 -0.29326275411E+02  0.68152319930E+03  0.69388298754E+03  0.12509000000E+03 0.  0.
         25    1    3    3    0    0 -0.29108883719E+02  0.11102160532E+02  0.19195955589E+03  0.23122838121E+03  0.12509000000E+03 0.  0.
         25    1    4    4    0    0  0.69235126610E+01  0.18224114878E+02  0.39830777559E+03  0.41794335212E+03  0.12509000000E+03 0.  0.
<mgrwt>
<rscale>  2 0.43167676E+03</rscale>
<asrwt>0</asrwt>
<pdfrwt beam="1">  1       21 0.19226800E+00 0.43167676E+03</pdfrwt>
<pdfrwt beam="2">  1       21 0.52400148E-02 0.43167676E+03</pdfrwt>
<totfact> 0.33577487E+04</totfact>
</mgrwt>
</event>
<event>
 7    0  0.4712189E-002  0.4556134E+03  0.7546771E-02  0.1026061E+00
         21   -1    0    0  502  501  0.00000000000E+00  0.00000000000E+00  0.88792630258E+02  0.88792630258E+02  0.00000000000E+00 0. -1.
         21   -1    0    0  501  502 -0.00000000000E+00 -0.00000000000E+00 -0.58446177277E+03  0.58446177277E+03  0.00000000000E+00 0. -1.
      99926    2    1    2    0    0 -0.35527136788E-14  0.00000000000E+00 -0.49566914251E+03  0.67325440303E+03  0.45561342425E+03 0.  0.
      99925    2    3    3    0    0 -0.21513099143E+02 -0.44396740833E+02 -0.46319126892E+03  0.53492073249E+03  0.26298318276E+03 0.  0.
         25    1    4    4    0    0 -0.38838658400E+02  0.56897606933E+01 -0.20941342198E+03  0.24706740815E+03  0.12509000000E+03 0.  0.
         25    1    4    4    0    0  0.17325559258E+02 -0.50086501527E+02 -0.25377784694E+03  0.28785332434E+03  0.12509000000E+03 0.  0.
         25    1    3    3    0    0  0.21513099143E+02  0.44396740833E+02 -0.32477873593E+02  0.13833367054E+03  0.12509000000E+03 0.  0.
<mgrwt>
<rscale>  2 0.45561342E+03</rscale>
<asrwt>0</asrwt>
<pdfrwt beam="1">  1       21 0.13057740E-01 0.45561342E+03</pdfrwt>
<pdfrwt beam="2">  1       21 0.85950261E-01 0.45561342E+03</pdfrwt>
<totfact> 0.54117405E+04</totfact>
</mgrwt>
</event>
<event>
 7    0  0.4712189E-002  0.4742702E+03  0.7546771E-02  0.1020722E+00
         21   -1    0    0  502  501  0.00000000000E+00  0.00000000000E+00  0.88199510426E+03  0.88199510426E+03  0.00000000000E+00 0. -1.
         21   -1    0    0  501  502 -0.00000000000E+00 -0.00000000000E+00 -0.63756657387E+02  0.63756657387E+02  0.00000000000E+00 0. -1.
      99926    2    1    2    0    0  0.00000000000E+00  0.00000000000E+00  0.81823844687E+03  0.94575176165E+03  0.47427021698E+03 0.  0.
      99925    2    3    3    0    0  0.12067964305E+03 -0.20583754516E+02  0.59586980947E+03  0.66276309369E+03  0.26307189381E+03 0.  0.
         25    1    3    3    0    0 -0.12067964305E+03  0.20583754516E+02  0.22236863740E+03  0.28298866796E+03  0.12509000000E+03 0.  0.
         25    1    4    4    0    0  0.28591330275E+02  0.17169941686E+02  0.29201349884E+03  0.31942395444E+03  0.12509000000E+03 0.  0.
         25    1    4    4    0    0  0.92088312773E+02 -0.37753696202E+02  0.30385631063E+03  0.34333913925E+03  0.12509000000E+03 0.  0.
<mgrwt>
<rscale>  2 0.47427022E+03</rscale>
<asrwt>0</asrwt>
<pdfrwt beam="1">  1       21 0.12970516E+00 0.47427022E+03</pdfrwt>
<pdfrwt beam="2">  1       21 0.93759795E-02 0.47427022E+03</pdfrwt>
<totfact> 0.35630413E+04</totfact>
</mgrwt>
</event>
<event>
 7    0  0.4712189E-002  0.4535268E+03  0.7546771E-02  0.1026676E+00
         21   -1    0    0  502  501  0.00000000000E+00  0.00000000000E+00  0.28371625304E+02  0.28371625304E+02  0.00000000000E+00 0. -1.
         21   -1    0    0  501  502 -0.00000000000E+00 -0.00000000000E+00 -0.18124319108E+04  0.18124319108E+04  0.00000000000E+00 0. -1.
      99926    2    1    2    0    0  0.00000000000E+00  0.00000000000E+00 -0.17840602855E+04  0.18408035361E+04  0.45352679772E+03 0.  0.
      99925    2    3    3    0    0 -0.11143693733E+03  0.45178227393E+01 -0.10951840769E+04  0.11318348904E+04  0.26302747975E+03 0.  0.
         25    1    3    3    0    0  0.11143693733E+03 -0.45178227393E+01 -0.68887620858E+03  0.70896864569E+03  0.12509000000E+03 0.  0.
         25    1    4    4    0    0 -0.97568875460E+02  0.63112286598E+01 -0.65877957004E+03  0.67764116395E+03  0.12509000000E+03 0.  0.
         25    1    4    4    0    0 -0.13868061873E+02 -0.17934059206E+01 -0.43640450687E+03  0.45419372647E+03  0.12509000000E+03 0.  0.
<mgrwt>
<rscale>  2 0.45352680E+03</rscale>
<asrwt>0</asrwt>
<pdfrwt beam="1">  1       21 0.41722982E-02 0.45352680E+03</pdfrwt>
<pdfrwt beam="2">  1       21 0.26653408E+00 0.45352680E+03</pdfrwt>
<totfact> 0.16677923E+04</totfact>
</mgrwt>
</event>
<event>
 7    0  0.4712189E-002  0.4421355E+03  0.7546771E-02  0.1030094E+00
         21   -1    0    0  502  501  0.00000000000E+00  0.00000000000E+00  0.87976265438E+03  0.87976265438E+03  0.00000000000E+00 0.  1.
         21   -1    0    0  501  502 -0.00000000000E+00 -0.00000000000E+00 -0.55550156145E+02  0.55550156145E+02  0.00000000000E+00 0.  1.
      99926    2    1    2    0    0  0.14210854715E-13  0.00000000000E+00  0.82421249824E+03  0.93531281052E+03  0.44213551235E+03 0.  0.
      99925    2    3    3    0    0 -0.69692729547E+02  0.24719329132E+02  0.66961823956E+03  0.72314538913E+03  0.26283558604E+03 0.  0.
         25    1    4    4    0    0 -0.73687239496E+02  0.21856270956E+02  0.39261407075E+03  0.41916681941E+03  0.12509000000E+03 0.  0.
         25    1    3    3    0    0  0.69692729547E+02 -0.24719329132E+02  0.15459425867E+03  0.21216742139E+03  0.12509000000E+03 0.  0.
         25    1    4    4    0    0  0.39945099500E+01  0.28630581762E+01  0.27700416881E+03  0.30397856972E+03  0.12509000000E+03 0.  0.
<mgrwt>
<rscale>  2 0.44213551E+03</rscale>
<asrwt>0</asrwt>
<pdfrwt beam="1">  1       21 0.12937685E+00 0.44213551E+03</pdfrwt>
<pdfrwt beam="2">  1       21 0.81691412E-02 0.44213551E+03</pdfrwt>
<totfact> 0.46219258E+04</totfact>
</mgrwt>
</event>
<event>
 7    0  0.4712189E-002  0.4574926E+03  0.7546771E-02  0.1025511E+00
         21   -1    0    0  502  501  0.00000000000E+00  0.00000000000E+00  0.95276469785E+02  0.95276469785E+02  0.00000000000E+00 0.  1.
         21   -1    0    0  501  502 -0.00000000000E+00 -0.00000000000E+00 -0.54918973447E+03  0.54918973447E+03  0.00000000000E+00 0.  1.
      99926    2    1    2    0    0  0.88817841970E-15 -0.71054273576E-14 -0.45391326468E+03  0.64446620425E+03  0.45749255357E+03 0.  0.
      99925    2    3    3    0    0 -0.66482426796E+01 -0.39604118900E+02 -0.13224496798E+03  0.29700298811E+03  0.26288658777E+03 0.  0.
         25    1    3    3    0    0  0.66482426796E+01  0.39604118900E+02 -0.32166829671E+03  0.34746321614E+03  0.12509000000E+03 0.  0.
         25    1    4    4    0    0  0.36049161273E+02 -0.16291993552E+02 -0.74685406047E+02  0.15096486034E+03  0.12509000000E+03 0.  0.
         25    1    4    4    0    0 -0.42697403952E+02 -0.23312125349E+02 -0.57559561928E+02  0.14603812777E+03  0.12509000000E+03 0.  0.
<mgrwt>
<rscale>  2 0.45749255E+03</rscale>
<asrwt>0</asrwt>
<pdfrwt beam="1">  1       21 0.14011246E-01 0.45749255E+03</pdfrwt>
<pdfrwt beam="2">  1       21 0.80763196E-01 0.45749255E+03</pdfrwt>
<totfact> 0.54933019E+04</totfact>
</mgrwt>
</event>
<event>
 7    0  0.4712189E-002  0.4408074E+03  0.7546771E-02  0.1030499E+00
         21   -1    0    0  502  501  0.00000000000E+00  0.00000000000E+00  0.11117147877E+04  0.11117147877E+04  0.00000000000E+00 0. -1.
         21   -1    0    0  501  502 -0.00000000000E+00 -0.00000000000E+00 -0.43696262763E+02  0.43696262763E+02  0.00000000000E+00 0. -1.
      99926    2    1    2    0    0  0.35527136788E-14  0.00000000000E+00  0.10680185250E+04  0.11554110505E+04  0.44080735693E+03 0.  0.
      99925    2    3    3    0    0 -0.24164302550E+02  0.52478193738E+02  0.89281044128E+03  0.93251364130E+03  0.26293218291E+03 0.  0.
         25    1    4    4    0    0  0.12503335602E+02  0.20073494344E+02  0.32528765153E+03  0.34931195645E+03  0.12509000000E+03 0.  0.
         25    1    3    3    0    0  0.24164302550E+02 -0.52478193738E+02  0.17520808367E+03  0.22289740918E+03  0.12509000000E+03 0.  0.
         25    1    4    4    0    0 -0.36667638153E+02  0.32404699394E+02  0.56752278975E+03  0.58320168485E+03  0.12509000000E+03 0.  0.
<mgrwt>
<rscale>  2 0.44080736E+03</rscale>
<asrwt>0</asrwt>
<pdfrwt beam="1">  1       21 0.16348745E+00 0.44080736E+03</pdfrwt>
<pdfrwt beam="2">  1       21 0.64259217E-02 0.44080736E+03</pdfrwt>
<totfact> 0.37591087E+04</totfact>
</mgrwt>
</event>
<event>
 7    0  0.4712189E-002  0.4519447E+03  0.7546771E-02  0.1027144E+00
         21   -1    0    0  502  501  0.00000000000E+00  0.00000000000E+00  0.21137311009E+02  0.21137311009E+02  0.00000000000E+00 0.  1.
         21   -1    0    0  501  502 -0.00000000000E+00 -0.00000000000E+00 -0.24157994586E+04  0.24157994586E+04  0.00000000000E+00 0.  1.
      99926    2    1    2    0    0  0.00000000000E+00  0.00000000000E+00 -0.23946621475E+04  0.24369367696E+04  0.45194470676E+03 0.  0.
      99925    2    3    3    0    0  0.57022516799E+02  0.88314692548E+02 -0.16893421099E+04  0.17129375182E+04  0.26311048004E+03 0.  0.
         25    1    4    4    0    0  0.46759367083E+02  0.14842368516E+02 -0.94683567830E+03  0.95632214453E+03  0.12509000000E+03 0.  0.
         25    1    4    4    0    0  0.10263149715E+02  0.73472324032E+02 -0.74250643158E+03  0.75661537367E+03  0.12509000000E+03 0.  0.
         25    1    3    3    0    0 -0.57022516799E+02 -0.88314692548E+02 -0.70532003766E+03  0.72399925136E+03  0.12509000000E+03 0.  0.
<mgrwt>
<rscale>  2 0.45194471E+03</rscale>
<asrwt>0</asrwt>
<pdfrwt beam="1">  1       21 0.31084298E-02 0.45194471E+03</pdfrwt>
<pdfrwt beam="2">  1       21 0.35526443E+00 0.45194471E+03</pdfrwt>
<totfact> 0.79867788E+03</totfact>
</mgrwt>
</event>
<event>
 7    0  0.4712189E-002  0.4548716E+03  0.7546771E-02  0.1026279E+00
         21   -1    0    0  502  501  0.00000000000E+00  0.00000000000E+00  0.19581388301E+02  0.19581388301E+02  0.00000000000E+00 0.  1.
         21   -1    0    0  501  502 -0.00000000000E+00 -0.00000000000E+00 -0.26416433839E+04  0.26416433839E+04  0.00000000000E+00 0.  1.
      99926    2    1    2    0    0  0.00000000000E+00 -0.14210854715E-13 -0.26220619956E+04  0.26612247722E+04  0.45487160761E+03 0.  0.
      99925    2    3    3    0    0 -0.14979618498E+02 -0.11203279270E+03 -0.16180134281E+04  0.16431202738E+04  0.26287077650E+03 0.  0.
         25    1    4    4    0    0  0.28004021482E+01 -0.86702491156E+02 -0.10271143396E+04  0.10383335394E+04  0.12509000000E+03 0.  0.
         25    1    3    3    0    0  0.14979618498E+02  0.11203279270E+03 -0.10040485675E+04  0.10181044983E+04  0.12509000000E+03 0.  0.
         25    1    4    4    0    0 -0.17780020647E+02 -0.25330301546E+02 -0.59089908850E+03  0.60478673448E+03  0.12509000000E+03 0.  0.
<mgrwt>
<rscale>  2 0.45487161E+03</rscale>
<asrwt>0</asrwt>
<pdfrwt beam="1">  1       21 0.28796173E-02 0.45487161E+03</pdfrwt>
<pdfrwt beam="2">  1       21 0.38847678E+00 0.45487161E+03</pdfrwt>
<totfact> 0.56245788E+03</totfact>
</mgrwt>
</event>
<event>
 7    0  0.4712189E-002  0.4499844E+03  0.7546771E-02  0.1027727E+00
         21   -1    0    0  502  501  0.00000000000E+00  0.00000000000E+00  0.17794033012E+03  0.17794033012E+03  0.00000000000E+00 0.  1.
         21   -1    0    0  501  502 -0.00000000000E+00 -0.00000000000E+00 -0.28448580666E+03  0.28448580666E+03  0.00000000000E+00 0.  1.
      99926    2    1    2    0    0  0.00000000000E+00  0.00000000000E+00 -0.10654547654E+03  0.46242613679E+03  0.44998443686E+03 0.  0.
      99925    2    3    3    0    0 -0.45011396436E+02 -0.98535501978E+02 -0.68711997257E+02  0.29267882101E+03  0.26306706890E+03 0.  0.
         25    1    3    3    0    0  0.45011396436E+02  0.98535501978E+02 -0.37833479280E+02  0.16974731578E+03  0.12509000000E+03 0.  0.
         25    1    4    4    0    0  0.17723795686E+02 -0.51646000211E+02 -0.40999556348E+02  0.14251285553E+03  0.12509000000E+03 0.  0.
         25    1    4    4    0    0 -0.62735192122E+02 -0.46889501767E+02 -0.27712440909E+02  0.15016596548E+03  0.12509000000E+03 0.  0.
<mgrwt>
<rscale>  2 0.44998444E+03</rscale>
<asrwt>0</asrwt>
<pdfrwt beam="1">  1       21 0.26167696E-01 0.44998444E+03</pdfrwt>
<pdfrwt beam="2">  1       21 0.41836148E-01 0.44998444E+03</pdfrwt>
<totfact> 0.70777600E+04</totfact>
</mgrwt>
</event>
<event>
 7    0  0.4712189E-002  0.4401081E+03  0.7546771E-02  0.1030714E+00
         21   -1    0    0  502  501  0.00000000000E+00  0.00000000000E+00  0.13800503934E+03  0.13800503934E+03  0.00000000000E+00 0.  1.
         21   -1    0    0  501  502 -0.00000000000E+00 -0.00000000000E+00 -0.35088417357E+03  0.35088417357E+03  0.00000000000E+00 0.  1.
      99926    2    1    2    0    0  0.00000000000E+00  0.00000000000E+00 -0.21287913423E+03  0.48888921291E+03  0.44010809662E+03 0.  0.
      99925    2    3    3    0    0 -0.47009181695E+02 -0.59517353540E+02 -0.65927704363E+02  0.28153828001E+03  0.26299270403E+03 0.  0.
         25    1    3    3    0    0  0.47009181695E+02  0.59517353540E+02 -0.14695142986E+03  0.20735093290E+03  0.12509000000E+03 0.  0.
         25    1    4    4    0    0  0.11307553900E+02 -0.34982250414E+02 -0.53078805648E+02  0.14077104222E+03  0.12509000000E+03 0.  0.
         25    1    4    4    0    0 -0.58316735595E+02 -0.24535103126E+02 -0.12848898716E+02  0.14076723779E+03  0.12509000000E+03 0.  0.
<mgrwt>
<rscale>  2 0.44010810E+03</rscale>
<asrwt>0</asrwt>
<pdfrwt beam="1">  1       21 0.20294859E-01 0.44010810E+03</pdfrwt>
<pdfrwt beam="2">  1       21 0.51600613E-01 0.44010810E+03</pdfrwt>
<totfact> 0.74481583E+04</totfact>
</mgrwt>
</event>
<event>
 7    0  0.4712189E-002  0.4511802E+03  0.7546771E-02  0.1027371E+00
         21   -1    0    0  502  501  0.00000000000E+00  0.00000000000E+00  0.95047592911E+03  0.95047592911E+03  0.00000000000E+00 0.  1.
         21   -1    0    0  501  502 -0.00000000000E+00 -0.00000000000E+00 -0.53542529831E+02  0.53542529831E+02  0.00000000000E+00 0.  1.
      99926    2    1    2    0    0  0.00000000000E+00  0.00000000000E+00  0.89693339928E+03  0.10040184589E+04  0.45118016707E+03 0.  0.
      99925    2    3    3    0    0  0.65384759889E+02  0.22179647043E+02  0.37672442510E+03  0.46454465189E+03  0.26289415659E+03 0.  0.
         25    1    4    4    0    0  0.37197867501E+02 -0.12168547288E+01  0.12318921713E+03  0.17946658017E+03  0.12509000000E+03 0.  0.
         25    1    3    3    0    0 -0.65384759889E+02 -0.22179647043E+02  0.52020897419E+03  0.53947380705E+03  0.12509000000E+03 0.  0.
         25    1    4    4    0    0  0.28186892389E+02  0.23396501772E+02  0.25353520797E+03  0.28507807172E+03  0.12509000000E+03 0.  0.
<mgrwt>
<rscale>  2 0.45118017E+03</rscale>
<asrwt>0</asrwt>
<pdfrwt beam="1">  1       21 0.13977586E+00 0.45118017E+03</pdfrwt>
<pdfrwt beam="2">  1       21 0.78739020E-02 0.45118017E+03</pdfrwt>
<totfact> 0.40196617E+04</totfact>
</mgrwt>
</event>
<event>
 7    0  0.4712189E-002  0.4594760E+03  0.7546771E-02  0.1024933E+00
         21   -1    0    0  502  501  0.00000000000E+00  0.00000000000E+00  0.79531416537E+02  0.79531416537E+02  0.00000000000E+00 0.  1.
         21   -1    0    0  501  502 -0.00000000000E+00 -0.00000000000E+00 -0.66363156299E+03  0.66363156299E+03  0.00000000000E+00 0.  1.
      99926    2    1    2    0    0  0.00000000000E+00  0.00000000000E+00 -0.58410014645E+03  0.74316297953E+03  0.45947604187E+03 0.  0.
      99925    2    3    3    0    0  0.69239524093E+02  0.13390495640E+02 -0.51773079745E+03  0.58496748131E+03  0.26299878039E+03 0.  0.
         25    1    4    4    0    0  0.29606809144E+02  0.29156224817E+02 -0.18680626010E+03  0.22862794122E+03  0.12509000000E+03 0.  0.
         25    1    3    3    0    0 -0.69239524093E+02 -0.13390495640E+02 -0.66369349005E+02  0.15819549822E+03  0.12509000000E+03 0.  0.
         25    1    4    4    0    0  0.39632714949E+02 -0.15765729177E+02 -0.33092453734E+03  0.35633954008E+03  0.12509000000E+03 0.  0.
<mgrwt>
<rscale>  2 0.45947604E+03</rscale>
<asrwt>0</asrwt>
<pdfrwt beam="1">  1       21 0.11695797E-01 0.45947604E+03</pdfrwt>
<pdfrwt beam="2">  1       21 0.97592871E-01 0.45947604E+03</pdfrwt>
<totfact> 0.48878673E+04</totfact>
</mgrwt>
</event>
<event>
 7    0  0.4712189E-002  0.4506675E+03  0.7546771E-02  0.1027523E+00
         21   -1    0    0  502  501  0.00000000000E+00  0.00000000000E+00  0.51234548418E+02  0.51234548418E+02  0.00000000000E+00 0.  1.
         21   -1    0    0  501  502 -0.00000000000E+00 -0.00000000000E+00 -0.99103623799E+03  0.99103623799E+03  0.00000000000E+00 0.  1.
      99926    2    1    2    0    0 -0.35527136788E-14 -0.44408920985E-15 -0.93980168957E+03  0.10422707864E+04  0.45066747883E+03 0.  0.
      99925    2    3    3    0    0  0.18150771602E+02 -0.33694068337E+01 -0.34478054483E+03  0.43396290860E+03  0.26288662677E+03 0.  0.
         25    1    4    4    0    0  0.41835652168E+02  0.16846031033E+02 -0.15075850596E+03  0.20102150575E+03  0.12509000000E+03 0.  0.
         25    1    3    3    0    0 -0.18150771602E+02  0.33694068337E+01 -0.59502114474E+03  0.60830787781E+03  0.12509000000E+03 0.  0.
         25    1    4    4    0    0 -0.23684880566E+02 -0.20215437866E+02 -0.19402203887E+03  0.23294140285E+03  0.12509000000E+03 0.  0.
<mgrwt>
<rscale>  2 0.45066748E+03</rscale>
<asrwt>0</asrwt>
<pdfrwt beam="1">  1       21 0.75344925E-02 0.45066748E+03</pdfrwt>
<pdfrwt beam="2">  1       21 0.14574062E+00 0.45066748E+03</pdfrwt>
<totfact> 0.38859946E+04</totfact>
</mgrwt>
</event>
<event>
 7    0  0.4712189E-002  0.4511045E+03  0.7546771E-02  0.1027393E+00
         21   -1    0    0  502  501  0.00000000000E+00  0.00000000000E+00  0.13602138046E+03  0.13602138046E+03  0.00000000000E+00 0.  1.
         21   -1    0    0  501  502 -0.00000000000E+00 -0.00000000000E+00 -0.37401344637E+03  0.37401344637E+03  0.00000000000E+00 0.  1.
      99926    2    1    2    0    0  0.00000000000E+00  0.00000000000E+00 -0.23799206591E+03  0.51003482684E+03  0.45110453462E+03 0.  0.
      99925    2    3    3    0    0 -0.36458928156E+02  0.14088510462E+02 -0.26590785645E+03  0.37604027832E+03  0.26300487301E+03 0.  0.
         25    1    4    4    0    0 -0.23112772630E+02 -0.15646198061E+02 -0.17947488068E+03  0.22053966688E+03  0.12509000000E+03 0.  0.
         25    1    4    4    0    0 -0.13346155526E+02  0.29734708522E+02 -0.86432975773E+02  0.15550061144E+03  0.12509000000E+03 0.  0.
         25    1    3    3    0    0  0.36458928156E+02 -0.14088510462E+02  0.27915790546E+02  0.13399454851E+03  0.12509000000E+03 0.  0.
<mgrwt>
<rscale>  2 0.45110453E+03</rscale>
<asrwt>0</asrwt>
<pdfrwt beam="1">  1       21 0.20003144E-01 0.45110453E+03</pdfrwt>
<pdfrwt beam="2">  1       21 0.55001977E-01 0.45110453E+03</pdfrwt>
<totfact> 0.66606627E+04</totfact>
</mgrwt>
</event>
<event>
 7    0  0.4712189E-002  0.4479815E+03  0.7546771E-02  0.1028326E+00
         21   -1    0    0  502  501  0.00000000000E+00  0.00000000000E+00  0.10962756077E+03  0.10962756077E+03  0.00000000000E+00 0.  1.
         21   -1    0    0  501  502 -0.00000000000E+00 -0.00000000000E+00 -0.45765731746E+03  0.45765731746E+03  0.00000000000E+00 0.  1.
      99926    2    1    2    0    0  0.00000000000E+00  0.00000000000E+00 -0.34802975669E+03  0.56728487823E+03  0.44798149685E+03 0.  0.
      99925    2    3    3    0    0  0.75499047777E+02  0.62144003921E+02 -0.16731208945E+03  0.32672643046E+03  0.26304912402E+03 0.  0.
         25    1    4    4    0    0  0.24032671572E+02  0.69103100546E+02 -0.93754148640E+02  0.17259825114E+03  0.12509000000E+03 0.  0.
         25    1    4    4    0    0  0.51466376205E+02 -0.69590966251E+01 -0.73557940805E+02  0.15412817932E+03  0.12509000000E+03 0.  0.
         25    1    3    3    0    0 -0.75499047777E+02 -0.62144003921E+02 -0.18071766725E+03  0.24055844777E+03  0.12509000000E+03 0.  0.
<mgrwt>
<rscale>  2 0.44798150E+03</rscale>
<asrwt>0</asrwt>
<pdfrwt beam="1">  1       21 0.16121700E-01 0.44798150E+03</pdfrwt>
<pdfrwt beam="2">  1       21 0.67302546E-01 0.44798150E+03</pdfrwt>
<totfact> 0.64230041E+04</totfact>
</mgrwt>
</event>
<event>
 7    0  0.4712189E-002  0.4591460E+03  0.7546771E-02  0.1025029E+00
         21   -1    0    0  502  501  0.00000000000E+00  0.00000000000E+00  0.16022936884E+03  0.16022936884E+03  0.00000000000E+00 0.  1.
         21   -1    0    0  501  502 -0.00000000000E+00 -0.00000000000E+00 -0.32892691381E+03  0.32892691381E+03  0.00000000000E+00 0.  1.
      99926    2    1    2    0    0  0.17763568394E-14  0.00000000000E+00 -0.16869754497E+03  0.48915628265E+03  0.45914595411E+03 0.  0.
      99925    2    3    3    0    0 -0.14594668230E+02 -0.11588472893E+03 -0.97716810851E+02  0.30387798534E+03  0.26296573942E+03 0.  0.
         25    1    4    4    0    0 -0.38884203782E+02 -0.32037595098E+02 -0.53284669814E+02  0.14500052738E+03  0.12509000000E+03 0.  0.
         25    1    4    4    0    0  0.24289535553E+02 -0.83847133831E+02 -0.44432141037E+02  0.15887745795E+03  0.12509000000E+03 0.  0.
         25    1    3    3    0    0  0.14594668230E+02  0.11588472893E+03 -0.70980734116E+02  0.18527829731E+03  0.12509000000E+03 0.  0.
<mgrwt>
<rscale>  2 0.45914595E+03</rscale>
<asrwt>0</asrwt>
<pdfrwt beam="1">  1       21 0.23563142E-01 0.45914595E+03</pdfrwt>
<pdfrwt beam="2">  1       21 0.48371605E-01 0.45914595E+03</pdfrwt>
<totfact> 0.63909898E+04</totfact>
</mgrwt>
</event>
<event>
 7    0  0.4712189E-002  0.4481323E+03  0.7546771E-02  0.1028280E+00
         21   -1    0    0  502  501  0.00000000000E+00  0.00000000000E+00  0.89142007356E+03  0.89142007356E+03  0.00000000000E+00 0.  1.
         21   -1    0    0  501  502 -0.00000000000E+00 -0.00000000000E+00 -0.56320971772E+02  0.56320971772E+02  0.00000000000E+00 0.  1.
      99926    2    1    2    0    0  0.00000000000E+00  0.71054273576E-14  0.83509910179E+03  0.94774104534E+03  0.44813232331E+03 0.  0.
      99925    2    3    3    0    0 -0.75893784789E+02  0.53457299649E+02  0.63975058929E+03  0.69788889127E+03  0.26296489994E+03 0.  0.
         25    1    4    4    0    0 -0.29051773101E+01  0.41340520185E+01  0.26379764377E+03  0.29199697841E+03  0.12509000000E+03 0.  0.
         25    1    4    4    0    0 -0.72988607479E+02  0.49323247631E+02  0.37595294552E+03  0.40589191286E+03  0.12509000000E+03 0.  0.
         25    1    3    3    0    0  0.75893784789E+02 -0.53457299649E+02  0.19534851250E+03  0.24985215406E+03  0.12509000000E+03 0.  0.
<mgrwt>
<rscale>  2 0.44813232E+03</rscale>
<asrwt>0</asrwt>
<pdfrwt beam="1">  1       21 0.13109118E+00 0.44813232E+03</pdfrwt>
<pdfrwt beam="2">  1       21 0.82824964E-02 0.44813232E+03</pdfrwt>
<totfact> 0.43523212E+04</totfact>
</mgrwt>
</event>
<event>
 7    0  0.4712189E-002  0.4588329E+03  0.7546771E-02  0.1025120E+00
         21   -1    0    0  502  501  0.00000000000E+00  0.00000000000E+00  0.14747360538E+03  0.14747360538E+03  0.00000000000E+00 0. -1.
         21   -1    0    0  501  502 -0.00000000000E+00 -0.00000000000E+00 -0.35689036627E+03  0.35689036627E+03  0.00000000000E+00 0. -1.
      99926    2    1    2    0    0  0.71054273576E-14  0.00000000000E+00 -0.20941676090E+03  0.50436397165E+03  0.45883290658E+03 0.  0.
      99925    2    3    3    0    0  0.57963154347E+02  0.51672708557E+02 -0.35831121817E+02  0.27674745585E+03  0.26320237263E+03 0.  0.
         25    1    3    3    0    0 -0.57963154347E+02 -0.51672708557E+02 -0.17358563908E+03  0.22761651580E+03  0.12509000000E+03 0.  0.
         25    1    4    4    0    0  0.64444947598E+02  0.36444925589E+02 -0.39101073858E+02  0.15052503429E+03  0.12509000000E+03 0.  0.
         25    1    4    4    0    0 -0.64817932506E+01  0.15227782968E+02  0.32699520404E+01  0.12622242156E+03  0.12509000000E+03 0.  0.
<mgrwt>
<rscale>  2 0.45883291E+03</rscale>
<asrwt>0</asrwt>
<pdfrwt beam="1">  1       21 0.21687295E-01 0.45883291E+03</pdfrwt>
<pdfrwt beam="2">  1       21 0.52483876E-01 0.45883291E+03</pdfrwt>
<totfact> 0.63025684E+04</totfact>
</mgrwt>
</event>
<event>
 7    0  0.4712189E-002  0.4525964E+03  0.7546771E-02  0.1026951E+00
         21   -1    0    0  502  501  0.00000000000E+00  0.00000000000E+00  0.61546851911E+03  0.61546851911E+03  0.00000000000E+00 0. -1.
         21   -1    0    0  501  502 -0.00000000000E+00 -0.00000000000E+00 -0.83206337688E+02  0.83206337688E+02  0.00000000000E+00 0. -1.
      99926    2    1    2    0    0  0.00000000000E+00  0.35527136788E-14  0.53226218142E+03  0.69867485679E+03  0.45259642702E+03 0.  0.
      99925    2    3    3    0    0 -0.10728227848E+03 -0.27844931320E+02  0.33601628405E+03  0.44090599171E+03  0.26307094652E+03 0.  0.
         25    1    3    3    0    0  0.10728227848E+03  0.27844931320E+02  0.19624589736E+03  0.25776886509E+03  0.12509000000E+03 0.  0.
         25    1    4    4    0    0 -0.31630656874E+02 -0.39738956569E+02  0.12547015400E+03  0.18430938871E+03  0.12509000000E+03 0.  0.
         25    1    4    4    0    0 -0.75651621602E+02  0.11894025249E+02  0.21054613006E+03  0.25659660300E+03  0.12509000000E+03 0.  0.
<mgrwt>
<rscale>  2 0.45259643E+03</rscale>
<asrwt>0</asrwt>
<pdfrwt beam="1">  1       21 0.90510074E-01 0.45259643E+03</pdfrwt>
<pdfrwt beam="2">  1       21 0.12236226E-01 0.45259643E+03</pdfrwt>
<totfact> 0.53989008E+04</totfact>
</mgrwt>
</event>
<event>
 7    0  0.4712189E-002  0.4537549E+03  0.7546771E-02  0.1026608E+00
         21   -1    0    0  502  501  0.00000000000E+00  0.00000000000E+00  0.14193786912E+03  0.14193786912E+03  0.00000000000E+00 0. -1.
         21   -1    0    0  501  502 -0.00000000000E+00 -0.00000000000E+00 -0.36264718782E+03  0.36264718782E+03  0.00000000000E+00 0. -1.
      99926    2    1    2    0    0  0.00000000000E+00  0.00000000000E+00 -0.22070931870E+03  0.50458505694E+03  0.45375486370E+03 0.  0.
      99925    2    3    3    0    0 -0.63687744426E+02 -0.87356396820E+02 -0.10641273639E+03  0.30359131156E+03  0.26297670074E+03 0.  0.
         25    1    4    4    0    0 -0.46957467930E+02 -0.27735147109E+02 -0.89027441661E+02  0.16293445200E+03  0.12509000000E+03 0.  0.
         25    1    4    4    0    0 -0.16730276496E+02 -0.59621249711E+02 -0.17385294733E+02  0.14065685956E+03  0.12509000000E+03 0.  0.
         25    1    3    3    0    0  0.63687744426E+02  0.87356396820E+02 -0.11429658230E+03  0.20099374538E+03  0.12509000000E+03 0.  0.
<mgrwt>
<rscale>  2 0.45375486E+03</rscale>
<asrwt>0</asrwt>
<pdfrwt beam="1">  1       21 0.20873216E-01 0.45375486E+03</pdfrwt>
<pdfrwt beam="2">  1       21 0.53330468E-01 0.45375486E+03</pdfrwt>
<totfact> 0.65595619E+04</totfact>
</mgrwt>
</event>
<event>
 7    0  0.4712189E-002  0.3911584E+03  0.7546771E-02  0.1046885E+00
         21   -1    0    0  502  501  0.00000000000E+00  0.00000000000E+00  0.50586605166E+02  0.50586605166E+02  0.00000000000E+00 0.  1.
         21   -1    0    0  501  502 -0.00000000000E+00 -0.00000000000E+00 -0.75615333908E+03  0.75615333908E+03  0.00000000000E+00 0.  1.
      99926    2    1    2    0    0  0.00000000000E+00 -0.17763568394E-14 -0.70556673392E+03  0.80673994425E+03  0.39115843547E+03 0.  0.
      99925    2    3    3    0    0 -0.18033498197E+02 -0.86128424337E+01 -0.49649474807E+03  0.56228546694E+03  0.26317014146E+03 0.  0.
         25    1    4    4    0    0 -0.52360095484E+01  0.34016012490E+02 -0.21631458779E+03  0.25223801041E+03  0.12509000000E+03 0.  0.
         25    1    3    3    0    0  0.18033498197E+02  0.86128424337E+01 -0.20907198585E+03  0.24445447731E+03  0.12509000000E+03 0.  0.
         25    1    4    4    0    0 -0.12797488649E+02 -0.42628854923E+02 -0.28018016028E+03  0.31004745653E+03  0.12509000000E+03 0.  0.
<mgrwt>
<rscale>  2 0.39115844E+03</rscale>
<asrwt>0</asrwt>
<pdfrwt beam="1">  1       21 0.74392064E-02 0.39115844E+03</pdfrwt>
<pdfrwt beam="2">  1       21 0.11119902E+00 0.39115844E+03</pdfrwt>
<totfact> 0.81028476E+04</totfact>
</mgrwt>
</event>
<event>
 7    0  0.4712189E-002  0.4612680E+03  0.7546771E-02  0.1024414E+00
         21   -1    0    0  502  501  0.00000000000E+00  0.00000000000E+00  0.39767599122E+03  0.39767599122E+03  0.00000000000E+00 0.  1.
         21   -1    0    0  501  502 -0.00000000000E+00 -0.00000000000E+00 -0.13375726451E+03  0.13375726451E+03  0.00000000000E+00 0.  1.
      99926    2    1    2    0    0  0.00000000000E+00  0.00000000000E+00  0.26391872671E+03  0.53143325573E+03  0.46126804679E+03 0.  0.
      99925    2    3    3    0    0  0.10253252933E+02  0.72557620852E+02  0.27307433333E+03  0.38617117957E+03  0.26303773658E+03 0.  0.
         25    1    4    4    0    0  0.16898575330E+02  0.48548086137E+02  0.87810761987E+02  0.16124737684E+03  0.12509000000E+03 0.  0.
         25    1    4    4    0    0 -0.66453223963E+01  0.24009534715E+02  0.18526357134E+03  0.22492380273E+03  0.12509000000E+03 0.  0.
         25    1    3    3    0    0 -0.10253252933E+02 -0.72557620852E+02 -0.91556066246E+01  0.14526207617E+03  0.12509000000E+03 0.  0.
<mgrwt>
<rscale>  2 0.46126805E+03</rscale>
<asrwt>0</asrwt>
<pdfrwt beam="1">  1       21 0.58481763E-01 0.46126805E+03</pdfrwt>
<pdfrwt beam="2">  1       21 0.19670186E-01 0.46126805E+03</pdfrwt>
<totfact> 0.60069193E+04</totfact>
</mgrwt>
</event>
<event>
 7    0  0.4712189E-002  0.4543373E+03  0.7546771E-02  0.1026436E+00
         21   -1    0    0  502  501  0.00000000000E+00  0.00000000000E+00  0.13975917237E+03  0.13975917237E+03  0.00000000000E+00 0.  1.
         21   -1    0    0  501  502 -0.00000000000E+00 -0.00000000000E+00 -0.36924655541E+03  0.36924655541E+03  0.00000000000E+00 0.  1.
      99926    2    1    2    0    0  0.00000000000E+00  0.71054273576E-14 -0.22948738304E+03  0.50900572778E+03  0.45433728873E+03 0.  0.
      99925    2    3    3    0    0  0.60764776328E+02  0.37691909051E+02 -0.24166006056E+03  0.36440724843E+03  0.26321097962E+03 0.  0.
         25    1    4    4    0    0  0.24918146585E+02 -0.97601583936E+01 -0.15522533020E+03  0.20114319764E+03  0.12509000000E+03 0.  0.
         25    1    4    4    0    0  0.35846629744E+02  0.47452067445E+02 -0.86434730357E+02  0.16326405079E+03  0.12509000000E+03 0.  0.
         25    1    3    3    0    0 -0.60764776328E+02 -0.37691909051E+02  0.12172677519E+02  0.14459847934E+03  0.12509000000E+03 0.  0.
<mgrwt>
<rscale>  2 0.45433729E+03</rscale>
<asrwt>0</asrwt>
<pdfrwt beam="1">  1       21 0.20552820E-01 0.45433729E+03</pdfrwt>
<pdfrwt beam="2">  1       21 0.54300964E-01 0.45433729E+03</pdfrwt>
<totfact> 0.64983613E+04</totfact>
</mgrwt>
</event>
<event>
 7    0  0.4712189E-002  0.4530914E+03  0.7546771E-02  0.1026804E+00
         21   -1    0    0  502  501  0.00000000000E+00  0.00000000000E+00  0.61098847480E+03  0.61098847480E+03  0.00000000000E+00 0. -1.
         21   -1    0    0  501  502 -0.00000000000E+00 -0.00000000000E+00 -0.83999863343E+02  0.83999863343E+02  0.00000000000E+00 0. -1.
      99926    2    1    2    0    0  0.28865798640E-14  0.35527136788E-14  0.52698861145E+03  0.69498833814E+03  0.45309137439E+03 0.  0.
      99925    2    3    3    0    0  0.12121867252E+01 -0.22418922961E+02  0.49954027270E+03  0.56496912070E+03  0.26295540647E+03 0.  0.
         25    1    4    4    0    0  0.22472898146E+02  0.11626148770E+02  0.30055709984E+03  0.32653066755E+03  0.12509000000E+03 0.  0.
         25    1    4    4    0    0 -0.21260711421E+02 -0.34045071731E+02  0.19898317285E+03  0.23843845315E+03  0.12509000000E+03 0.  0.
         25    1    3    3    0    0 -0.12121867252E+01  0.22418922961E+02  0.27448338756E+02  0.13001921744E+03  0.12509000000E+03 0.  0.
<mgrwt>
<rscale>  2 0.45309137E+03</rscale>
<asrwt>0</asrwt>
<pdfrwt beam="1">  1       21 0.89851244E-01 0.45309137E+03</pdfrwt>
<pdfrwt beam="2">  1       21 0.12352921E-01 0.45309137E+03</pdfrwt>
<totfact> 0.53982323E+04</totfact>
</mgrwt>
</event>
<event>
 7    0  0.4712189E-002  0.4371519E+03  0.7546771E-02  0.1031624E+00
         21   -1    0    0  502  501  0.00000000000E+00  0.00000000000E+00  0.90148828321E+03  0.90148828321E+03  0.00000000000E+00 0.  1.
         21   -1    0    0  501  502 -0.00000000000E+00 -0.00000000000E+00 -0.52996203189E+02  0.52996203189E+02  0.00000000000E+00 0.  1.
      99926    2    1    2    0    0  0.00000000000E+00 -0.17763568394E-14  0.84849208002E+03  0.95448448640E+03  0.43715194717E+03 0.  0.
      99925    2    3    3    0    0  0.91188379986E+02 -0.85018054224E+01  0.48367207923E+03  0.55808980629E+03  0.26294096356E+03 0.  0.
         25    1    3    3    0    0 -0.91188379986E+02  0.85018054224E+01  0.36482000080E+03  0.39639468011E+03  0.12509000000E+03 0.  0.
         25    1    4    4    0    0  0.58717074740E+01  0.55027442035E+01  0.19491511931E+03  0.23174159959E+03  0.12509000000E+03 0.  0.
         25    1    4    4    0    0  0.85316672512E+02 -0.14004549626E+02  0.28875695991E+03  0.32634820670E+03  0.12509000000E+03 0.  0.
<mgrwt>
<rscale>  2 0.43715195E+03</rscale>
<asrwt>0</asrwt>
<pdfrwt beam="1">  1       21 0.13257180E+00 0.43715195E+03</pdfrwt>
<pdfrwt beam="2">  1       21 0.77935599E-02 0.43715195E+03</pdfrwt>
<totfact> 0.47212230E+04</totfact>
</mgrwt>
</event>
<event>
 7    0  0.4712189E-002  0.4548577E+03  0.7546771E-02  0.1026283E+00
         21   -1    0    0  502  501  0.00000000000E+00  0.00000000000E+00  0.12306921584E+03  0.12306921584E+03  0.00000000000E+00 0.  1.
         21   -1    0    0  501  502 -0.00000000000E+00 -0.00000000000E+00 -0.42028286156E+03  0.42028286156E+03  0.00000000000E+00 0.  1.
      99926    2    1    2    0    0  0.00000000000E+00 -0.71054273576E-14 -0.29721364572E+03  0.54335207740E+03  0.45485770172E+03 0.  0.
      99925    2    3    3    0    0 -0.34726399993E+02  0.49622327083E+02 -0.30109012156E+03  0.40431671008E+03  0.26296091449E+03 0.  0.
         25    1    4    4    0    0 -0.53231368095E+02  0.45390400368E+02 -0.15936606696E+03  0.21433366136E+03  0.12509000000E+03 0.  0.
         25    1    4    4    0    0  0.18504968101E+02  0.42319267148E+01 -0.14172405460E+03  0.18998304872E+03  0.12509000000E+03 0.  0.
         25    1    3    3    0    0  0.34726399993E+02 -0.49622327083E+02  0.38764758408E+01  0.13903536732E+03  0.12509000000E+03 0.  0.
<mgrwt>
<rscale>  2 0.45485770E+03</rscale>
<asrwt>0</asrwt>
<pdfrwt beam="1">  1       21 0.18098414E-01 0.45485770E+03</pdfrwt>
<pdfrwt beam="2">  1       21 0.61806303E-01 0.45485770E+03</pdfrwt>
<totfact> 0.62378172E+04</totfact>
</mgrwt>
</event>
<event>
 7    0  0.4712189E-002  0.4924965E+03  0.7546771E-02  0.1015756E+00
         21   -1    0    0  502  501  0.00000000000E+00  0.00000000000E+00  0.35488301427E+03  0.35488301427E+03  0.00000000000E+00 0. -1.
         21   -1    0    0  501  502 -0.00000000000E+00 -0.00000000000E+00 -0.17086813029E+03  0.17086813029E+03  0.00000000000E+00 0. -1.
      99926    2    1    2    0    0  0.00000000000E+00  0.71054273576E-14  0.18401488398E+03  0.52575114456E+03  0.49249648575E+03 0.  0.
      99925    2    3    3    0    0  0.13666334325E+03  0.47147504017E+02  0.94001526565E+02  0.31444646137E+03  0.26294587570E+03 0.  0.
         25    1    3    3    0    0 -0.13666334325E+03 -0.47147504017E+02  0.90013357413E+02  0.21130468319E+03  0.12509000000E+03 0.  0.
         25    1    4    4    0    0  0.85213161500E+02  0.60451876406E+02  0.65064819328E+02  0.17548974633E+03  0.12509000000E+03 0.  0.
         25    1    4    4    0    0  0.51450181754E+02 -0.13304372389E+02  0.28936707237E+02  0.13895671503E+03  0.12509000000E+03 0.  0.
<mgrwt>
<rscale>  2 0.49249649E+03</rscale>
<asrwt>0</asrwt>
<pdfrwt beam="1">  1       21 0.52188679E-01 0.49249649E+03</pdfrwt>
<pdfrwt beam="2">  1       21 0.25127666E-01 0.49249649E+03</pdfrwt>
<totfact> 0.47655332E+04</totfact>
</mgrwt>
</event>
<event>
 7    0  0.4712189E-002  0.4691203E+03  0.7546771E-02  0.1022169E+00
         21   -1    0    0  502  501  0.00000000000E+00  0.00000000000E+00  0.36358172989E+03  0.36358172989E+03  0.00000000000E+00 0.  1.
         21   -1    0    0  501  502 -0.00000000000E+00 -0.00000000000E+00 -0.15132348650E+03  0.15132348650E+03  0.00000000000E+00 0.  1.
      99926    2    1    2    0    0  0.14210854715E-13  0.00000000000E+00  0.21225824339E+03  0.51490521640E+03  0.46912026175E+03 0.  0.
      99925    2    3    3    0    0 -0.10690530497E+03  0.19924068626E+02  0.61452017839E+02  0.29081653193E+03  0.26262557379E+03 0.  0.
         25    1    3    3    0    0  0.10690530497E+03 -0.19924068626E+02  0.15080622555E+03  0.22408868446E+03  0.12509000000E+03 0.  0.
         25    1    4    4    0    0 -0.91897910575E+02  0.24490822104E+02  0.46432985415E+02  0.16385529155E+03  0.12509000000E+03 0.  0.
         25    1    4    4    0    0 -0.15007394391E+02 -0.45667534780E+01  0.15019032424E+02  0.12696124038E+03  0.12509000000E+03 0.  0.
<mgrwt>
<rscale>  2 0.46912026E+03</rscale>
<asrwt>0</asrwt>
<pdfrwt beam="1">  1       21 0.53467901E-01 0.46912026E+03</pdfrwt>
<pdfrwt beam="2">  1       21 0.22253454E-01 0.46912026E+03</pdfrwt>
<totfact> 0.57514629E+04</totfact>
</mgrwt>
</event>
<event>
 7    0  0.4712189E-002  0.4571456E+03  0.7546771E-02  0.1025612E+00
         21   -1    0    0  502  501  0.00000000000E+00  0.00000000000E+00  0.19092011242E+03  0.19092011242E+03  0.00000000000E+00 0.  1.
         21   -1    0    0  501  502 -0.00000000000E+00 -0.00000000000E+00 -0.27365128232E+03  0.27365128232E+03  0.00000000000E+00 0.  1.
      99926    2    1    2    0    0  0.71054273576E-14  0.00000000000E+00 -0.82731169902E+02  0.46457139475E+03  0.45714563800E+03 0.  0.
      99925    2    3    3    0    0 -0.44950756196E+02  0.71569318303E+02  0.27523031695E+02  0.27763227397E+03  0.26301981764E+03 0.  0.
         25    1    4    4    0    0  0.47013061188E+00  0.38845312734E+02  0.47102599242E+02  0.13919533864E+03  0.12509000000E+03 0.  0.
         25    1    4    4    0    0 -0.45420886808E+02  0.32724005569E+02 -0.19579567546E+02  0.13843693533E+03  0.12509000000E+03 0.  0.
         25    1    3    3    0    0  0.44950756196E+02 -0.71569318303E+02 -0.11025420160E+03  0.18693912077E+03  0.12509000000E+03 0.  0.
<mgrwt>
<rscale>  2 0.45714564E+03</rscale>
<asrwt>0</asrwt>
<pdfrwt beam="1">  1       21 0.28076487E-01 0.45714564E+03</pdfrwt>
<pdfrwt beam="2">  1       21 0.40242835E-01 0.45714564E+03</pdfrwt>
<totfact> 0.66697069E+04</totfact>
</mgrwt>
</event>
<event>
 7    0  0.4712189E-002  0.4492404E+03  0.7546771E-02  0.1027949E+00
         21   -1    0    0  502  501  0.00000000000E+00  0.00000000000E+00  0.66189679492E+02  0.66189679492E+02  0.00000000000E+00 0. -1.
         21   -1    0    0  501  502 -0.00000000000E+00 -0.00000000000E+00 -0.76226724550E+03  0.76226724550E+03  0.00000000000E+00 0. -1.
      99926    2    1    2    0    0 -0.71054273576E-14  0.00000000000E+00 -0.69607756601E+03  0.82845692500E+03  0.44924035735E+03 0.  0.
      99925    2    3    3    0    0 -0.54117009049E+02  0.92992389515E+02 -0.42901009274E+03  0.51453212738E+03  0.26290191186E+03 0.  0.
         25    1    4    4    0    0 -0.97549486470E+01  0.65242456214E+01 -0.18660757691E+03  0.22496137594E+03  0.12509000000E+03 0.  0.
         25    1    3    3    0    0  0.54117009049E+02 -0.92992389515E+02 -0.26706747327E+03  0.31392479761E+03  0.12509000000E+03 0.  0.
         25    1    4    4    0    0 -0.44362060402E+02  0.86468143894E+02 -0.24240251583E+03  0.28957075144E+03  0.12509000000E+03 0.  0.
<mgrwt>
<rscale>  2 0.44924036E+03</rscale>
<asrwt>0</asrwt>
<pdfrwt beam="1">  1       21 0.97337763E-02 0.44924036E+03</pdfrwt>
<pdfrwt beam="2">  1       21 0.11209812E+00 0.44924036E+03</pdfrwt>
<totfact> 0.48577311E+04</totfact>
</mgrwt>
</event>
<event>
 7    0  0.4712189E-002  0.4580650E+03  0.7546771E-02  0.1025344E+00
         21   -1    0    0  502  501  0.00000000000E+00  0.00000000000E+00  0.84871391431E+02  0.84871391431E+02  0.00000000000E+00 0.  1.
         21   -1    0    0  501  502 -0.00000000000E+00 -0.00000000000E+00 -0.61806328317E+03  0.61806328317E+03  0.00000000000E+00 0.  1.
      99926    2    1    2    0    0  0.00000000000E+00  0.00000000000E+00 -0.53319189174E+03  0.70293467460E+03  0.45806502086E+03 0.  0.
      99925    2    3    3    0    0  0.80269556101E+02  0.74051693611E+02 -0.27500080968E+03  0.39595422258E+03  0.26311109079E+03 0.  0.
         25    1    4    4    0    0  0.59559739780E+02  0.45002758850E+02 -0.19442251571E+03  0.24294080271E+03  0.12509000000E+03 0.  0.
         25    1    3    3    0    0 -0.80269556101E+02 -0.74051693611E+02 -0.25819108206E+03  0.30698045202E+03  0.12509000000E+03 0.  0.
         25    1    4    4    0    0  0.20709816321E+02  0.29048934761E+02 -0.80578293964E+02  0.15301341987E+03  0.12509000000E+03 0.  0.
<mgrwt>
<rscale>  2 0.45806502E+03</rscale>
<asrwt>0</asrwt>
<pdfrwt beam="1">  1       21 0.12481087E-01 0.45806502E+03</pdfrwt>
<pdfrwt beam="2">  1       21 0.90891659E-01 0.45806502E+03</pdfrwt>
<totfact> 0.51490700E+04</totfact>
</mgrwt>
</event>
<event>
 7    0  0.4712189E-002  0.4914127E+03  0.7546771E-02  0.1016045E+00
         21   -1    0    0  502  501  0.00000000000E+00  0.00000000000E+00  0.17100880074E+03  0.17100880074E+03  0.00000000000E+00 0.  1.
         21   -1    0    0  501  502 -0.00000000000E+00 -0.00000000000E+00 -0.35303223210E+03  0.35303223210E+03  0.00000000000E+00 0.  1.
      99926    2    1    2    0    0  0.00000000000E+00 -0.44408920985E-15 -0.18202343136E+03  0.52404103284E+03  0.49141273339E+03 0.  0.
      99925    2    3    3    0    0  0.13721626417E+03  0.23646341411E+01 -0.62449496422E+02  0.30318060482E+03  0.26302974145E+03 0.  0.
         25    1    3    3    0    0 -0.13721626417E+03 -0.23646341411E+01 -0.11957393494E+03  0.22086042802E+03  0.12509000000E+03 0.  0.
         25    1    4    4    0    0  0.54036614983E+02  0.81198380012E+01 -0.68500589027E+02  0.15272762136E+03  0.12509000000E+03 0.  0.
         25    1    4    4    0    0  0.83179649190E+02 -0.57552038601E+01  0.60510926046E+01  0.15045298346E+03  0.12509000000E+03 0.  0.
<mgrwt>
<rscale>  2 0.49141273E+03</rscale>
<asrwt>0</asrwt>
<pdfrwt beam="1">  1       21 0.25148353E-01 0.49141273E+03</pdfrwt>
<pdfrwt beam="2">  1       21 0.51916504E-01 0.49141273E+03</pdfrwt>
<totfact> 0.48125879E+04</totfact>
</mgrwt>
</event>
<event>
 7    0  0.4712189E-002  0.4579348E+03  0.7546771E-02  0.1025382E+00
         21   -1    0    0  502  501  0.00000000000E+00  0.00000000000E+00  0.74149677910E+03  0.74149677910E+03  0.00000000000E+00 0. -1.
         21   -1    0    0  501  502 -0.00000000000E+00 -0.00000000000E+00 -0.70703043566E+02  0.70703043566E+02  0.00000000000E+00 0. -1.
      99926    2    1    2    0    0  0.00000000000E+00  0.00000000000E+00  0.67079373554E+03  0.81219982267E+03  0.45793483850E+03 0.  0.
      99925    2    3    3    0    0  0.11476348711E+03 -0.14773111291E+02  0.42726519911E+03  0.51497506100E+03  0.26316318188E+03 0.  0.
         25    1    3    3    0    0 -0.11476348711E+03  0.14773111291E+02  0.24352853643E+03  0.29722476166E+03  0.12509000000E+03 0.  0.
         25    1    4    4    0    0  0.83729352101E+02  0.14470176472E+02  0.18435933164E+03  0.23844467214E+03  0.12509000000E+03 0.  0.
         25    1    4    4    0    0  0.31034135006E+02 -0.29243287763E+02  0.24290586747E+03  0.27653038886E+03  0.12509000000E+03 0.  0.
<mgrwt>
<rscale>  2 0.45793484E+03</rscale>
<asrwt>0</asrwt>
<pdfrwt beam="1">  1       21 0.10904364E+00 0.45793484E+03</pdfrwt>
<pdfrwt beam="2">  1       21 0.10397507E-01 0.45793484E+03</pdfrwt>
<totfact> 0.46109274E+04</totfact>
</mgrwt>
</event>
<event>
 7    0  0.4712189E-002  0.4518531E+03  0.7546771E-02  0.1027171E+00
         21   -1    0    0  502  501  0.00000000000E+00  0.00000000000E+00  0.22337757011E+03  0.22337757011E+03  0.00000000000E+00 0. -1.
         21   -1    0    0  501  502 -0.00000000000E+00 -0.00000000000E+00 -0.22850458326E+03  0.22850458326E+03  0.00000000000E+00 0. -1.
      99926    2    1    2    0    0 -0.26645352591E-14  0.00000000000E+00 -0.51270131490E+01  0.45188215337E+03  0.45185306713E+03 0.  0.
      99925    2    3    3    0    0  0.23438997429E+01 -0.92171419386E+02  0.57137844877E+02  0.28447401419E+03  0.26298225609E+03 0.  0.
         25    1    3    3    0    0 -0.23438997429E+01  0.92171419386E+02 -0.62264858026E+02  0.16740813918E+03  0.12509000000E+03 0.  0.
         25    1    4    4    0    0  0.21641303474E+02 -0.26207778276E+02  0.57352992108E+02  0.14174649012E+03  0.12509000000E+03 0.  0.
         25    1    4    4    0    0 -0.19297403731E+02 -0.65963641110E+02 -0.21514723023E+00  0.14272752407E+03  0.12509000000E+03 0.  0.
<mgrwt>
<rscale>  2 0.45185307E+03</rscale>
<asrwt>0</asrwt>
<pdfrwt beam="1">  1       21 0.32849643E-01 0.45185307E+03</pdfrwt>
<pdfrwt beam="2">  1       21 0.33603615E-01 0.45185307E+03</pdfrwt>
<totfact> 0.70529175E+04</totfact>
</mgrwt>
</event>
<event>
 7    0  0.4712189E-002  0.4540205E+03  0.7546771E-02  0.1026530E+00
         21   -1    0    0  502  501  0.00000000000E+00  0.00000000000E+00  0.42331937396E+02  0.42331937396E+02  0.00000000000E+00 0. -1.
         21   -1    0    0  501  502 -0.00000000000E+00 -0.00000000000E+00 -0.12173707821E+04  0.12173707821E+04  0.00000000000E+00 0. -1.
      99926    2    1    2    0    0  0.00000000000E+00  0.00000000000E+00 -0.11750388447E+04  0.12597027195E+04  0.45402054463E+03 0.  0.
      99925    2    3    3    0    0  0.45957275695E+02 -0.50097421834E+02 -0.49257004128E+03  0.56254205035E+03  0.26307126407E+03 0.  0.
         25    1    4    4    0    0  0.56620673317E+02 -0.41782904863E+02 -0.29918885288E+03  0.33183307487E+03  0.12509000000E+03 0.  0.
         25    1    4    4    0    0 -0.10663397622E+02 -0.83145169708E+01 -0.19338118840E+03  0.23070897548E+03  0.12509000000E+03 0.  0.
         25    1    3    3    0    0 -0.45957275695E+02  0.50097421834E+02 -0.68246880343E+03  0.69716066916E+03  0.12509000000E+03 0.  0.
<mgrwt>
<rscale>  2 0.45402054E+03</rscale>
<asrwt>0</asrwt>
<pdfrwt beam="1">  1       21 0.62252857E-02 0.45402054E+03</pdfrwt>
<pdfrwt beam="2">  1       21 0.17902509E+00 0.45402054E+03</pdfrwt>
<totfact> 0.30539993E+04</totfact>
</mgrwt>
</event>
<event>
 7    0  0.4712189E-002  0.4603592E+03  0.7546771E-02  0.1024677E+00
         21   -1    0    0  502  501  0.00000000000E+00  0.00000000000E+00  0.12363572450E+03  0.12363572450E+03  0.00000000000E+00 0.  1.
         21   -1    0    0  501  502 -0.00000000000E+00 -0.00000000000E+00 -0.42853840613E+03  0.42853840613E+03  0.00000000000E+00 0.  1.
      99926    2    1    2    0    0 -0.17763568394E-14  0.00000000000E+00 -0.30490268163E+03  0.55217413063E+03  0.46035923503E+03 0.  0.
      99925    2    3    3    0    0  0.84298807250E+01 -0.53199738723E+02 -0.64943426255E+02  0.27625887656E+03  0.26305901083E+03 0.  0.
         25    1    4    4    0    0  0.15652730258E+02 -0.54378885278E+02 -0.50754300293E+01  0.13738755118E+03  0.12509000000E+03 0.  0.
         25    1    3    3    0    0 -0.84298807250E+01  0.53199738723E+02 -0.23995925537E+03  0.27591525407E+03  0.12509000000E+03 0.  0.
         25    1    4    4    0    0 -0.72228495332E+01  0.11791465553E+01 -0.59867996225E+02  0.13887132538E+03  0.12509000000E+03 0.  0.
<mgrwt>
<rscale>  2 0.46035924E+03</rscale>
<asrwt>0</asrwt>
<pdfrwt beam="1">  1       21 0.18181724E-01 0.46035924E+03</pdfrwt>
<pdfrwt beam="2">  1       21 0.63020355E-01 0.46035924E+03</pdfrwt>
<totfact> 0.59173903E+04</totfact>
</mgrwt>
</event>
<event>
 7    0  0.4712189E-002  0.4443514E+03  0.7546771E-02  0.1029420E+00
         21   -1    0    0  502  501  0.00000000000E+00  0.00000000000E+00  0.76087805804E+03  0.76087805804E+03  0.00000000000E+00 0.  1.
         21   -1    0    0  501  502 -0.00000000000E+00 -0.00000000000E+00 -0.64875104992E+02  0.64875104992E+02  0.00000000000E+00 0.  1.
      99926    2    1    2    0    0  0.00000000000E+00  0.71054273576E-14  0.69600295305E+03  0.82575316303E+03  0.44435141004E+03 0.  0.
      99925    2    3    3    0    0 -0.79010717908E+02 -0.46974315909E+02  0.35604327188E+03  0.45202950467E+03  0.26289652288E+03 0.  0.
         25    1    4    4    0    0 -0.37720896467E+02 -0.63767141168E+02  0.17517072762E+03  0.22764315548E+03  0.12509000000E+03 0.  0.
         25    1    3    3    0    0  0.79010717908E+02  0.46974315909E+02  0.33995968117E+03  0.37372365836E+03  0.12509000000E+03 0.  0.
         25    1    4    4    0    0 -0.41289821441E+02  0.16792825260E+02  0.18087254426E+03  0.22438634919E+03  0.12509000000E+03 0.  0.
<mgrwt>
<rscale>  2 0.44435141E+03</rscale>
<asrwt>0</asrwt>
<pdfrwt beam="1">  1       21 0.11189383E+00 0.44435141E+03</pdfrwt>
<pdfrwt beam="2">  1       21 0.95404570E-02 0.44435141E+03</pdfrwt>
<totfact> 0.50644995E+04</totfact>
</mgrwt>
</event>
<event>
 7    0  0.4712189E-002  0.4542287E+03  0.7546771E-02  0.1026468E+00
         21   -1    0    0  502  501  0.00000000000E+00  0.00000000000E+00  0.21381001480E+03  0.21381001480E+03  0.00000000000E+00 0. -1.
         21   -1    0    0  501  502 -0.00000000000E+00 -0.00000000000E+00 -0.24124656767E+03  0.24124656767E+03  0.00000000000E+00 0. -1.
      99926    2    1    2    0    0  0.00000000000E+00  0.17763568394E-14 -0.27436552874E+02  0.45505658247E+03  0.45422871861E+03 0.  0.
      99925    2    3    3    0    0 -0.10786210728E+03 -0.12254484782E+02 -0.46483780075E+02  0.28833912223E+03  0.26304809639E+03 0.  0.
         25    1    3    3    0    0  0.10786210728E+03  0.12254484782E+02  0.19047227201E+02  0.16671746024E+03  0.12509000000E+03 0.  0.
         25    1    4    4    0    0 -0.93575142100E+02 -0.19323901505E+02 -0.38135358518E+02  0.16196152030E+03  0.12509000000E+03 0.  0.
         25    1    4    4    0    0 -0.14286965179E+02  0.70694167237E+01 -0.83484215572E+01  0.12637760193E+03  0.12509000000E+03 0.  0.
<mgrwt>
<rscale>  2 0.45422872E+03</rscale>
<asrwt>0</asrwt>
<pdfrwt beam="1">  1       21 0.31442649E-01 0.45422872E+03</pdfrwt>
<pdfrwt beam="2">  1       21 0.35477436E-01 0.45422872E+03</pdfrwt>
<totfact> 0.68965111E+04</totfact>
</mgrwt>
</event>
<event>
 7    0  0.4712189E-002  0.4526989E+03  0.7546771E-02  0.1026920E+00
         21   -1    0    0  502  501  0.00000000000E+00  0.00000000000E+00  0.85203105644E+03  0.85203105644E+03  0.00000000000E+00 0. -1.
         21   -1    0    0  501  502 -0.00000000000E+00 -0.00000000000E+00 -0.60131702833E+02  0.60131702833E+02  0.00000000000E+00 0. -1.
      99926    2    1    2    0    0  0.00000000000E+00  0.71054273576E-14  0.79189935361E+03  0.91216275927E+03  0.45269892110E+03 0.  0.
      99925    2    3    3    0    0 -0.69946062598E+02  0.62474615522E+02  0.37982157835E+03  0.47142345967E+03  0.26302113544E+03 0.  0.
         25    1    4    4    0    0 -0.47764152296E+02  0.83259197936E+01  0.23967716447E+03  0.27466959507E+03  0.12509000000E+03 0.  0.
         25    1    4    4    0    0 -0.22181910302E+02  0.54148695728E+02  0.14014441388E+03  0.19675386460E+03  0.12509000000E+03 0.  0.
         25    1    3    3    0    0  0.69946062598E+02 -0.62474615522E+02  0.41207777526E+03  0.44073929961E+03  0.12509000000E+03 0.  0.
<mgrwt>
<rscale>  2 0.45269892E+03</rscale>
<asrwt>0</asrwt>
<pdfrwt beam="1">  1       21 0.12529868E+00 0.45269892E+03</pdfrwt>
<pdfrwt beam="2">  1       21 0.88428980E-02 0.45269892E+03</pdfrwt>
<totfact> 0.43489876E+04</totfact>
</mgrwt>
</event>
<event>
 7    0  0.4712189E-002  0.4566851E+03  0.7546771E-02  0.1025747E+00
         21   -1    0    0  502  501  0.00000000000E+00  0.00000000000E+00  0.24321563227E+03  0.24321563227E+03  0.00000000000E+00 0. -1.
         21   -1    0    0  501  502 -0.00000000000E+00 -0.00000000000E+00 -0.21437902967E+03  0.21437902967E+03  0.00000000000E+00 0. -1.
      99926    2    1    2    0    0  0.00000000000E+00  0.00000000000E+00  0.28836602606E+02  0.45759466194E+03  0.45668514864E+03 0.  0.
      99925    2    3    3    0    0 -0.44561065062E+02  0.93457938028E+02 -0.31184478023E+02  0.28447587925E+03  0.26312350618E+03 0.  0.
         25    1    4    4    0    0 -0.25321862778E+02  0.82470002682E+02  0.61130653596E+01  0.15207687446E+03  0.12509000000E+03 0.  0.
         25    1    3    3    0    0  0.44561065062E+02 -0.93457938028E+02  0.60021080629E+02  0.17311878269E+03  0.12509000000E+03 0.  0.
         25    1    4    4    0    0 -0.19239202284E+02  0.10987935347E+02 -0.37297543382E+02  0.13239900479E+03  0.12509000000E+03 0.  0.
<mgrwt>
<rscale>  2 0.45668515E+03</rscale>
<asrwt>0</asrwt>
<pdfrwt beam="1">  1       21 0.35767005E-01 0.45668515E+03</pdfrwt>
<pdfrwt beam="2">  1       21 0.31526328E-01 0.45668515E+03</pdfrwt>
<totfact> 0.67444764E+04</totfact>
</mgrwt>
</event>
<event>
 7    0  0.4712189E-002  0.4506850E+03  0.7546771E-02  0.1027518E+00
         21   -1    0    0  502  501  0.00000000000E+00  0.00000000000E+00  0.37089475651E+03  0.37089475651E+03  0.00000000000E+00 0. -1.
         21   -1    0    0  501  502 -0.00000000000E+00 -0.00000000000E+00 -0.13691013663E+03  0.13691013663E+03  0.00000000000E+00 0. -1.
      99926    2    1    2    0    0  0.00000000000E+00  0.88817841970E-15  0.23398461987E+03  0.50780489314E+03  0.45068504209E+03 0.  0.
      99925    2    3    3    0    0 -0.10541115349E+03 -0.52505309899E+00  0.11901762525E+03  0.30786313934E+03  0.26363370514E+03 0.  0.
         25    1    3    3    0    0  0.10541115349E+03  0.52505309899E+00  0.11496699463E+03  0.19994175380E+03  0.12509000000E+03 0.  0.
         25    1    4    4    0    0 -0.79486834772E+02 -0.13397630972E+02  0.30482527837E+02  0.15190242270E+03  0.12509000000E+03 0.  0.
         25    1    4    4    0    0 -0.25924318715E+02  0.12872577873E+02  0.88535097410E+02  0.15596071664E+03  0.12509000000E+03 0.  0.
<mgrwt>
<rscale>  2 0.45068504E+03</rscale>
<asrwt>0</asrwt>
<pdfrwt beam="1">  1       21 0.54543346E-01 0.45068504E+03</pdfrwt>
<pdfrwt beam="2">  1       21 0.20133844E-01 0.45068504E+03</pdfrwt>
<totfact> 0.66990578E+04</totfact>
</mgrwt>
</event>
<event>
 7    0  0.4712189E-002  0.4257946E+03  0.7546771E-02  0.1035197E+00
         21   -1    0    0  502  501  0.00000000000E+00  0.00000000000E+00  0.66930583198E+02  0.66930583198E+02  0.00000000000E+00 0.  1.
         21   -1    0    0  501  502 -0.00000000000E+00 -0.00000000000E+00 -0.67719808471E+03  0.67719808471E+03  0.00000000000E+00 0.  1.
      99926    2    1    2    0    0  0.88817841970E-15  0.00000000000E+00 -0.61026750151E+03  0.74412866791E+03  0.42579461129E+03 0.  0.
      99925    2    3    3    0    0 -0.72950442014E+01 -0.42039360718E+02 -0.27146300347E+03  0.38045777065E+03  0.26312625767E+03 0.  0.
         25    1    3    3    0    0  0.72950442014E+01  0.42039360718E+02 -0.33880449804E+03  0.36367089726E+03  0.12509000000E+03 0.  0.
         25    1    4    4    0    0  0.20854338509E+02 -0.24722531128E+01 -0.17063062170E+03  0.21261075380E+03  0.12509000000E+03 0.  0.
         25    1    4    4    0    0 -0.28149382711E+02 -0.39567107605E+02 -0.10083238177E+03  0.16784701685E+03  0.12509000000E+03 0.  0.
<mgrwt>
<rscale>  2 0.42579461E+03</rscale>
<asrwt>0</asrwt>
<pdfrwt beam="1">  1       21 0.98427326E-02 0.42579461E+03</pdfrwt>
<pdfrwt beam="2">  1       21 0.99587955E-01 0.42579461E+03</pdfrwt>
<totfact> 0.64059360E+04</totfact>
</mgrwt>
</event>
<event>
 7    0  0.4712189E-002  0.4556569E+03  0.7546771E-02  0.1026048E+00
         21   -1    0    0  502  501  0.00000000000E+00  0.00000000000E+00  0.13676530832E+03  0.13676530832E+03  0.00000000000E+00 0. -1.
         21   -1    0    0  501  502 -0.00000000000E+00 -0.00000000000E+00 -0.37952469522E+03  0.37952469522E+03  0.00000000000E+00 0. -1.
      99926    2    1    2    0    0 -0.14210854715E-13  0.00000000000E+00 -0.24275938690E+03  0.51629000354E+03  0.45565694094E+03 0.  0.
      99925    2    3    3    0    0  0.88267663891E+02  0.20296223291E+02 -0.74779200811E+02  0.28810593708E+03  0.26307790659E+03 0.  0.
         25    1    4    4    0    0  0.32325079663E+02  0.69625262789E+01 -0.76707263415E+02  0.15041575685E+03  0.12509000000E+03 0.  0.
         25    1    3    3    0    0 -0.88267663891E+02 -0.20296223291E+02 -0.16798018609E+03  0.22818406646E+03  0.12509000000E+03 0.  0.
         25    1    4    4    0    0  0.55942584228E+02  0.13333697012E+02  0.19280626040E+01  0.13769018023E+03  0.12509000000E+03 0.  0.
<mgrwt>
<rscale>  2 0.45565694E+03</rscale>
<asrwt>0</asrwt>
<pdfrwt beam="1">  1       21 0.20112546E-01 0.45565694E+03</pdfrwt>
<pdfrwt beam="2">  1       21 0.55812454E-01 0.45565694E+03</pdfrwt>
<totfact> 0.63807482E+04</totfact>
</mgrwt>
</event>
<event>
 7    0  0.4712189E-002  0.4509532E+03  0.7546771E-02  0.1027438E+00
         21   -1    0    0  502  501  0.00000000000E+00  0.00000000000E+00  0.20915418730E+03  0.20915418730E+03  0.00000000000E+00 0.  1.
         21   -1    0    0  501  502 -0.00000000000E+00 -0.00000000000E+00 -0.24307281861E+03  0.24307281861E+03  0.00000000000E+00 0.  1.
      99926    2    1    2    0    0  0.00000000000E+00  0.00000000000E+00 -0.33918631303E+02  0.45222700591E+03  0.45095320303E+03 0.  0.
      99925    2    3    3    0    0 -0.98851509489E+02 -0.91130812635E+01  0.24462862762E+02  0.28219590249E+03  0.26302362356E+03 0.  0.
         25    1    4    4    0    0 -0.47561249117E+02  0.29081311585E+02  0.34879106090E+02  0.14132181446E+03  0.12509000000E+03 0.  0.
         25    1    4    4    0    0 -0.51290260372E+02 -0.38194392849E+02 -0.10416243328E+02  0.14087408803E+03  0.12509000000E+03 0.  0.
         25    1    3    3    0    0  0.98851509489E+02  0.91130812635E+01 -0.58381494065E+02  0.17003110341E+03  0.12509000000E+03 0.  0.
<mgrwt>
<rscale>  2 0.45095320E+03</rscale>
<asrwt>0</asrwt>
<pdfrwt beam="1">  1       21 0.30757969E-01 0.45095320E+03</pdfrwt>
<pdfrwt beam="2">  1       21 0.35746003E-01 0.45095320E+03</pdfrwt>
<totfact> 0.71014852E+04</totfact>
</mgrwt>
</event>
<event>
 7    0  0.4712189E-002  0.4304359E+03  0.7546771E-02  0.1033722E+00
         21   -1    0    0  502  501  0.00000000000E+00  0.00000000000E+00  0.25276271119E+02  0.25276271119E+02  0.00000000000E+00 0.  1.
         21   -1    0    0  501  502 -0.00000000000E+00 -0.00000000000E+00 -0.18325001247E+04  0.18325001247E+04  0.00000000000E+00 0.  1.
      99926    2    1    2    0    0  0.00000000000E+00 -0.17763568394E-14 -0.18072238536E+04  0.18577763958E+04  0.43043591847E+03 0.  0.
      99925    2    3    3    0    0  0.87019469559E+02  0.12985672257E+02 -0.11830294688E+04  0.12151200694E+04  0.26309132121E+03 0.  0.
         25    1    4    4    0    0  0.23204362204E+02  0.40832020305E+02 -0.61228325965E+03  0.62669290282E+03  0.12509000000E+03 0.  0.
         25    1    3    3    0    0 -0.87019469559E+02 -0.12985672257E+02 -0.62419438478E+03  0.64265632639E+03  0.12509000000E+03 0.  0.
         25    1    4    4    0    0  0.63815107354E+02 -0.27846348048E+02 -0.57074620914E+03  0.58842716658E+03  0.12509000000E+03 0.  0.
<mgrwt>
<rscale>  2 0.43043592E+03</rscale>
<asrwt>0</asrwt>
<pdfrwt beam="1">  1       21 0.37170979E-02 0.43043592E+03</pdfrwt>
<pdfrwt beam="2">  1       21 0.26948537E+00 0.43043592E+03</pdfrwt>
<totfact> 0.19664085E+04</totfact>
</mgrwt>
</event>
<event>
 7    0  0.4712189E-002  0.4617842E+03  0.7546771E-02  0.1024265E+00
         21   -1    0    0  502  501  0.00000000000E+00  0.00000000000E+00  0.86270017344E+02  0.86270017344E+02  0.00000000000E+00 0.  1.
         21   -1    0    0  501  502 -0.00000000000E+00 -0.00000000000E+00 -0.61795704735E+03  0.61795704735E+03  0.00000000000E+00 0.  1.
      99926    2    1    2    0    0 -0.14210854715E-13  0.00000000000E+00 -0.53168703000E+03  0.70422706469E+03  0.46178421451E+03 0.  0.
      99925    2    3    3    0    0 -0.11603264206E+03 -0.27777333580E+02 -0.33938063908E+03  0.44564552944E+03  0.26303149135E+03 0.  0.
         25    1    4    4    0    0 -0.85484745295E+02 -0.16202298690E+02 -0.13374321355E+03  0.20274346212E+03  0.12509000000E+03 0.  0.
         25    1    3    3    0    0  0.11603264206E+03  0.27777333580E+02 -0.19230639093E+03  0.25858153526E+03  0.12509000000E+03 0.  0.
         25    1    4    4    0    0 -0.30547896764E+02 -0.11575034890E+02 -0.20563742553E+03  0.24290206732E+03  0.12509000000E+03 0.  0.
<mgrwt>
<rscale>  2 0.46178421E+03</rscale>
<asrwt>0</asrwt>
<pdfrwt beam="1">  1       21 0.12686767E-01 0.46178421E+03</pdfrwt>
<pdfrwt beam="2">  1       21 0.90876039E-01 0.46178421E+03</pdfrwt>
<totfact> 0.49953373E+04</totfact>
</mgrwt>
</event>
<event>
 7    0  0.4712189E-002  0.4529344E+03  0.7546771E-02  0.1026851E+00
         21   -1    0    0  502  501  0.00000000000E+00  0.00000000000E+00  0.18379299562E+03  0.18379299562E+03  0.00000000000E+00 0. -1.
         21   -1    0    0  501  502 -0.00000000000E+00 -0.00000000000E+00 -0.27904978942E+03  0.27904978942E+03  0.00000000000E+00 0. -1.
      99926    2    1    2    0    0  0.00000000000E+00  0.17763568394E-14 -0.95256793804E+02  0.46284278504E+03  0.45293441788E+03 0.  0.
      99925    2    3    3    0    0  0.32263430099E+02 -0.99153263994E+01  0.48277968662E+02  0.26948048583E+03  0.26296335746E+03 0.  0.
         25    1    3    3    0    0 -0.32263430099E+02  0.99153263994E+01 -0.14353476247E+03  0.19336229921E+03  0.12509000000E+03 0.  0.
         25    1    4    4    0    0  0.41320920624E+02  0.11918992596E+02 -0.28152548800E+01  0.13230613979E+03  0.12509000000E+03 0.  0.
         25    1    4    4    0    0 -0.90574905246E+01 -0.21834318995E+02  0.51093223542E+02  0.13717434604E+03  0.12509000000E+03 0.  0.
<mgrwt>
<rscale>  2 0.45293442E+03</rscale>
<asrwt>0</asrwt>
<pdfrwt beam="1">  1       21 0.27028382E-01 0.45293442E+03</pdfrwt>
<pdfrwt beam="2">  1       21 0.41036734E-01 0.45293442E+03</pdfrwt>
<totfact> 0.69097655E+04</totfact>
</mgrwt>
</event>
<event>
 7    0  0.4712189E-002  0.4509507E+03  0.7546771E-02  0.1027439E+00
         21   -1    0    0  502  501  0.00000000000E+00  0.00000000000E+00  0.98437550869E+03  0.98437550869E+03  0.00000000000E+00 0. -1.
         21   -1    0    0  501  502 -0.00000000000E+00 -0.00000000000E+00 -0.51646086204E+02  0.51646086204E+02  0.00000000000E+00 0. -1.
      99926    2    1    2    0    0 -0.14210854715E-13  0.00000000000E+00  0.93272942249E+03  0.10360215949E+04  0.45095073957E+03 0.  0.
      99925    2    3    3    0    0 -0.96150438309E+02 -0.30252308632E+02  0.49183077956E+03  0.56676768665E+03  0.26299807214E+03 0.  0.
         25    1    4    4    0    0 -0.79786251414E+02 -0.39412164851E+02  0.23888546966E+03  0.28395939915E+03  0.12509000000E+03 0.  0.
         25    1    3    3    0    0  0.96150438309E+02  0.30252308632E+02  0.44089864293E+03  0.46925390825E+03  0.12509000000E+03 0.  0.
         25    1    4    4    0    0 -0.16364186894E+02  0.91598562193E+01  0.25294530990E+03  0.28280828750E+03  0.12509000000E+03 0.  0.
<mgrwt>
<rscale>  2 0.45095074E+03</rscale>
<asrwt>0</asrwt>
<pdfrwt beam="1">  1       21 0.14476109E+00 0.45095074E+03</pdfrwt>
<pdfrwt beam="2">  1       21 0.75950133E-02 0.45095074E+03</pdfrwt>
<totfact> 0.39013222E+04</totfact>
</mgrwt>
</event>
<event>
 7    0  0.4712189E-002  0.4421369E+03  0.7546771E-02  0.1030093E+00
         21   -1    0    0  502  501  0.00000000000E+00  0.00000000000E+00  0.10928805096E+03  0.10928805096E+03  0.00000000000E+00 0.  1.
         21   -1    0    0  501  502 -0.00000000000E+00 -0.00000000000E+00 -0.44717851327E+03  0.44717851327E+03  0.00000000000E+00 0.  1.
      99926    2    1    2    0    0  0.00000000000E+00 -0.35527136788E-14 -0.33789046231E+03  0.55646656423E+03  0.44213693873E+03 0.  0.
      99925    2    3    3    0    0 -0.67778587960E+02 -0.24651453916E+02 -0.12696938628E+03  0.30085584541E+03  0.26304255073E+03 0.  0.
         25    1    3    3    0    0  0.67778587960E+02  0.24651453916E+02 -0.21092107603E+03  0.25561071883E+03  0.12509000000E+03 0.  0.
         25    1    4    4    0    0 -0.23272629832E+02 -0.45757644102E+02 -0.41055401763E+02  0.14130970033E+03  0.12509000000E+03 0.  0.
         25    1    4    4    0    0 -0.44505958129E+02  0.21106190186E+02 -0.85913984518E+02  0.15954614508E+03  0.12509000000E+03 0.  0.
<mgrwt>
<rscale>  2 0.44213694E+03</rscale>
<asrwt>0</asrwt>
<pdfrwt beam="1">  1       21 0.16071772E-01 0.44213694E+03</pdfrwt>
<pdfrwt beam="2">  1       21 0.65761546E-01 0.44213694E+03</pdfrwt>
<totfact> 0.68111648E+04</totfact>
</mgrwt>
</event>
<event>
 7    0  0.4712189E-002  0.4585048E+03  0.7546771E-02  0.1025216E+00
         21   -1    0    0  502  501  0.00000000000E+00  0.00000000000E+00  0.46017317719E+02  0.46017317719E+02  0.00000000000E+00 0. -1.
         21   -1    0    0  501  502 -0.00000000000E+00 -0.00000000000E+00 -0.11421061478E+04  0.11421061478E+04  0.00000000000E+00 0. -1.
      99926    2    1    2    0    0 -0.24424906542E-14  0.00000000000E+00 -0.10960888301E+04  0.11881234655E+04  0.45850479375E+03 0.  0.
      99925    2    3    3    0    0  0.16252288313E+01  0.36086896670E+02 -0.97432954264E+03  0.10098603520E+04  0.26304936289E+03 0.  0.
         25    1    4    4    0    0  0.18184713047E+02  0.46093678701E+02 -0.59298220315E+03  0.60805485966E+03  0.12509000000E+03 0.  0.
         25    1    3    3    0    0 -0.16252288313E+01 -0.36086896670E+02 -0.12175928746E+03  0.17826311358E+03  0.12509000000E+03 0.  0.
         25    1    4    4    0    0 -0.16559484216E+02 -0.10006782031E+02 -0.38134733949E+03  0.40180549230E+03  0.12509000000E+03 0.  0.
<mgrwt>
<rscale>  2 0.45850479E+03</rscale>
<asrwt>0</asrwt>
<pdfrwt beam="1">  1       21 0.67672530E-02 0.45850479E+03</pdfrwt>
<pdfrwt beam="2">  1       21 0.16795678E+00 0.45850479E+03</pdfrwt>
<totfact> 0.31661254E+04</totfact>
</mgrwt>
</event>
<event>
 7    0  0.4712189E-002  0.4700222E+03  0.7546771E-02  0.1021914E+00
         21   -1    0    0  502  501  0.00000000000E+00  0.00000000000E+00  0.31665198349E+03  0.31665198349E+03  0.00000000000E+00 0.  1.
         21   -1    0    0  501  502 -0.00000000000E+00 -0.00000000000E+00 -0.17441927484E+03  0.17441927484E+03  0.00000000000E+00 0.  1.
      99926    2    1    2    0    0  0.00000000000E+00  0.00000000000E+00  0.14223270865E+03  0.49107125833E+03  0.47002216687E+03 0.  0.
      99925    2    3    3    0    0 -0.12510836943E+03 -0.16047405788E+02  0.10134202568E+03  0.30878253299E+03  0.26299586152E+03 0.  0.
         25    1    4    4    0    0 -0.98538172318E+02  0.14104878799E+02  0.47288414904E+02  0.16671059143E+03  0.12509000000E+03 0.  0.
         25    1    3    3    0    0  0.12510836943E+03  0.16047405788E+02  0.40890682970E+02  0.18228872534E+03  0.12509000000E+03 0.  0.
         25    1    4    4    0    0 -0.26570197108E+02 -0.30152284586E+02  0.54053610778E+02  0.14207194156E+03  0.12509000000E+03 0.  0.
<mgrwt>
<rscale>  2 0.47002217E+03</rscale>
<asrwt>0</asrwt>
<pdfrwt beam="1">  1       21 0.46566468E-01 0.47002217E+03</pdfrwt>
<pdfrwt beam="2">  1       21 0.25649893E-01 0.47002217E+03</pdfrwt>
<totfact> 0.58597328E+04</totfact>
</mgrwt>
</event>
<event>
 7    0  0.4712189E-002  0.4556905E+03  0.7546771E-02  0.1026039E+00
         21   -1    0    0  502  501  0.00000000000E+00  0.00000000000E+00  0.50134987870E+03  0.50134987870E+03  0.00000000000E+00 0.  1.
         21   -1    0    0  501  502 -0.00000000000E+00 -0.00000000000E+00 -0.10354737042E+03  0.10354737042E+03  0.00000000000E+00 0.  1.
      99926    2    1    2    0    0  0.00000000000E+00  0.71054273576E-14  0.39780250828E+03  0.60489724913E+03  0.45569051604E+03 0.  0.
      99925    2    3    3    0    0  0.55211652528E+02 -0.62987475849E+02  0.35239658910E+03  0.44765554256E+03  0.26305204824E+03 0.  0.
         25    1    4    4    0    0  0.37118412810E+02 -0.10907089074E+02  0.11775868857E+03  0.17610042020E+03  0.12509000000E+03 0.  0.
         25    1    3    3    0    0 -0.55211652528E+02  0.62987475849E+02  0.45405919177E+02  0.15724170657E+03  0.12509000000E+03 0.  0.
         25    1    4    4    0    0  0.18093239718E+02 -0.52080386775E+02  0.23463790054E+03  0.27155512236E+03  0.12509000000E+03 0.  0.
<mgrwt>
<rscale>  2 0.45569052E+03</rscale>
<asrwt>0</asrwt>
<pdfrwt beam="1">  1       21 0.73727922E-01 0.45569052E+03</pdfrwt>
<pdfrwt beam="2">  1       21 0.15227555E-01 0.45569052E+03</pdfrwt>
<totfact> 0.58060459E+04</totfact>
</mgrwt>
</event>
<event>
 7    0  0.4712189E-002  0.4396002E+03  0.7546771E-02  0.1030870E+00
         21   -1    0    0  502  501  0.00000000000E+00  0.00000000000E+00  0.48076973461E+03  0.48076973461E+03  0.00000000000E+00 0.  1.
         21   -1    0    0  501  502 -0.00000000000E+00 -0.00000000000E+00 -0.10048901912E+03  0.10048901912E+03  0.00000000000E+00 0.  1.
      99926    2    1    2    0    0  0.00000000000E+00  0.00000000000E+00  0.38028071548E+03  0.58125875373E+03  0.43960017768E+03 0.  0.
      99925    2    3    3    0    0  0.66496969051E+01 -0.40907973811E+02  0.12529300291E+03  0.29423275760E+03  0.26297699191E+03 0.  0.
         25    1    4    4    0    0  0.42946778152E+01 -0.50117417370E+02  0.95706668659E+02  0.16534047994E+03  0.12509000000E+03 0.  0.
         25    1    3    3    0    0 -0.66496969051E+01  0.40907973811E+02  0.25498771258E+03  0.28702599613E+03  0.12509000000E+03 0.  0.
         25    1    4    4    0    0  0.23550190899E+01  0.92094435587E+01  0.29586334247E+02  0.12889227766E+03  0.12509000000E+03 0.  0.
<mgrwt>
<rscale>  2 0.43960018E+03</rscale>
<asrwt>0</asrwt>
<pdfrwt beam="1">  1       21 0.70701431E-01 0.43960018E+03</pdfrwt>
<pdfrwt beam="2">  1       21 0.14777797E-01 0.43960018E+03</pdfrwt>
<totfact> 0.67722265E+04</totfact>
</mgrwt>
</event>
<event>
 7    0  0.4712189E-002  0.4537222E+03  0.7546771E-02  0.1026618E+00
         21   -1    0    0  502  501  0.00000000000E+00  0.00000000000E+00  0.44677750412E+03  0.44677750412E+03  0.00000000000E+00 0. -1.
         21   -1    0    0  501  502 -0.00000000000E+00 -0.00000000000E+00 -0.11519372069E+03  0.11519372069E+03  0.00000000000E+00 0. -1.
      99926    2    1    2    0    0  0.17763568394E-14  0.00000000000E+00  0.33158378343E+03  0.56197122481E+03  0.45372221907E+03 0.  0.
      99925    2    3    3    0    0 -0.96544481467E+01  0.10915845067E+03  0.23635938677E+03  0.37033623442E+03  0.26320028702E+03 0.  0.
         25    1    4    4    0    0 -0.34708320125E+02  0.45167207128E+02  0.15030835517E+03  0.20367830964E+03  0.12509000000E+03 0.  0.
         25    1    4    4    0    0  0.25053871978E+02  0.63991243542E+02  0.86051031605E+02  0.16665792478E+03  0.12509000000E+03 0.  0.
         25    1    3    3    0    0  0.96544481467E+01 -0.10915845067E+03  0.95224396662E+02  0.19163499039E+03  0.12509000000E+03 0.  0.
<mgrwt>
<rscale>  2 0.45372222E+03</rscale>
<asrwt>0</asrwt>
<pdfrwt beam="1">  1       21 0.65702574E-01 0.45372222E+03</pdfrwt>
<pdfrwt beam="2">  1       21 0.16940253E-01 0.45372222E+03</pdfrwt>
<totfact> 0.61703557E+04</totfact>
</mgrwt>
</event>
<event>
 7    0  0.4712189E-002  0.4558818E+03  0.7546771E-02  0.1025982E+00
         21   -1    0    0  502  501  0.00000000000E+00  0.00000000000E+00  0.42670699380E+03  0.42670699380E+03  0.00000000000E+00 0. -1.
         21   -1    0    0  501  502 -0.00000000000E+00 -0.00000000000E+00 -0.12176282833E+03  0.12176282833E+03  0.00000000000E+00 0. -1.
      99926    2    1    2    0    0 -0.71054273576E-14  0.71054273576E-14  0.30494416547E+03  0.54846982213E+03  0.45588178482E+03 0.  0.
      99925    2    3    3    0    0  0.35006310627E+02 -0.35403928561E+02  0.68471920878E+02  0.27635677484E+03  0.26306992057E+03 0.  0.
         25    1    4    4    0    0  0.38330736102E+02 -0.46920165095E+02  0.15024625278E+02  0.13979983794E+03  0.12509000000E+03 0.  0.
         25    1    3    3    0    0 -0.35006310627E+02  0.35403928561E+02  0.23647224459E+03  0.27211304729E+03  0.12509000000E+03 0.  0.
         25    1    4    4    0    0 -0.33244254754E+01  0.11516236534E+02  0.53447295600E+02  0.13655693690E+03  0.12509000000E+03 0.  0.
<mgrwt>
<rscale>  2 0.45588178E+03</rscale>
<asrwt>0</asrwt>
<pdfrwt beam="1">  1       21 0.62751028E-01 0.45588178E+03</pdfrwt>
<pdfrwt beam="2">  1       21 0.17906298E-01 0.45588178E+03</pdfrwt>
<totfact> 0.61537277E+04</totfact>
</mgrwt>
</event>
<event>
 7    0  0.4712189E-002  0.4573651E+03  0.7546771E-02  0.1025548E+00
         21   -1    0    0  502  501  0.00000000000E+00  0.00000000000E+00  0.81294397691E+02  0.81294397691E+02  0.00000000000E+00 0. -1.
         21   -1    0    0  501  502 -0.00000000000E+00 -0.00000000000E+00 -0.64328788354E+03  0.64328788354E+03  0.00000000000E+00 0. -1.
      99926    2    1    2    0    0  0.00000000000E+00  0.00000000000E+00 -0.56199348584E+03  0.72458228123E+03  0.45736506659E+03 0.  0.
      99925    2    3    3    0    0 -0.17240642441E+02 -0.85393754674E+02 -0.23306942248E+03  0.36205244707E+03  0.26300434530E+03 0.  0.
         25    1    4    4    0    0 -0.14246294367E+02 -0.84885820087E+02 -0.12322816757E+03  0.19555369784E+03  0.12509000000E+03 0.  0.
         25    1    3    3    0    0  0.17240642441E+02  0.85393754674E+02 -0.32892406337E+03  0.36252983415E+03  0.12509000000E+03 0.  0.
         25    1    4    4    0    0 -0.29943480740E+01 -0.50793458757E+00 -0.10984125491E+03  0.16649874924E+03  0.12509000000E+03 0.  0.
<mgrwt>
<rscale>  2 0.45736507E+03</rscale>
<asrwt>0</asrwt>
<pdfrwt beam="1">  1       21 0.11955058E-01 0.45736507E+03</pdfrwt>
<pdfrwt beam="2">  1       21 0.94601162E-01 0.45736507E+03</pdfrwt>
<totfact> 0.50640058E+04</totfact>
</mgrwt>
</event>
<event>
 7    0  0.4712189E-002  0.4588024E+03  0.7546771E-02  0.1025129E+00
         21   -1    0    0  502  501  0.00000000000E+00  0.00000000000E+00  0.37407493490E+02  0.37407493490E+02  0.00000000000E+00 0. -1.
         21   -1    0    0  501  502 -0.00000000000E+00 -0.00000000000E+00 -0.14068013198E+04  0.14068013198E+04  0.00000000000E+00 0. -1.
      99926    2    1    2    0    0  0.35527136788E-14  0.00000000000E+00 -0.13693938263E+04  0.14442088132E+04  0.45880240283E+03 0.  0.
      99925    2    3    3    0    0 -0.30359682012E+02 -0.93530474621E+02 -0.66124733087E+03  0.71840675551E+03  0.26304101163E+03 0.  0.
         25    1    3    3    0    0  0.30359682012E+02  0.93530474621E+02 -0.70814649540E+03  0.72580205774E+03  0.12509000000E+03 0.  0.
         25    1    4    4    0    0 -0.38578398790E+02 -0.36317510370E+02 -0.24771501406E+03  0.28251989435E+03  0.12509000000E+03 0.  0.
         25    1    4    4    0    0  0.82187167783E+01 -0.57212964250E+02 -0.41353231680E+03  0.43588686115E+03  0.12509000000E+03 0.  0.
<mgrwt>
<rscale>  2 0.45880240E+03</rscale>
<asrwt>0</asrwt>
<pdfrwt beam="1">  1       21 0.55011037E-02 0.45880240E+03</pdfrwt>
<pdfrwt beam="2">  1       21 0.20688248E+00 0.45880240E+03</pdfrwt>
<totfact> 0.24447108E+04</totfact>
</mgrwt>
</event>
<event>
 7    0  0.4712189E-002  0.5109579E+03  0.7546771E-02  0.1010958E+00
         21   -1    0    0  502  501  0.00000000000E+00  0.00000000000E+00  0.87505592309E+03  0.87505592309E+03  0.00000000000E+00 0. -1.
         21   -1    0    0  501  502 -0.00000000000E+00 -0.00000000000E+00 -0.74588938493E+02  0.74588938493E+02  0.00000000000E+00 0. -1.
      99926    2    1    2    0    0  0.00000000000E+00  0.53290705182E-14  0.80046698459E+03  0.94964486158E+03  0.51095789425E+03 0.  0.
      99925    2    3    3    0    0  0.12842484064E+02 -0.88926783103E+01  0.18619465675E+03  0.32257069533E+03  0.26294370910E+03 0.  0.
         25    1    4    4    0    0  0.14776200505E+02  0.33996892006E+02  0.10411426670E+03  0.16691738495E+03  0.12509000000E+03 0.  0.
         25    1    4    4    0    0 -0.19337164413E+01 -0.42889570316E+02  0.82080390047E+02  0.15565331038E+03  0.12509000000E+03 0.  0.
         25    1    3    3    0    0 -0.12842484064E+02  0.88926783103E+01  0.61427232785E+03  0.62707416626E+03  0.12509000000E+03 0.  0.
<mgrwt>
<rscale>  2 0.51095789E+03</rscale>
<asrwt>0</asrwt>
<pdfrwt beam="1">  1       21 0.12868469E+00 0.51095789E+03</pdfrwt>
<pdfrwt beam="2">  1       21 0.10968962E-01 0.51095789E+03</pdfrwt>
<totfact> 0.27163901E+04</totfact>
</mgrwt>
</event>
<event>
 7    0  0.4712189E-002  0.4561778E+03  0.7546771E-02  0.1025896E+00
         21   -1    0    0  502  501  0.00000000000E+00  0.00000000000E+00  0.16683082455E+04  0.16683082455E+04  0.00000000000E+00 0.  1.
         21   -1    0    0  501  502 -0.00000000000E+00 -0.00000000000E+00 -0.31184016849E+02  0.31184016849E+02  0.00000000000E+00 0.  1.
      99926    2    1    2    0    0  0.00000000000E+00  0.00000000000E+00  0.16371242286E+04  0.16994922623E+04  0.45617782689E+03 0.  0.
      99925    2    3    3    0    0 -0.11096773482E+03 -0.19252545520E+02  0.11010900073E+04  0.11376518106E+04  0.26299798338E+03 0.  0.
         25    1    4    4    0    0 -0.31613091699E+02 -0.10251427492E+02  0.65046043119E+03  0.66321245463E+03  0.12509000000E+03 0.  0.
         25    1    4    4    0    0 -0.79354643125E+02 -0.90011180282E+01  0.45062957611E+03  0.47443935595E+03  0.12509000000E+03 0.  0.
         25    1    3    3    0    0  0.11096773482E+03  0.19252545520E+02  0.53603422131E+03  0.56184045173E+03  0.12509000000E+03 0.  0.
<mgrwt>
<rscale>  2 0.45617783E+03</rscale>
<asrwt>0</asrwt>
<pdfrwt beam="1">  1       21 0.24533939E+00 0.45617783E+03</pdfrwt>
<pdfrwt beam="2">  1       21 0.45858859E-02 0.45617783E+03</pdfrwt>
<totfact> 0.19096979E+04</totfact>
</mgrwt>
</event>
<event>
 7    0  0.4712189E-002  0.4529886E+03  0.7546771E-02  0.1026835E+00
         21   -1    0    0  502  501  0.00000000000E+00  0.00000000000E+00  0.23905677184E+03  0.23905677184E+03  0.00000000000E+00 0. -1.
         21   -1    0    0  501  502 -0.00000000000E+00 -0.00000000000E+00 -0.21459200248E+03  0.21459200248E+03  0.00000000000E+00 0. -1.
      99926    2    1    2    0    0  0.00000000000E+00  0.14210854715E-13  0.24464769367E+02  0.45364877432E+03  0.45298861520E+03 0.  0.
      99925    2    3    3    0    0  0.30731946370E+02  0.95256579084E+02 -0.34522519439E+02  0.28292889637E+03  0.26237127828E+03 0.  0.
         25    1    4    4    0    0 -0.14059863750E+02  0.27926323066E+02  0.42622878753E+01  0.12900866051E+03  0.12509000000E+03 0.  0.
         25    1    4    4    0    0  0.44791810120E+02  0.67330256018E+02 -0.38784807315E+02  0.15392023586E+03  0.12509000000E+03 0.  0.
         25    1    3    3    0    0 -0.30731946370E+02 -0.95256579084E+02  0.58987288807E+02  0.17071987795E+03  0.12509000000E+03 0.  0.
<mgrwt>
<rscale>  2 0.45298862E+03</rscale>
<asrwt>0</asrwt>
<pdfrwt beam="1">  1       21 0.35155408E-01 0.45298862E+03</pdfrwt>
<pdfrwt beam="2">  1       21 0.31557647E-01 0.45298862E+03</pdfrwt>
<totfact> 0.69757730E+04</totfact>
</mgrwt>
</event>
<event>
 7    0  0.4712189E-002  0.4557046E+03  0.7546771E-02  0.1026034E+00
         21   -1    0    0  502  501  0.00000000000E+00  0.00000000000E+00  0.26332926247E+03  0.26332926247E+03  0.00000000000E+00 0. -1.
         21   -1    0    0  501  502 -0.00000000000E+00 -0.00000000000E+00 -0.19715496965E+03  0.19715496965E+03  0.00000000000E+00 0. -1.
      99926    2    1    2    0    0  0.00000000000E+00  0.00000000000E+00  0.66174292816E+02  0.46048423212E+03  0.45570460937E+03 0.  0.
      99925    2    3    3    0    0 -0.49450206651E+02 -0.35772995299E+02  0.13873455838E+03  0.30352076386E+03  0.26296871729E+03 0.  0.
         25    1    4    4    0    0  0.16152969917E+02 -0.12752709908E+02  0.68720633563E+02  0.14419980452E+03  0.12509000000E+03 0.  0.
         25    1    4    4    0    0 -0.65603176567E+02 -0.23020285391E+02  0.70013924813E+02  0.15932095933E+03  0.12509000000E+03 0.  0.
         25    1    3    3    0    0  0.49450206651E+02  0.35772995299E+02 -0.72560265560E+02  0.15696346826E+03  0.12509000000E+03 0.  0.
<mgrwt>
<rscale>  2 0.45570461E+03</rscale>
<asrwt>0</asrwt>
<pdfrwt beam="1">  1       21 0.38724892E-01 0.45570461E+03</pdfrwt>
<pdfrwt beam="2">  1       21 0.28993378E-01 0.45570461E+03</pdfrwt>
<totfact> 0.67763731E+04</totfact>
</mgrwt>
</event>
<event>
 7    0  0.4712189E-002  0.4540833E+03  0.7546771E-02  0.1026511E+00
         21   -1    0    0  502  501  0.00000000000E+00  0.00000000000E+00  0.22244236545E+03  0.22244236545E+03  0.00000000000E+00 0. -1.
         21   -1    0    0  501  502 -0.00000000000E+00 -0.00000000000E+00 -0.23173607936E+03  0.23173607936E+03  0.00000000000E+00 0. -1.
      99926    2    1    2    0    0 -0.71054273576E-14  0.00000000000E+00 -0.92937139066E+01  0.45417844482E+03  0.45408334765E+03 0.  0.
      99925    2    3    3    0    0 -0.34606813884E+02 -0.10637373564E+03 -0.16391041377E+02  0.28621748697E+03  0.26294254203E+03 0.  0.
         25    1    4    4    0    0  0.43854462842E+01 -0.52978095834E+02  0.26280366132E+02  0.13843437623E+03  0.12509000000E+03 0.  0.
         25    1    3    3    0    0  0.34606813884E+02  0.10637373564E+03  0.70973274700E+01  0.16796095784E+03  0.12509000000E+03 0.  0.
         25    1    4    4    0    0 -0.38992260168E+02 -0.53395639808E+02 -0.42671407509E+02  0.14778311075E+03  0.12509000000E+03 0.  0.
<mgrwt>
<rscale>  2 0.45408335E+03</rscale>
<asrwt>0</asrwt>
<pdfrwt beam="1">  1       21 0.32712113E-01 0.45408335E+03</pdfrwt>
<pdfrwt beam="2">  1       21 0.34078835E-01 0.45408335E+03</pdfrwt>
<totfact> 0.69110108E+04</totfact>
</mgrwt>
</event>
<event>
 7    0  0.4712189E-002  0.4513873E+03  0.7546771E-02  0.1027309E+00
         21   -1    0    0  502  501  0.00000000000E+00  0.00000000000E+00  0.14456634218E+03  0.14456634218E+03  0.00000000000E+00 0.  1.
         21   -1    0    0  501  502 -0.00000000000E+00 -0.00000000000E+00 -0.35234768551E+03  0.35234768551E+03  0.00000000000E+00 0.  1.
      99926    2    1    2    0    0  0.00000000000E+00  0.00000000000E+00 -0.20778134333E+03  0.49691402769E+03  0.45138726641E+03 0.  0.
      99925    2    3    3    0    0 -0.21004984673E+02  0.48073782521E+02 -0.23706142505E+03  0.35814396884E+03  0.26328062068E+03 0.  0.
         25    1    3    3    0    0  0.21004984673E+02 -0.48073782521E+02  0.29280081719E+02  0.13877005885E+03  0.12509000000E+03 0.  0.
         25    1    4    4    0    0  0.27137521544E+01 -0.75599250132E+01 -0.14400531880E+03  0.19091767037E+03  0.12509000000E+03 0.  0.
         25    1    4    4    0    0 -0.23718736827E+02  0.55633707534E+02 -0.93056106247E+02  0.16722629847E+03  0.12509000000E+03 0.  0.
<mgrwt>
<rscale>  2 0.45138727E+03</rscale>
<asrwt>0</asrwt>
<pdfrwt beam="1">  1       21 0.21259757E-01 0.45138727E+03</pdfrwt>
<pdfrwt beam="2">  1       21 0.51815835E-01 0.45138727E+03</pdfrwt>
<totfact> 0.67400305E+04</totfact>
</mgrwt>
</event>
<event>
 7    0  0.4712189E-002  0.4607108E+03  0.7546771E-02  0.1024575E+00
         21   -1    0    0  502  501  0.00000000000E+00  0.00000000000E+00  0.46496677211E+03  0.46496677211E+03  0.00000000000E+00 0.  1.
         21   -1    0    0  501  502 -0.00000000000E+00 -0.00000000000E+00 -0.11412343193E+03  0.11412343193E+03  0.00000000000E+00 0.  1.
      99926    2    1    2    0    0  0.00000000000E+00  0.00000000000E+00  0.35084334018E+03  0.57909020404E+03  0.46071077160E+03 0.  0.
      99925    2    3    3    0    0  0.10461427446E+02  0.11737388907E+03  0.23424407809E+03  0.37141505551E+03  0.26304521291E+03 0.  0.
         25    1    4    4    0    0  0.17358219852E+01  0.10113598447E+03  0.14581497951E+03  0.21711982125E+03  0.12509000000E+03 0.  0.
         25    1    4    4    0    0  0.87256054612E+01  0.16237904595E+02  0.88429098587E+02  0.15429523425E+03  0.12509000000E+03 0.  0.
         25    1    3    3    0    0 -0.10461427446E+02 -0.11737388907E+03  0.11659926209E+03  0.20767514853E+03  0.12509000000E+03 0.  0.
<mgrwt>
<rscale>  2 0.46071077E+03</rscale>
<asrwt>0</asrwt>
<pdfrwt beam="1">  1       21 0.68377466E-01 0.46071077E+03</pdfrwt>
<pdfrwt beam="2">  1       21 0.16782858E-01 0.46071077E+03</pdfrwt>
<totfact> 0.57350585E+04</totfact>
</mgrwt>
</event>
<event>
 7    0  0.4712189E-002  0.4559079E+03  0.7546771E-02  0.1025975E+00
         21   -1    0    0  502  501  0.00000000000E+00  0.00000000000E+00  0.42733752105E+03  0.42733752105E+03  0.00000000000E+00 0. -1.
         21   -1    0    0  501  502 -0.00000000000E+00 -0.00000000000E+00 -0.12159711843E+03  0.12159711843E+03  0.00000000000E+00 0. -1.
      99926    2    1    2    0    0  0.00000000000E+00  0.00000000000E+00  0.30574040262E+03  0.54893463948E+03  0.45590793437E+03 0.  0.
      99925    2    3    3    0    0  0.46612880377E+02 -0.10264107236E+03  0.17166774376E+03  0.33368841697E+03  0.26300227189E+03 0.  0.
         25    1    4    4    0    0  0.49494369041E+02 -0.21347486805E+02  0.70112957256E+02  0.15319511296E+03  0.12509000000E+03 0.  0.
         25    1    3    3    0    0 -0.46612880377E+02  0.10264107236E+03  0.13407265886E+03  0.21524622251E+03  0.12509000000E+03 0.  0.
         25    1    4    4    0    0 -0.28814886637E+01 -0.81293585552E+02  0.10155478651E+03  0.18049330401E+03  0.12509000000E+03 0.  0.
<mgrwt>
<rscale>  2 0.45590793E+03</rscale>
<asrwt>0</asrwt>
<pdfrwt beam="1">  1       21 0.62843752E-01 0.45590793E+03</pdfrwt>
<pdfrwt beam="2">  1       21 0.17881929E-01 0.45590793E+03</pdfrwt>
<totfact> 0.61494021E+04</totfact>
</mgrwt>
</event>
<event>
 7    0  0.4712189E-002  0.4538592E+03  0.7546771E-02  0.1026577E+00
         21   -1    0    0  502  501  0.00000000000E+00  0.00000000000E+00  0.34456558651E+03  0.34456558651E+03  0.00000000000E+00 0.  1.
         21   -1    0    0  501  502 -0.00000000000E+00 -0.00000000000E+00 -0.14945497893E+03  0.14945497893E+03  0.00000000000E+00 0.  1.
      99926    2    1    2    0    0  0.00000000000E+00  0.00000000000E+00  0.19511060757E+03  0.49402056544E+03  0.45385919611E+03 0.  0.
      99925    2    3    3    0    0 -0.13753655693E+02 -0.10115532255E+03  0.72853873564E+02  0.29149703734E+03  0.26313736633E+03 0.  0.
         25    1    3    3    0    0  0.13753655693E+02  0.10115532255E+03  0.12225673401E+03  0.20252352810E+03  0.12509000000E+03 0.  0.
         25    1    4    4    0    0 -0.22946867135E+01 -0.63367901705E+02 -0.24099108785E+01  0.14026429454E+03  0.12509000000E+03 0.  0.
         25    1    4    4    0    0 -0.11458968980E+02 -0.37787420843E+02  0.75263784443E+02  0.15123274279E+03  0.12509000000E+03 0.  0.
<mgrwt>
<rscale>  2 0.45385920E+03</rscale>
<asrwt>0</asrwt>
<pdfrwt beam="1">  1       21 0.50671410E-01 0.45385920E+03</pdfrwt>
<pdfrwt beam="2">  1       21 0.21978673E-01 0.45385920E+03</pdfrwt>
<totfact> 0.66291127E+04</totfact>
</mgrwt>
</event>
<event>
 7    0  0.4712189E-002  0.4555937E+03  0.7546771E-02  0.1026067E+00
         21   -1    0    0  502  501  0.00000000000E+00  0.00000000000E+00  0.56040720949E+03  0.56040720949E+03  0.00000000000E+00 0.  1.
         21   -1    0    0  501  502 -0.00000000000E+00 -0.00000000000E+00 -0.92595909083E+02  0.92595909083E+02  0.00000000000E+00 0.  1.
      99926    2    1    2    0    0  0.00000000000E+00  0.71054273576E-14  0.46781130040E+03  0.65300311857E+03  0.45559374455E+03 0.  0.
      99925    2    3    3    0    0 -0.69407504760E+02  0.44936578381E+02  0.40607679631E+03  0.49084469329E+03  0.26304647999E+03 0.  0.
         25    1    4    4    0    0 -0.36936814203E+02 -0.17255643071E+02  0.17628121442E+03  0.21996513387E+03  0.12509000000E+03 0.  0.
         25    1    4    4    0    0 -0.32470690557E+02  0.62192221453E+02  0.22979558189E+03  0.27087955942E+03  0.12509000000E+03 0.  0.
         25    1    3    3    0    0  0.69407504760E+02 -0.44936578381E+02  0.61734504093E+02  0.16215842528E+03  0.12509000000E+03 0.  0.
<mgrwt>
<rscale>  2 0.45559374E+03</rscale>
<asrwt>0</asrwt>
<pdfrwt beam="1">  1       21 0.82412823E-01 0.45559374E+03</pdfrwt>
<pdfrwt beam="2">  1       21 0.13617046E-01 0.45559374E+03</pdfrwt>
<totfact> 0.55269500E+04</totfact>
</mgrwt>
</event>
<event>
 7    0  0.4712189E-002  0.4541381E+03  0.7546771E-02  0.1026495E+00
         21   -1    0    0  502  501  0.00000000000E+00  0.00000000000E+00  0.14769097050E+04  0.14769097050E+04  0.00000000000E+00 0. -1.
         21   -1    0    0  501  502 -0.00000000000E+00 -0.00000000000E+00 -0.34910976291E+02  0.34910976291E+02  0.00000000000E+00 0. -1.
      99926    2    1    2    0    0  0.00000000000E+00  0.00000000000E+00  0.14419987287E+04  0.15118206813E+04  0.45413812742E+03 0.  0.
      99925    2    3    3    0    0  0.54643172202E+01 -0.10919761325E+03  0.99070453790E+03  0.10309174350E+04  0.26332736078E+03 0.  0.
         25    1    4    4    0    0 -0.85797008148E+01 -0.13931967605E+02  0.48556087495E+03  0.50168175407E+03  0.12509000000E+03 0.  0.
         25    1    4    4    0    0  0.14044018035E+02 -0.95265645648E+02  0.50514366296E+03  0.52923568097E+03  0.12509000000E+03 0.  0.
         25    1    3    3    0    0 -0.54643172202E+01  0.10919761325E+03  0.45129419082E+03  0.48090324627E+03  0.12509000000E+03 0.  0.
<mgrwt>
<rscale>  2 0.45413813E+03</rscale>
<asrwt>0</asrwt>
<pdfrwt beam="1">  1       21 0.21719256E+00 0.45413813E+03</pdfrwt>
<pdfrwt beam="2">  1       21 0.51339681E-02 0.45413813E+03</pdfrwt>
<totfact> 0.23648812E+04</totfact>
</mgrwt>
</event>
<event>
 7    0  0.4712189E-002  0.4227242E+03  0.7546771E-02  0.1036183E+00
         21   -1    0    0  502  501  0.00000000000E+00  0.00000000000E+00  0.94003089091E+03  0.94003089091E+03  0.00000000000E+00 0. -1.
         21   -1    0    0  501  502 -0.00000000000E+00 -0.00000000000E+00 -0.47523898071E+02  0.47523898071E+02  0.00000000000E+00 0. -1.
      99926    2    1    2    0    0 -0.17763568394E-14  0.00000000000E+00  0.89250699284E+03  0.98755478898E+03  0.42272417600E+03 0.  0.
      99925    2    3    3    0    0 -0.12707691719E+02  0.76163822840E+02  0.53959171800E+03  0.60524717376E+03  0.26306369167E+03 0.  0.
         25    1    4    4    0    0 -0.23014661125E+02  0.73667498958E+02  0.32372448672E+03  0.35553006404E+03  0.12509000000E+03 0.  0.
         25    1    3    3    0    0  0.12707691719E+02 -0.76163822840E+02  0.35291527484E+03  0.38230761522E+03  0.12509000000E+03 0.  0.
         25    1    4    4    0    0  0.10306969406E+02  0.24963238820E+01  0.21586723128E+03  0.24971710973E+03  0.12509000000E+03 0.  0.
<mgrwt>
<rscale>  2 0.42272418E+03</rscale>
<asrwt>0</asrwt>
<pdfrwt beam="1">  1       21 0.13823983E+00 0.42272418E+03</pdfrwt>
<pdfrwt beam="2">  1       21 0.69888091E-02 0.42272418E+03</pdfrwt>
<totfact> 0.51452762E+04</totfact>
</mgrwt>
</event>
<event>
 7    0  0.4712189E-002  0.4556235E+03  0.7546771E-02  0.1026058E+00
         21   -1    0    0  502  501  0.00000000000E+00  0.00000000000E+00  0.13184824977E+04  0.13184824977E+04  0.00000000000E+00 0. -1.
         21   -1    0    0  501  502 -0.00000000000E+00 -0.00000000000E+00 -0.39362056450E+02  0.39362056450E+02  0.00000000000E+00 0. -1.
      99926    2    1    2    0    0  0.00000000000E+00  0.00000000000E+00  0.12791204412E+04  0.13578445541E+04  0.45562345199E+03 0.  0.
      99925    2    3    3    0    0 -0.77478599625E+02 -0.66816487368E+02  0.65605959125E+03  0.71416784392E+03  0.26297175825E+03 0.  0.
         25    1    4    4    0    0 -0.41593290206E+02 -0.43160383375E+01  0.24119173077E+03  0.27489923439E+03  0.12509000000E+03 0.  0.
         25    1    3    3    0    0  0.77478599625E+02  0.66816487368E+02  0.62306084998E+03  0.64367671021E+03  0.12509000000E+03 0.  0.
         25    1    4    4    0    0 -0.35885309419E+02 -0.62500449031E+02  0.41486786048E+03  0.43926860953E+03  0.12509000000E+03 0.  0.
<mgrwt>
<rscale>  2 0.45562345E+03</rscale>
<asrwt>0</asrwt>
<pdfrwt beam="1">  1       21 0.19389446E+00 0.45562345E+03</pdfrwt>
<pdfrwt beam="2">  1       21 0.57885386E-02 0.45562345E+03</pdfrwt>
<totfact> 0.27344602E+04</totfact>
</mgrwt>
</event>
<event>
 7    0  0.4712189E-002  0.4667889E+03  0.7546771E-02  0.1022830E+00
         21   -1    0    0  502  501  0.00000000000E+00  0.00000000000E+00  0.15422409511E+03  0.15422409511E+03  0.00000000000E+00 0.  1.
         21   -1    0    0  501  502 -0.00000000000E+00 -0.00000000000E+00 -0.35320668225E+03  0.35320668225E+03  0.00000000000E+00 0.  1.
      99926    2    1    2    0    0  0.00000000000E+00  0.00000000000E+00 -0.19898258715E+03  0.50743077736E+03  0.46678894998E+03 0.  0.
      99925    2    3    3    0    0 -0.49657426027E+01  0.44433937085E+02  0.17158538137E+01  0.26675172620E+03  0.26297244325E+03 0.  0.
         25    1    4    4    0    0  0.23607689030E+02  0.42592144606E+02  0.24408201564E+02  0.13643563379E+03  0.12509000000E+03 0.  0.
         25    1    4    4    0    0 -0.28573431633E+02  0.18417924787E+01 -0.22692347751E+02  0.13031609241E+03  0.12509000000E+03 0.  0.
         25    1    3    3    0    0  0.49657426027E+01 -0.44433937085E+02 -0.20069844096E+03  0.24067905116E+03  0.12509000000E+03 0.  0.
<mgrwt>
<rscale>  2 0.46678895E+03</rscale>
<asrwt>0</asrwt>
<pdfrwt beam="1">  1       21 0.22680014E-01 0.46678895E+03</pdfrwt>
<pdfrwt beam="2">  1       21 0.51942159E-01 0.46678895E+03</pdfrwt>
<totfact> 0.59031165E+04</totfact>
</mgrwt>
</event>
<event>
 7    0  0.4712189E-002  0.4542633E+03  0.7546771E-02  0.1026458E+00
         21   -1    0    0  502  501  0.00000000000E+00  0.00000000000E+00  0.20345390300E+03  0.20345390300E+03  0.00000000000E+00 0. -1.
         21   -1    0    0  501  502 -0.00000000000E+00 -0.00000000000E+00 -0.25356504273E+03  0.25356504273E+03  0.00000000000E+00 0. -1.
      99926    2    1    2    0    0  0.00000000000E+00 -0.71054273576E-14 -0.50111139726E+02  0.45701894573E+03  0.45426334920E+03 0.  0.
      99925    2    3    3    0    0  0.80682623808E+02 -0.43306475414E+02 -0.97230843735E+02  0.29499144435E+03  0.26302277214E+03 0.  0.
         25    1    4    4    0    0  0.27694559919E+02 -0.49198227181E+02 -0.77438649817E+02  0.15758079449E+03  0.12509000000E+03 0.  0.
         25    1    3    3    0    0 -0.80682623808E+02  0.43306475414E+02  0.47119704009E+02  0.16202750138E+03  0.12509000000E+03 0.  0.
         25    1    4    4    0    0  0.52988063889E+02  0.58917517680E+01 -0.19792193918E+02  0.13741064986E+03  0.12509000000E+03 0.  0.
<mgrwt>
<rscale>  2 0.45426335E+03</rscale>
<asrwt>0</asrwt>
<pdfrwt beam="1">  1       21 0.29919692E-01 0.45426335E+03</pdfrwt>
<pdfrwt beam="2">  1       21 0.37288977E-01 0.45426335E+03</pdfrwt>
<totfact> 0.68801566E+04</totfact>
</mgrwt>
</event>
<event>
 7    0  0.4712189E-002  0.4529213E+03  0.7546771E-02  0.1026854E+00
         21   -1    0    0  502  501  0.00000000000E+00  0.00000000000E+00  0.33538877882E+03  0.33538877882E+03  0.00000000000E+00 0. -1.
         21   -1    0    0  501  502 -0.00000000000E+00 -0.00000000000E+00 -0.15291040107E+03  0.15291040107E+03  0.00000000000E+00 0. -1.
      99926    2    1    2    0    0  0.00000000000E+00 -0.22204460493E-14  0.18247837775E+03  0.48829917988E+03  0.45292132951E+03 0.  0.
      99925    2    3    3    0    0 -0.48829176393E+02 -0.37188662963E+01  0.22400903773E+03  0.34769184632E+03  0.26136459702E+03 0.  0.
         25    1    4    4    0    0 -0.34575090653E+02  0.33874932121E+02  0.10372279088E+03  0.16955492729E+03  0.12509000000E+03 0.  0.
         25    1    3    3    0    0  0.48829176393E+02  0.37188662963E+01 -0.41530659981E+02  0.14060733356E+03  0.12509000000E+03 0.  0.
         25    1    4    4    0    0 -0.14254085740E+02 -0.37593798417E+02  0.12028624685E+03  0.17813691903E+03  0.12509000000E+03 0.  0.
<mgrwt>
<rscale>  2 0.45292133E+03</rscale>
<asrwt>0</asrwt>
<pdfrwt beam="1">  1       21 0.49321879E-01 0.45292133E+03</pdfrwt>
<pdfrwt beam="2">  1       21 0.22486824E-01 0.45292133E+03</pdfrwt>
<totfact> 0.67202909E+04</totfact>
</mgrwt>
</event>
<event>
 7    0  0.4712189E-002  0.4437009E+03  0.7546771E-02  0.1029617E+00
         21   -1    0    0  502  501  0.00000000000E+00  0.00000000000E+00  0.26011802455E+03  0.26011802455E+03  0.00000000000E+00 0. -1.
         21   -1    0    0  501  502 -0.00000000000E+00 -0.00000000000E+00 -0.18921268754E+03  0.18921268754E+03  0.00000000000E+00 0. -1.
      99926    2    1    2    0    0  0.00000000000E+00  0.00000000000E+00  0.70905337009E+02  0.44933071208E+03  0.44370093758E+03 0.  0.
      99925    2    3    3    0    0 -0.66809118339E+02 -0.58383364137E+02  0.96546773882E+02  0.29384094751E+03  0.26296225468E+03 0.  0.
         25    1    3    3    0    0  0.66809118339E+02  0.58383364137E+02 -0.25641436872E+02  0.15548976457E+03  0.12509000000E+03 0.  0.
         25    1    4    4    0    0 -0.51688455547E+02 -0.60415470681E+02  0.74572171157E+02  0.16592239857E+03  0.12509000000E+03 0.  0.
         25    1    4    4    0    0 -0.15120662792E+02  0.20321065439E+01  0.21974602725E+02  0.12791854895E+03  0.12509000000E+03 0.  0.
<mgrwt>
<rscale>  2 0.44370094E+03</rscale>
<asrwt>0</asrwt>
<pdfrwt beam="1">  1       21 0.38252651E-01 0.44370094E+03</pdfrwt>
<pdfrwt beam="2">  1       21 0.27825395E-01 0.44370094E+03</pdfrwt>
<totfact> 0.75546181E+04</totfact>
</mgrwt>
</event>
<event>
 7    0  0.4712189E-002  0.4461767E+03  0.7546771E-02  0.1028868E+00
         21   -1    0    0  502  501  0.00000000000E+00  0.00000000000E+00  0.82940681639E+02  0.82940681639E+02  0.00000000000E+00 0.  1.
         21   -1    0    0  501  502 -0.00000000000E+00 -0.00000000000E+00 -0.60004825852E+03  0.60004825852E+03  0.00000000000E+00 0.  1.
      99926    2    1    2    0    0  0.00000000000E+00  0.00000000000E+00 -0.51710757688E+03  0.68298894016E+03  0.44617669853E+03 0.  0.
      99925    2    3    3    0    0  0.21358217178E+02 -0.93228232856E+02 -0.26292580374E+03  0.38398466136E+03  0.26299537077E+03 0.  0.
         25    1    4    4    0    0  0.33610853027E+01 -0.67984127609E+02 -0.18469986683E+03  0.23322668674E+03  0.12509000000E+03 0.  0.
         25    1    4    4    0    0  0.17997131876E+02 -0.25244105247E+02 -0.78225936904E+02  0.15075797461E+03  0.12509000000E+03 0.  0.
         25    1    3    3    0    0 -0.21358217178E+02  0.93228232856E+02 -0.25418177314E+03  0.29900427880E+03  0.12509000000E+03 0.  0.
<mgrwt>
<rscale>  2 0.44617670E+03</rscale>
<asrwt>0</asrwt>
<pdfrwt beam="1">  1       21 0.12197159E-01 0.44617670E+03</pdfrwt>
<pdfrwt beam="2">  1       21 0.88242389E-01 0.44617670E+03</pdfrwt>
<totfact> 0.57744714E+04</totfact>
</mgrwt>
</event>
<event>
 7    0  0.4712189E-002  0.4602288E+03  0.7546771E-02  0.1024715E+00
         21   -1    0    0  502  501  0.00000000000E+00  0.00000000000E+00  0.10744980590E+03  0.10744980590E+03  0.00000000000E+00 0. -1.
         21   -1    0    0  501  502 -0.00000000000E+00 -0.00000000000E+00 -0.49281279845E+03  0.49281279845E+03  0.00000000000E+00 0. -1.
      99926    2    1    2    0    0  0.00000000000E+00 -0.14210854715E-13 -0.38536299255E+03  0.60026260435E+03  0.46022881066E+03 0.  0.
      99925    2    3    3    0    0 -0.90664326139E+01 -0.11769395039E+03 -0.24264998181E+03  0.37677081995E+03  0.26295089073E+03 0.  0.
         25    1    3    3    0    0  0.90664326139E+01  0.11769395039E+03 -0.14271301074E+03  0.22349178440E+03  0.12509000000E+03 0.  0.
         25    1    4    4    0    0 -0.29107031718E+02 -0.31028631872E+02 -0.87179998243E+02  0.15829673239E+03  0.12509000000E+03 0.  0.
         25    1    4    4    0    0  0.20040599104E+02 -0.86665318521E+02 -0.15546998357E+03  0.21847408757E+03  0.12509000000E+03 0.  0.
<mgrwt>
<rscale>  2 0.46022881E+03</rscale>
<asrwt>0</asrwt>
<pdfrwt beam="1">  1       21 0.15801442E-01 0.46022881E+03</pdfrwt>
<pdfrwt beam="2">  1       21 0.72472471E-01 0.46022881E+03</pdfrwt>
<totfact> 0.56299780E+04</totfact>
</mgrwt>
</event>
<event>
 7    0  0.4712189E-002  0.4561302E+03  0.7546771E-02  0.1025910E+00
         21   -1    0    0  502  501  0.00000000000E+00  0.00000000000E+00  0.23452076435E+03  0.23452076435E+03  0.00000000000E+00 0. -1.
         21   -1    0    0  501  502 -0.00000000000E+00 -0.00000000000E+00 -0.22178717385E+03  0.22178717385E+03  0.00000000000E+00 0. -1.
      99926    2    1    2    0    0  0.00000000000E+00  0.00000000000E+00  0.12733590500E+02  0.45630793820E+03  0.45613023374E+03 0.  0.
      99925    2    3    3    0    0  0.63887981166E+02  0.78511254918E+02  0.60829938517E+02  0.28836015441E+03  0.26306958385E+03 0.  0.
         25    1    3    3    0    0 -0.63887981166E+02 -0.78511254918E+02 -0.48096348017E+02  0.16794778379E+03  0.12509000000E+03 0.  0.
         25    1    4    4    0    0  0.21585227224E+01  0.62506827598E+02  0.45741058599E+02  0.14714453866E+03  0.12509000000E+03 0.  0.
         25    1    4    4    0    0  0.61729458444E+02  0.16004427320E+02  0.15088879918E+02  0.14121561575E+03  0.12509000000E+03 0.  0.
<mgrwt>
<rscale>  2 0.45613023E+03</rscale>
<asrwt>0</asrwt>
<pdfrwt beam="1">  1       21 0.34488348E-01 0.45613023E+03</pdfrwt>
<pdfrwt beam="2">  1       21 0.32615761E-01 0.45613023E+03</pdfrwt>
<totfact> 0.67836270E+04</totfact>
</mgrwt>
</event>
<event>
 7    0  0.4712189E-002  0.4554700E+03  0.7546771E-02  0.1026103E+00
         21   -1    0    0  502  501  0.00000000000E+00  0.00000000000E+00  0.31268769634E+02  0.31268769634E+02  0.00000000000E+00 0.  1.
         21   -1    0    0  501  502 -0.00000000000E+00 -0.00000000000E+00 -0.16586269061E+04  0.16586269061E+04  0.00000000000E+00 0.  1.
      99926    2    1    2    0    0  0.00000000000E+00  0.00000000000E+00 -0.16273581364E+04  0.16898956757E+04  0.45546996666E+03 0.  0.
      99925    2    3    3    0    0 -0.25546433337E+02 -0.88365305207E+02 -0.77590930078E+03  0.82440525099E+03  0.26295955471E+03 0.  0.
         25    1    4    4    0    0 -0.53269297354E+02 -0.47596124047E+02 -0.39156839947E+03  0.41722455420E+03  0.12509000000E+03 0.  0.
         25    1    4    4    0    0  0.27722864017E+02 -0.40769181160E+02 -0.38434090131E+03  0.40718069679E+03  0.12509000000E+03 0.  0.
         25    1    3    3    0    0  0.25546433337E+02  0.88365305207E+02 -0.85144883564E+03  0.86549042469E+03  0.12509000000E+03 0.  0.
<mgrwt>
<rscale>  2 0.45546997E+03</rscale>
<asrwt>0</asrwt>
<pdfrwt beam="1">  1       21 0.45983486E-02 0.45546997E+03</pdfrwt>
<pdfrwt beam="2">  1       21 0.24391572E+00 0.45546997E+03</pdfrwt>
<totfact> 0.19401734E+04</totfact>
</mgrwt>
</event>
<event>
 7    0  0.4712189E-002  0.4536223E+03  0.7546771E-02  0.1026647E+00
         21   -1    0    0  502  501  0.00000000000E+00  0.00000000000E+00  0.51181906695E+03  0.51181906695E+03  0.00000000000E+00 0.  1.
         21   -1    0    0  501  502 -0.00000000000E+00 -0.00000000000E+00 -0.10051072414E+03  0.10051072414E+03  0.00000000000E+00 0.  1.
      99926    2    1    2    0    0  0.00000000000E+00  0.00000000000E+00  0.41130834282E+03  0.61232979109E+03  0.45362233210E+03 0.  0.
      99925    2    3    3    0    0  0.35245867712E+02  0.10623210944E+03  0.25832646309E+03  0.38522079547E+03  0.26293529139E+03 0.  0.
         25    1    3    3    0    0 -0.35245867712E+02 -0.10623210944E+03  0.15298187973E+03  0.22710899562E+03  0.12509000000E+03 0.  0.
         25    1    4    4    0    0  0.49715259088E+00  0.27823172428E+02  0.15772590101E+03  0.20322240043E+03  0.12509000000E+03 0.  0.
         25    1    4    4    0    0  0.34748715121E+02  0.78408937016E+02  0.10060056208E+03  0.18199839504E+03  0.12509000000E+03 0.  0.
<mgrwt>
<rscale>  2 0.45362233E+03</rscale>
<asrwt>0</asrwt>
<pdfrwt beam="1">  1       21 0.75267509E-01 0.45362233E+03</pdfrwt>
<pdfrwt beam="2">  1       21 0.14780989E-01 0.45362233E+03</pdfrwt>
<totfact> 0.58560299E+04</totfact>
</mgrwt>
</event>
<event>
 7    0  0.4712189E-002  0.4488153E+03  0.7546771E-02  0.1028076E+00
         21   -1    0    0  502  501  0.00000000000E+00  0.00000000000E+00  0.31859876439E+02  0.31859876439E+02  0.00000000000E+00 0.  1.
         21   -1    0    0  501  502 -0.00000000000E+00 -0.00000000000E+00 -0.15806334218E+04  0.15806334218E+04  0.00000000000E+00 0.  1.
      99926    2    1    2    0    0  0.00000000000E+00  0.00000000000E+00 -0.15487735453E+04  0.16124932982E+04  0.44881526495E+03 0.  0.
      99925    2    3    3    0    0 -0.87654004357E+02 -0.61486917006E+02 -0.96108351671E+03  0.10021729370E+04  0.26306882020E+03 0.  0.
         25    1    4    4    0    0 -0.73427442264E+02 -0.17316909953E+02 -0.41262372148E+03  0.43771829786E+03  0.12509000000E+03 0.  0.
         25    1    4    4    0    0 -0.14226562092E+02 -0.44170007052E+02 -0.54845979523E+03  0.56445463917E+03  0.12509000000E+03 0.  0.
         25    1    3    3    0    0  0.87654004357E+02  0.61486917006E+02 -0.58769002862E+03  0.61032036119E+03  0.12509000000E+03 0.  0.
<mgrwt>
<rscale>  2 0.44881526E+03</rscale>
<asrwt>0</asrwt>
<pdfrwt beam="1">  1       21 0.46852762E-02 0.44881526E+03</pdfrwt>
<pdfrwt beam="2">  1       21 0.23244608E+00 0.44881526E+03</pdfrwt>
<totfact> 0.22195882E+04</totfact>
</mgrwt>
</event>
<event>
 7    0  0.4712189E-002  0.4598086E+03  0.7546771E-02  0.1024837E+00
         21   -1    0    0  502  501  0.00000000000E+00  0.00000000000E+00  0.19679790447E+04  0.19679790447E+04  0.00000000000E+00 0.  1.
         21   -1    0    0  501  502 -0.00000000000E+00 -0.00000000000E+00 -0.26858004636E+02  0.26858004636E+02  0.00000000000E+00 0.  1.
      99926    2    1    2    0    0 -0.14210854715E-13  0.00000000000E+00  0.19411210401E+04  0.19948370494E+04  0.45980861369E+03 0.  0.
      99925    2    3    3    0    0  0.73250868164E+02  0.74083697866E+02  0.97974490263E+03  0.10197751694E+04  0.26303467057E+03 0.  0.
         25    1    4    4    0    0  0.30672955226E+01  0.48817556189E+02  0.39695233886E+03  0.41905993548E+03  0.12509000000E+03 0.  0.
         25    1    3    3    0    0 -0.73250868164E+02 -0.74083697866E+02  0.96137613746E+03  0.97506187997E+03  0.12509000000E+03 0.  0.
         25    1    4    4    0    0  0.70183572641E+02  0.25266141677E+02  0.58279256377E+03  0.60071523393E+03  0.12509000000E+03 0.  0.
<mgrwt>
<rscale>  2 0.45980861E+03</rscale>
<asrwt>0</asrwt>
<pdfrwt beam="1">  1       21 0.28940858E+00 0.45980861E+03</pdfrwt>
<pdfrwt beam="2">  1       21 0.39497079E-02 0.45980861E+03</pdfrwt>
<totfact> 0.13291137E+04</totfact>
</mgrwt>
</event>
<event>
 7    0  0.4712189E-002  0.4584508E+03  0.7546771E-02  0.1025231E+00
         21   -1    0    0  502  501  0.00000000000E+00  0.00000000000E+00  0.57171569854E+02  0.57171569854E+02  0.00000000000E+00 0. -1.
         21   -1    0    0  501  502 -0.00000000000E+00 -0.00000000000E+00 -0.91906321196E+03  0.91906321196E+03  0.00000000000E+00 0. -1.
      99926    2    1    2    0    0  0.00000000000E+00  0.00000000000E+00 -0.86189164211E+03  0.97623478182E+03  0.45845081142E+03 0.  0.
      99925    2    3    3    0    0  0.94022205817E+02  0.70062114413E+02 -0.53187211713E+03  0.60433523889E+03  0.26188596167E+03 0.  0.
         25    1    4    4    0    0  0.11455669332E+02  0.29915514600E+02 -0.20126115547E+03  0.23912283700E+03  0.12509000000E+03 0.  0.
         25    1    4    4    0    0  0.82566536484E+02  0.40146599813E+02 -0.33061096166E+03  0.36521240189E+03  0.12509000000E+03 0.  0.
         25    1    3    3    0    0 -0.94022205817E+02 -0.70062114413E+02 -0.33001952498E+03  0.37189954293E+03  0.12509000000E+03 0.  0.
<mgrwt>
<rscale>  2 0.45845081E+03</rscale>
<asrwt>0</asrwt>
<pdfrwt beam="1">  1       21 0.84075845E-02 0.45845081E+03</pdfrwt>
<pdfrwt beam="2">  1       21 0.13515634E+00 0.45845081E+03</pdfrwt>
<totfact> 0.39032652E+04</totfact>
</mgrwt>
</event>
<event>
 7    0  0.4712189E-002  0.4524512E+03  0.7546771E-02  0.1026994E+00
         21   -1    0    0  502  501  0.00000000000E+00  0.00000000000E+00  0.74867408521E+02  0.74867408521E+02  0.00000000000E+00 0. -1.
         21   -1    0    0  501  502 -0.00000000000E+00 -0.00000000000E+00 -0.68358226630E+03  0.68358226630E+03  0.00000000000E+00 0. -1.
      99926    2    1    2    0    0  0.00000000000E+00  0.00000000000E+00 -0.60871485777E+03  0.75844967482E+03  0.45245124727E+03 0.  0.
      99925    2    3    3    0    0 -0.82801981241E+02  0.67154057536E+02 -0.43361483796E+03  0.51829688891E+03  0.26314255036E+03 0.  0.
         25    1    3    3    0    0  0.82801981241E+02 -0.67154057536E+02 -0.17510001981E+03  0.24015278591E+03  0.12509000000E+03 0.  0.
         25    1    4    4    0    0 -0.79905622359E+02  0.50986951394E+02 -0.22081359758E+03  0.27090723629E+03  0.12509000000E+03 0.  0.
         25    1    4    4    0    0 -0.28963588820E+01  0.16167106141E+02 -0.21280124038E+03  0.24738965262E+03  0.12509000000E+03 0.  0.
<mgrwt>
<rscale>  2 0.45245125E+03</rscale>
<asrwt>0</asrwt>
<pdfrwt beam="1">  1       21 0.11009913E-01 0.45245125E+03</pdfrwt>
<pdfrwt beam="2">  1       21 0.10052680E+00 0.45245125E+03</pdfrwt>
<totfact> 0.50849625E+04</totfact>
</mgrwt>
</event>
<event>
 7    0  0.4712189E-002  0.4520009E+03  0.7546771E-02  0.1027127E+00
         21   -1    0    0  502  501  0.00000000000E+00  0.00000000000E+00  0.32225513669E+03  0.32225513669E+03  0.00000000000E+00 0. -1.
         21   -1    0    0  501  502 -0.00000000000E+00 -0.00000000000E+00 -0.15849616870E+03  0.15849616870E+03  0.00000000000E+00 0. -1.
      99926    2    1    2    0    0  0.00000000000E+00  0.17763568394E-14  0.16375896799E+03  0.48075130538E+03  0.45200090490E+03 0.  0.
      99925    2    3    3    0    0  0.10935480449E+03  0.15837719371E+02  0.10007626510E+03  0.30211116050E+03  0.26276717421E+03 0.  0.
         25    1    4    4    0    0  0.77697707132E+02 -0.90757201335E+01  0.21770062625E+02  0.14913331659E+03  0.12509000000E+03 0.  0.
         25    1    3    3    0    0 -0.10935480449E+03 -0.15837719371E+02  0.63682702886E+02  0.17864014489E+03  0.12509000000E+03 0.  0.
         25    1    4    4    0    0  0.31657097354E+02  0.24913439504E+02  0.78306202476E+02  0.15297784391E+03  0.12509000000E+03 0.  0.
<mgrwt>
<rscale>  2 0.45200090E+03</rscale>
<asrwt>0</asrwt>
<pdfrwt beam="1">  1       21 0.47390461E-01 0.45200090E+03</pdfrwt>
<pdfrwt beam="2">  1       21 0.23308260E-01 0.45200090E+03</pdfrwt>
<totfact> 0.68255988E+04</totfact>
</mgrwt>
</event>
<event>
 7    0  0.4712189E-002  0.4736538E+03  0.7546771E-02  0.1020894E+00
         21   -1    0    0  502  501  0.00000000000E+00  0.00000000000E+00  0.80241791405E+02  0.80241791405E+02  0.00000000000E+00 0.  1.
         21   -1    0    0  501  502 -0.00000000000E+00 -0.00000000000E+00 -0.69897465483E+03  0.69897465483E+03  0.00000000000E+00 0.  1.
      99926    2    1    2    0    0  0.17763568394E-14  0.00000000000E+00 -0.61873286342E+03  0.77921644623E+03  0.47365379107E+03 0.  0.
      99925    2    3    3    0    0 -0.11144223748E+02 -0.12281340970E+03 -0.45020767504E+03  0.53579176682E+03  0.26301813513E+03 0.  0.
         25    1    3    3    0    0  0.11144223748E+02  0.12281340970E+03 -0.16852518839E+03  0.24342467941E+03  0.12509000000E+03 0.  0.
         25    1    4    4    0    0 -0.19724301637E+02 -0.23946532270E+02 -0.17067571753E+03  0.21386957038E+03  0.12509000000E+03 0.  0.
         25    1    4    4    0    0  0.85800778894E+01 -0.98866877432E+02 -0.27953195751E+03  0.32192219644E+03  0.12509000000E+03 0.  0.
<mgrwt>
<rscale>  2 0.47365379E+03</rscale>
<asrwt>0</asrwt>
<pdfrwt beam="1">  1       21 0.11800263E-01 0.47365379E+03</pdfrwt>
<pdfrwt beam="2">  1       21 0.10279040E+00 0.47365379E+03</pdfrwt>
<totfact> 0.42252078E+04</totfact>
</mgrwt>
</event>
<event>
 7    0  0.4712189E-002  0.4485979E+03  0.7546771E-02  0.1028141E+00
         21   -1    0    0  502  501  0.00000000000E+00  0.00000000000E+00  0.63732312401E+03  0.63732312401E+03  0.00000000000E+00 0. -1.
         21   -1    0    0  501  502 -0.00000000000E+00 -0.00000000000E+00 -0.78939575044E+02  0.78939575044E+02  0.00000000000E+00 0. -1.
      99926    2    1    2    0    0  0.14210854715E-13 -0.14210854715E-13  0.55838354897E+03  0.71626269906E+03  0.44859788932E+03 0.  0.
      99925    2    3    3    0    0 -0.67877453924E+02  0.82099577381E+02  0.35061683339E+03  0.45138120563E+03  0.26356240169E+03 0.  0.
         25    1    4    4    0    0 -0.74767729224E+02  0.55265984016E+02  0.20263947819E+03  0.25564586550E+03  0.12509000000E+03 0.  0.
         25    1    4    4    0    0  0.68902752992E+01  0.26833593364E+02  0.14797735520E+03  0.19573534014E+03  0.12509000000E+03 0.  0.
         25    1    3    3    0    0  0.67877453924E+02 -0.82099577381E+02  0.20776671558E+03  0.26488149343E+03  0.12509000000E+03 0.  0.
<mgrwt>
<rscale>  2 0.44859789E+03</rscale>
<asrwt>0</asrwt>
<pdfrwt beam="1">  1       21 0.93723986E-01 0.44859789E+03</pdfrwt>
<pdfrwt beam="2">  1       21 0.11608761E-01 0.44859789E+03</pdfrwt>
<totfact> 0.54733694E+04</totfact>
</mgrwt>
</event>
<event>
 7    0  0.4712189E-002  0.4600467E+03  0.7546771E-02  0.1024768E+00
         21   -1    0    0  502  501  0.00000000000E+00  0.00000000000E+00  0.26839580161E+03  0.26839580161E+03  0.00000000000E+00 0. -1.
         21   -1    0    0  501  502 -0.00000000000E+00 -0.00000000000E+00 -0.19713699077E+03  0.19713699077E+03  0.00000000000E+00 0. -1.
      99926    2    1    2    0    0  0.00000000000E+00 -0.88817841970E-15  0.71258810838E+02  0.46553279238E+03  0.46004669617E+03 0.  0.
      99925    2    3    3    0    0 -0.10688068988E+03 -0.45165006892E+01 -0.58472487858E+01  0.28377269450E+03  0.26277151896E+03 0.  0.
         25    1    4    4    0    0 -0.56997644423E+02  0.37755158471E+02 -0.17226135651E+01  0.14256457820E+03  0.12509000000E+03 0.  0.
         25    1    4    4    0    0 -0.49883045462E+02 -0.42271659160E+02 -0.41246352207E+01  0.14120811630E+03  0.12509000000E+03 0.  0.
         25    1    3    3    0    0  0.10688068988E+03  0.45165006892E+01  0.77106059624E+02  0.18176009787E+03  0.12509000000E+03 0.  0.
<mgrwt>
<rscale>  2 0.46004670E+03</rscale>
<asrwt>0</asrwt>
<pdfrwt beam="1">  1       21 0.39469971E-01 0.46004670E+03</pdfrwt>
<pdfrwt beam="2">  1       21 0.28990734E-01 0.46004670E+03</pdfrwt>
<totfact> 0.65118647E+04</totfact>
</mgrwt>
</event>
<event>
 7    0  0.4712189E-002  0.4437341E+03  0.7546771E-02  0.1029607E+00
         21   -1    0    0  502  501  0.00000000000E+00  0.00000000000E+00  0.10039925866E+03  0.10039925866E+03  0.00000000000E+00 0.  1.
         21   -1    0    0  501  502 -0.00000000000E+00 -0.00000000000E+00 -0.49029243427E+03  0.49029243427E+03  0.00000000000E+00 0.  1.
      99926    2    1    2    0    0 -0.88817841970E-15 -0.14210854715E-13 -0.38989317561E+03  0.59069169294E+03  0.44373414081E+03 0.  0.
      99925    2    3    3    0    0  0.77028228444E+01  0.95398612496E+02 -0.29601435567E+03  0.40733147457E+03  0.26293383705E+03 0.  0.
         25    1    4    4    0    0  0.72982080448E+01  0.86586374849E+02 -0.13733198037E+03  0.20508058192E+03  0.12509000000E+03 0.  0.
         25    1    4    4    0    0  0.40461479955E+00  0.88122376475E+01 -0.15868237531E+03  0.20225089265E+03  0.12509000000E+03 0.  0.
         25    1    3    3    0    0 -0.77028228444E+01 -0.95398612496E+02 -0.93878819933E+02  0.18336021836E+03  0.12509000000E+03 0.  0.
<mgrwt>
<rscale>  2 0.44373414E+03</rscale>
<asrwt>0</asrwt>
<pdfrwt beam="1">  1       21 0.14764597E-01 0.44373414E+03</pdfrwt>
<pdfrwt beam="2">  1       21 0.72101828E-01 0.44373414E+03</pdfrwt>
<totfact> 0.64837704E+04</totfact>
</mgrwt>
</event>
<event>
 7    0  0.4712189E-002  0.4558214E+03  0.7546771E-02  0.1026000E+00
         21   -1    0    0  502  501  0.00000000000E+00  0.00000000000E+00  0.11202126790E+03  0.11202126790E+03  0.00000000000E+00 0.  1.
         21   -1    0    0  501  502 -0.00000000000E+00 -0.00000000000E+00 -0.46369125200E+03  0.46369125200E+03  0.00000000000E+00 0.  1.
      99926    2    1    2    0    0  0.00000000000E+00  0.00000000000E+00 -0.35166998410E+03  0.57571251990E+03  0.45582137714E+03 0.  0.
      99925    2    3    3    0    0  0.87477890746E+02 -0.59105311733E+02 -0.27076592622E+03  0.39312338023E+03  0.26473757957E+03 0.  0.
         25    1    4    4    0    0  0.26245133206E+02 -0.16550215935E+02 -0.74945324877E+02  0.14908731162E+03  0.12509000000E+03 0.  0.
         25    1    3    3    0    0 -0.87477890746E+02  0.59105311733E+02 -0.80904057880E+02  0.18258913967E+03  0.12509000000E+03 0.  0.
         25    1    4    4    0    0  0.61232757540E+02 -0.42555095798E+02 -0.19582060134E+03  0.24403606861E+03  0.12509000000E+03 0.  0.
<mgrwt>
<rscale>  2 0.45582138E+03</rscale>
<asrwt>0</asrwt>
<pdfrwt beam="1">  1       21 0.16473716E-01 0.45582138E+03</pdfrwt>
<pdfrwt beam="2">  1       21 0.68189889E-01 0.45582138E+03</pdfrwt>
<totfact> 0.59809328E+04</totfact>
</mgrwt>
</event>
<event>
 7    0  0.4712189E-002  0.4641018E+03  0.7546771E-02  0.1023598E+00
         21   -1    0    0  502  501  0.00000000000E+00  0.00000000000E+00  0.19032804591E+03  0.19032804591E+03  0.00000000000E+00 0.  1.
         21   -1    0    0  501  502 -0.00000000000E+00 -0.00000000000E+00 -0.28292001567E+03  0.28292001567E+03  0.00000000000E+00 0.  1.
      99926    2    1    2    0    0  0.00000000000E+00  0.14210854715E-13 -0.92591969759E+02  0.47324806159E+03  0.46410177217E+03 0.  0.
      99925    2    3    3    0    0  0.43306650816E+02 -0.10510042418E+03 -0.10152247461E+03  0.30398841730E+03  0.26302201397E+03 0.  0.
         25    1    4    4    0    0  0.55951616978E+02 -0.60752433828E+02 -0.30636878013E+02  0.15299532036E+03  0.12509000000E+03 0.  0.
         25    1    4    4    0    0 -0.12644966162E+02 -0.44347990353E+02 -0.70885596593E+02  0.15099309693E+03  0.12509000000E+03 0.  0.
         25    1    3    3    0    0 -0.43306650816E+02  0.10510042418E+03  0.89305048472E+01  0.16925964429E+03  0.12509000000E+03 0.  0.
<mgrwt>
<rscale>  2 0.46410177E+03</rscale>
<asrwt>0</asrwt>
<pdfrwt beam="1">  1       21 0.27989419E-01 0.46410177E+03</pdfrwt>
<pdfrwt beam="2">  1       21 0.41605884E-01 0.46410177E+03</pdfrwt>
<totfact> 0.62552555E+04</totfact>
</mgrwt>
</event>
<event>
 7    0  0.4712189E-002  0.4678222E+03  0.7546771E-02  0.1022537E+00
         21   -1    0    0  502  501  0.00000000000E+00  0.00000000000E+00  0.83037038991E+02  0.83037038991E+02  0.00000000000E+00 0.  1.
         21   -1    0    0  501  502 -0.00000000000E+00 -0.00000000000E+00 -0.65891574879E+03  0.65891574879E+03  0.00000000000E+00 0.  1.
      99926    2    1    2    0    0  0.14210854715E-13  0.00000000000E+00 -0.57587870980E+03  0.74195278778E+03  0.46782224284E+03 0.  0.
      99925    2    3    3    0    0  0.11066197255E+03  0.45938140969E+02 -0.40674427185E+03  0.49985703985E+03  0.26468806668E+03 0.  0.
         25    1    3    3    0    0 -0.11066197255E+03 -0.45938140969E+02 -0.16913443795E+03  0.24209574793E+03  0.12509000000E+03 0.  0.
         25    1    4    4    0    0  0.16654627816E+02 -0.18593784726E+01 -0.19473056191E+03  0.23205243751E+03  0.12509000000E+03 0.  0.
         25    1    4    4    0    0  0.94007344735E+02  0.47797519442E+02 -0.21201370994E+03  0.26780460234E+03  0.12509000000E+03 0.  0.
<mgrwt>
<rscale>  2 0.46782224E+03</rscale>
<asrwt>0</asrwt>
<pdfrwt beam="1">  1       21 0.12211329E-01 0.46782224E+03</pdfrwt>
<pdfrwt beam="2">  1       21 0.96899379E-01 0.46782224E+03</pdfrwt>
<totfact> 0.45880990E+04</totfact>
</mgrwt>
</event>
<event>
 7    0  0.4712189E-002  0.4538473E+03  0.7546771E-02  0.1026581E+00
         21   -1    0    0  502  501  0.00000000000E+00  0.00000000000E+00  0.16140874992E+03  0.16140874992E+03  0.00000000000E+00 0.  1.
         21   -1    0    0  501  502 -0.00000000000E+00 -0.00000000000E+00 -0.31903069971E+03  0.31903069971E+03  0.00000000000E+00 0.  1.
      99926    2    1    2    0    0 -0.35527136788E-14  0.00000000000E+00 -0.15762194979E+03  0.48043944963E+03  0.45384731541E+03 0.  0.
      99925    2    3    3    0    0 -0.18843609290E+02  0.91563434538E+02 -0.16479888721E+03  0.32411299414E+03  0.26296694771E+03 0.  0.
         25    1    4    4    0    0 -0.89559429327E+01  0.23996581079E+02 -0.37645021406E+02  0.13311912167E+03  0.12509000000E+03 0.  0.
         25    1    4    4    0    0 -0.98876663569E+01  0.67566853459E+02 -0.12715386581E+03  0.19099387247E+03  0.12509000000E+03 0.  0.
         25    1    3    3    0    0  0.18843609290E+02 -0.91563434538E+02  0.71769374249E+01  0.15632645549E+03  0.12509000000E+03 0.  0.
<mgrwt>
<rscale>  2 0.45384732E+03</rscale>
<asrwt>0</asrwt>
<pdfrwt beam="1">  1       21 0.23736581E-01 0.45384732E+03</pdfrwt>
<pdfrwt beam="2">  1       21 0.46916279E-01 0.45384732E+03</pdfrwt>
<totfact> 0.67281625E+04</totfact>
</mgrwt>
</event>
<event>
 7    0  0.4712189E-002  0.4568779E+03  0.7546771E-02  0.1025691E+00
         21   -1    0    0  502  501  0.00000000000E+00  0.00000000000E+00  0.65362608384E+03  0.65362608384E+03  0.00000000000E+00 0.  1.
         21   -1    0    0  501  502 -0.00000000000E+00 -0.00000000000E+00 -0.79838230410E+02  0.79838230410E+02  0.00000000000E+00 0.  1.
      99926    2    1    2    0    0  0.71054273576E-14 -0.17763568394E-14  0.57378785343E+03  0.73346431425E+03  0.45687788252E+03 0.  0.
      99925    2    3    3    0    0  0.60249427825E+02 -0.89694262538E+01  0.20262167021E+03  0.33707777585E+03  0.26240320419E+03 0.  0.
         25    1    4    4    0    0  0.49830181587E+02 -0.38083183098E+02  0.94294490728E+02  0.16873747335E+03  0.12509000000E+03 0.  0.
         25    1    3    3    0    0 -0.60249427825E+02  0.89694262538E+01  0.37116618322E+03  0.39638653840E+03  0.12509000000E+03 0.  0.
         25    1    4    4    0    0  0.10419246239E+02  0.29113756844E+02  0.10832717948E+03  0.16834030250E+03  0.12509000000E+03 0.  0.
<mgrwt>
<rscale>  2 0.45687788E+03</rscale>
<asrwt>0</asrwt>
<pdfrwt beam="1">  1       21 0.96121480E-01 0.45687788E+03</pdfrwt>
<pdfrwt beam="2">  1       21 0.11740917E-01 0.45687788E+03</pdfrwt>
<totfact> 0.50375514E+04</totfact>
</mgrwt>
</event>
<event>
 7    0  0.4712189E-002  0.4559597E+03  0.7546771E-02  0.1025960E+00
         21   -1    0    0  502  501  0.00000000000E+00  0.00000000000E+00  0.69388150433E+02  0.69388150433E+02  0.00000000000E+00 0.  1.
         21   -1    0    0  501  502 -0.00000000000E+00 -0.00000000000E+00 -0.74904440997E+03  0.74904440997E+03  0.00000000000E+00 0.  1.
      99926    2    1    2    0    0  0.14210854715E-13 -0.71054273576E-14 -0.67965625953E+03  0.81843256040E+03  0.45595967453E+03 0.  0.
      99925    2    3    3    0    0 -0.10362534151E+03  0.47385712036E+02 -0.42270966524E+03  0.51077580763E+03  0.26310615245E+03 0.  0.
         25    1    3    3    0    0  0.10362534151E+03 -0.47385712036E+02 -0.25694659429E+03  0.30765675277E+03  0.12509000000E+03 0.  0.
         25    1    4    4    0    0 -0.82087418395E+02  0.47572198536E+01 -0.18530905647E+03  0.23821824008E+03  0.12509000000E+03 0.  0.
         25    1    4    4    0    0 -0.21537923119E+02  0.42628492182E+02 -0.23740060878E+03  0.27255756754E+03  0.12509000000E+03 0.  0.
<mgrwt>
<rscale>  2 0.45595967E+03</rscale>
<asrwt>0</asrwt>
<pdfrwt beam="1">  1       21 0.10204140E-01 0.45595967E+03</pdfrwt>
<pdfrwt beam="2">  1       21 0.11015358E+00 0.45595967E+03</pdfrwt>
<totfact> 0.46534732E+04</totfact>
</mgrwt>
</event>
<event>
 7    0  0.4712189E-002  0.4535107E+03  0.7546771E-02  0.1026680E+00
         21   -1    0    0  502  501  0.00000000000E+00  0.00000000000E+00  0.11605381642E+04  0.11605381642E+04  0.00000000000E+00 0. -1.
         21   -1    0    0  501  502 -0.00000000000E+00 -0.00000000000E+00 -0.44305299721E+02  0.44305299721E+02  0.00000000000E+00 0. -1.
      99926    2    1    2    0    0 -0.35527136788E-14  0.00000000000E+00  0.11162328645E+04  0.12048434639E+04  0.45351071080E+03 0.  0.
      99925    2    3    3    0    0 -0.22029272238E+02  0.92560174080E+02  0.55266021248E+03  0.61976712972E+03  0.26386608339E+03 0.  0.
         25    1    4    4    0    0  0.11544845946E+02  0.84573254379E+01  0.23777411978E+03  0.26905176074E+03  0.12509000000E+03 0.  0.
         25    1    4    4    0    0 -0.33574118184E+02  0.84102848642E+02  0.31488609270E+03  0.35071536897E+03  0.12509000000E+03 0.  0.
         25    1    3    3    0    0  0.22029272238E+02 -0.92560174080E+02  0.56357265202E+03  0.58507633423E+03  0.12509000000E+03 0.  0.
<mgrwt>
<rscale>  2 0.45351071E+03</rscale>
<asrwt>0</asrwt>
<pdfrwt beam="1">  1       21 0.17066736E+00 0.45351071E+03</pdfrwt>
<pdfrwt beam="2">  1       21 0.65154860E-02 0.45351071E+03</pdfrwt>
<totfact> 0.32376791E+04</totfact>
</mgrwt>
</event>
<event>
 7    0  0.4712189E-002  0.4479800E+03  0.7546771E-02  0.1028326E+00
         21   -1    0    0  502  501  0.00000000000E+00  0.00000000000E+00  0.45208837557E+03  0.45208837557E+03  0.00000000000E+00 0.  1.
         21   -1    0    0  501  502 -0.00000000000E+00 -0.00000000000E+00 -0.11097723970E+03  0.11097723970E+03  0.00000000000E+00 0.  1.
      99926    2    1    2    0    0  0.88817841970E-15  0.00000000000E+00  0.34111113587E+03  0.56306561526E+03  0.44797999964E+03 0.  0.
      99925    2    3    3    0    0 -0.41119563369E+01 -0.10591289231E+03  0.20241703460E+03  0.34831457157E+03  0.26289909838E+03 0.  0.
         25    1    4    4    0    0 -0.10599718841E+02 -0.51646951853E+02  0.52462573875E+02  0.14553209760E+03  0.12509000000E+03 0.  0.
         25    1    3    3    0    0  0.41119563369E+01  0.10591289231E+03  0.13869410127E+03  0.21475104370E+03  0.12509000000E+03 0.  0.
         25    1    4    4    0    0  0.64877625043E+01 -0.54265940457E+02  0.14995446072E+03  0.20278247396E+03  0.12509000000E+03 0.  0.
<mgrwt>
<rscale>  2 0.44798000E+03</rscale>
<asrwt>0</asrwt>
<pdfrwt beam="1">  1       21 0.66483584E-01 0.44798000E+03</pdfrwt>
<pdfrwt beam="2">  1       21 0.16320183E-01 0.44798000E+03</pdfrwt>
<totfact> 0.64519636E+04</totfact>
</mgrwt>
</event>
<event>
 7    0  0.4712189E-002  0.4529609E+03  0.7546771E-02  0.1026843E+00
         21   -1    0    0  502  501  0.00000000000E+00  0.00000000000E+00  0.22925916000E+02  0.22925916000E+02  0.00000000000E+00 0.  1.
         21   -1    0    0  501  502 -0.00000000000E+00 -0.00000000000E+00 -0.22373538596E+04  0.22373538596E+04  0.00000000000E+00 0.  1.
      99926    2    1    2    0    0  0.00000000000E+00  0.00000000000E+00 -0.22144279436E+04  0.22602797756E+04  0.45296086651E+03 0.  0.
      99925    2    3    3    0    0 -0.33479828557E+02 -0.10094835511E+03 -0.12347157979E+04  0.12669042848E+04  0.26308153826E+03 0.  0.
         25    1    3    3    0    0  0.33479828557E+02  0.10094835511E+03 -0.97971214563E+03  0.99337549080E+03  0.12509000000E+03 0.  0.
         25    1    4    4    0    0 -0.48801678495E+02 -0.27511081551E+02 -0.64706658367E+03  0.66142356719E+03  0.12509000000E+03 0.  0.
         25    1    4    4    0    0  0.15321849938E+02 -0.73437273563E+02 -0.58764921427E+03  0.60548071758E+03  0.12509000000E+03 0.  0.
<mgrwt>
<rscale>  2 0.45296087E+03</rscale>
<asrwt>0</asrwt>
<pdfrwt beam="1">  1       21 0.33714588E-02 0.45296087E+03</pdfrwt>
<pdfrwt beam="2">  1       21 0.32902257E+00 0.45296087E+03</pdfrwt>
<totfact> 0.10065118E+04</totfact>
</mgrwt>
</event>
<event>
 7    0  0.4712189E-002  0.4569692E+03  0.7546771E-02  0.1025664E+00
         21   -1    0    0  502  501  0.00000000000E+00  0.00000000000E+00  0.16958331414E+03  0.16958331414E+03  0.00000000000E+00 0.  1.
         21   -1    0    0  501  502 -0.00000000000E+00 -0.00000000000E+00 -0.30784397773E+03  0.30784397773E+03  0.00000000000E+00 0.  1.
      99926    2    1    2    0    0  0.00000000000E+00  0.00000000000E+00 -0.13826066359E+03  0.47742729186E+03  0.45696915423E+03 0.  0.
      99925    2    3    3    0    0 -0.11348236499E+03 -0.17401457146E+02 -0.78321223651E+02  0.29736812815E+03  0.26289262388E+03 0.  0.
         25    1    4    4    0    0 -0.23935542924E+02  0.13647098892E+02 -0.51975845762E+02  0.13823223273E+03  0.12509000000E+03 0.  0.
         25    1    3    3    0    0  0.11348236499E+03  0.17401457146E+02 -0.59939439940E+02  0.18005916371E+03  0.12509000000E+03 0.  0.
         25    1    4    4    0    0 -0.89546822071E+02 -0.31048556038E+02 -0.26345377889E+02  0.15913589542E+03  0.12509000000E+03 0.  0.
<mgrwt>
<rscale>  2 0.45696915E+03</rscale>
<asrwt>0</asrwt>
<pdfrwt beam="1">  1       21 0.24938723E-01 0.45696915E+03</pdfrwt>
<pdfrwt beam="2">  1       21 0.45271173E-01 0.45696915E+03</pdfrwt>
<totfact> 0.65852687E+04</totfact>
</mgrwt>
</event>
<event>
 7    0  0.4712189E-002  0.4609943E+03  0.7546771E-02  0.1024493E+00
         21   -1    0    0  502  501  0.00000000000E+00  0.00000000000E+00  0.48626161619E+03  0.48626161619E+03  0.00000000000E+00 0. -1.
         21   -1    0    0  501  502 -0.00000000000E+00 -0.00000000000E+00 -0.10925996568E+03  0.10925996568E+03  0.00000000000E+00 0. -1.
      99926    2    1    2    0    0  0.00000000000E+00 -0.88817841970E-15  0.37700165051E+03  0.59552158187E+03  0.46099426242E+03 0.  0.
      99925    2    3    3    0    0  0.26108401098E+02 -0.34608147204E+01  0.86230957961E+02  0.27789171931E+03  0.26285814369E+03 0.  0.
         25    1    3    3    0    0 -0.26108401098E+02  0.34608147204E+01  0.29077069255E+03  0.31762986257E+03  0.12509000000E+03 0.  0.
         25    1    4    4    0    0  0.29201672493E+02 -0.15033537275E+02  0.80003959969E+02  0.15207526633E+03  0.12509000000E+03 0.  0.
         25    1    4    4    0    0 -0.30932713948E+01  0.11572722555E+02  0.62269979921E+01  0.12581645298E+03  0.12509000000E+03 0.  0.
<mgrwt>
<rscale>  2 0.46099426E+03</rscale>
<asrwt>0</asrwt>
<pdfrwt beam="1">  1       21 0.71509060E-01 0.46099426E+03</pdfrwt>
<pdfrwt beam="2">  1       21 0.16067642E-01 0.46099426E+03</pdfrwt>
<totfact> 0.56242847E+04</totfact>
</mgrwt>
</event>
<event>
 7    0  0.4712189E-002  0.4534685E+03  0.7546771E-02  0.1026693E+00
         21   -1    0    0  502  501  0.00000000000E+00  0.00000000000E+00  0.71889596414E+03  0.71889596414E+03  0.00000000000E+00 0.  1.
         21   -1    0    0  501  502 -0.00000000000E+00 -0.00000000000E+00 -0.71510230340E+02  0.71510230340E+02  0.00000000000E+00 0.  1.
      99926    2    1    2    0    0  0.00000000000E+00  0.00000000000E+00  0.64738573380E+03  0.79040619448E+03  0.45346848176E+03 0.  0.
      99925    2    3    3    0    0  0.99616131480E+02  0.50633634868E+02  0.40451930635E+03  0.49524734181E+03  0.26295802274E+03 0.  0.
         25    1    4    4    0    0  0.43754080337E+02 -0.15330098502E+02  0.17850773083E+03  0.22284961192E+03  0.12509000000E+03 0.  0.
         25    1    4    4    0    0  0.55862051143E+02  0.65963733369E+02  0.22601157552E+03  0.27239772989E+03  0.12509000000E+03 0.  0.
         25    1    3    3    0    0 -0.99616131480E+02 -0.50633634868E+02  0.24286642744E+03  0.29515885267E+03  0.12509000000E+03 0.  0.
<mgrwt>
<rscale>  2 0.45346848E+03</rscale>
<asrwt>0</asrwt>
<pdfrwt beam="1">  1       21 0.10571999E+00 0.45346848E+03</pdfrwt>
<pdfrwt beam="2">  1       21 0.10516211E-01 0.45346848E+03</pdfrwt>
<totfact> 0.48816506E+04</totfact>
</mgrwt>
</event>
<event>
 7    0  0.4712189E-002  0.4531510E+03  0.7546771E-02  0.1026787E+00
         21   -1    0    0  502  501  0.00000000000E+00  0.00000000000E+00  0.11170244194E+03  0.11170244194E+03  0.00000000000E+00 0.  1.
         21   -1    0    0  501  502 -0.00000000000E+00 -0.00000000000E+00 -0.45958223808E+03  0.45958223808E+03  0.00000000000E+00 0.  1.
      99926    2    1    2    0    0  0.00000000000E+00 -0.14210854715E-13 -0.34787979614E+03  0.57128468002E+03  0.45315100470E+03 0.  0.
      99925    2    3    3    0    0  0.16234192134E+02 -0.10582307292E+03 -0.25809472066E+03  0.38374551175E+03  0.26303167337E+03 0.  0.
         25    1    3    3    0    0 -0.16234192134E+02  0.10582307292E+03 -0.89785075480E+02  0.18753916827E+03  0.12509000000E+03 0.  0.
         25    1    4    4    0    0  0.36043025095E+02 -0.22456340585E+02 -0.12836340554E+03  0.18419570807E+03  0.12509000000E+03 0.  0.
         25    1    4    4    0    0 -0.19808832961E+02 -0.83366732339E+02 -0.12973131511E+03  0.19954980367E+03  0.12509000000E+03 0.  0.
<mgrwt>
<rscale>  2 0.45315100E+03</rscale>
<asrwt>0</asrwt>
<pdfrwt beam="1">  1       21 0.16426830E-01 0.45315100E+03</pdfrwt>
<pdfrwt beam="2">  1       21 0.67585623E-01 0.45315100E+03</pdfrwt>
<totfact> 0.61373963E+04</totfact>
</mgrwt>
</event>
<event>
 7    0  0.4712189E-002  0.4521846E+03  0.7546771E-02  0.1027073E+00
         21   -1    0    0  502  501  0.00000000000E+00  0.00000000000E+00  0.55849064614E+03  0.55849064614E+03  0.00000000000E+00 0. -1.
         21   -1    0    0  501  502 -0.00000000000E+00 -0.00000000000E+00 -0.91528366208E+02  0.91528366208E+02  0.00000000000E+00 0. -1.
      99926    2    1    2    0    0  0.00000000000E+00  0.00000000000E+00  0.46696227993E+03  0.65001901235E+03  0.45218463655E+03 0.  0.
      99925    2    3    3    0    0  0.73937564061E+02 -0.67871800227E+02  0.22804357001E+03  0.36226390345E+03  0.26297893694E+03 0.  0.
         25    1    3    3    0    0 -0.73937564061E+02  0.67871800227E+02  0.23891870993E+03  0.28775510890E+03  0.12509000000E+03 0.  0.
         25    1    4    4    0    0  0.15884311685E+02 -0.26815639183E-01  0.12266865746E+03  0.17591878723E+03  0.12509000000E+03 0.  0.
         25    1    4    4    0    0  0.58053252376E+02 -0.67844984588E+02  0.10537491255E+03  0.18634511622E+03  0.12509000000E+03 0.  0.
<mgrwt>
<rscale>  2 0.45218464E+03</rscale>
<asrwt>0</asrwt>
<pdfrwt beam="1">  1       21 0.82130976E-01 0.45218464E+03</pdfrwt>
<pdfrwt beam="2">  1       21 0.13460054E-01 0.45218464E+03</pdfrwt>
<totfact> 0.56954846E+04</totfact>
</mgrwt>
</event>
<event>
 7    0  0.4712189E-002  0.4528730E+03  0.7546771E-02  0.1026869E+00
         21   -1    0    0  502  501  0.00000000000E+00  0.00000000000E+00  0.11751638780E+04  0.11751638780E+04  0.00000000000E+00 0.  1.
         21   -1    0    0  501  502 -0.00000000000E+00 -0.00000000000E+00 -0.43630920897E+02  0.43630920897E+02  0.00000000000E+00 0.  1.
      99926    2    1    2    0    0  0.00000000000E+00  0.00000000000E+00  0.11315329571E+04  0.12187947989E+04  0.45287297204E+03 0.  0.
      99925    2    3    3    0    0 -0.28986992079E+02 -0.68168132632E+02  0.49016506411E+03  0.56115703973E+03  0.26296063042E+03 0.  0.
         25    1    4    4    0    0 -0.18679438784E+02 -0.47523186715E+02  0.17352220707E+03  0.21992007447E+03  0.12509000000E+03 0.  0.
         25    1    3    3    0    0  0.28986992079E+02  0.68168132632E+02  0.64136789299E+03  0.65763775916E+03  0.12509000000E+03 0.  0.
         25    1    4    4    0    0 -0.10307553296E+02 -0.20644945917E+02  0.31664285703E+03  0.34123696526E+03  0.12509000000E+03 0.  0.
<mgrwt>
<rscale>  2 0.45287297E+03</rscale>
<asrwt>0</asrwt>
<pdfrwt beam="1">  1       21 0.17281820E+00 0.45287297E+03</pdfrwt>
<pdfrwt beam="2">  1       21 0.64163126E-02 0.45287297E+03</pdfrwt>
<totfact> 0.32094256E+04</totfact>
</mgrwt>
</event>
<event>
 7    0  0.4712189E-002  0.4606027E+03  0.7546771E-02  0.1024607E+00
         21   -1    0    0  502  501  0.00000000000E+00  0.00000000000E+00  0.16358875203E+03  0.16358875203E+03  0.00000000000E+00 0. -1.
         21   -1    0    0  501  502 -0.00000000000E+00 -0.00000000000E+00 -0.32421978754E+03  0.32421978754E+03  0.00000000000E+00 0. -1.
      99926    2    1    2    0    0  0.00000000000E+00  0.00000000000E+00 -0.16063103551E+03  0.48780853958E+03  0.46060269400E+03 0.  0.
      99925    2    3    3    0    0 -0.52117625840E+02  0.60678353744E+02 -0.83839864611E+01  0.27514734994E+03  0.26313050642E+03 0.  0.
         25    1    3    3    0    0  0.52117625840E+02 -0.60678353744E+02 -0.15224704905E+03  0.21266118964E+03  0.12509000000E+03 0.  0.
         25    1    4    4    0    0 -0.26294746287E+02  0.69000997699E+02  0.11066467496E+02  0.14567953243E+03  0.12509000000E+03 0.  0.
         25    1    4    4    0    0 -0.25822879552E+02 -0.83226439556E+01 -0.19450453957E+02  0.12946781751E+03  0.12509000000E+03 0.  0.
<mgrwt>
<rscale>  2 0.46060269E+03</rscale>
<asrwt>0</asrwt>
<pdfrwt beam="1">  1       21 0.24057170E-01 0.46060269E+03</pdfrwt>
<pdfrwt beam="2">  1       21 0.47679380E-01 0.46060269E+03</pdfrwt>
<totfact> 0.63274582E+04</totfact>
</mgrwt>
</event>
<event>
 7    0  0.4712189E-002  0.4585318E+03  0.7546771E-02  0.1025208E+00
         21   -1    0    0  502  501  0.00000000000E+00  0.00000000000E+00  0.16208567066E+04  0.16208567066E+04  0.00000000000E+00 0.  1.
         21   -1    0    0  501  502 -0.00000000000E+00 -0.00000000000E+00 -0.32429050129E+02  0.32429050129E+02  0.00000000000E+00 0.  1.
      99926    2    1    2    0    0  0.00000000000E+00 -0.71054273576E-14  0.15884276565E+04  0.16532857567E+04  0.45853175851E+03 0.  0.
      99925    2    3    3    0    0 -0.97141175177E+02 -0.63795005282E+02  0.10460693472E+04  0.10846854979E+04  0.26225052826E+03 0.  0.
         25    1    3    3    0    0  0.97141175177E+02  0.63795005282E+02  0.54235830926E+03  0.56860025883E+03  0.12509000000E+03 0.  0.
         25    1    4    4    0    0 -0.70689703937E+02 -0.62895125568E+02  0.50965491948E+03  0.53324335544E+03  0.12509000000E+03 0.  0.
         25    1    4    4    0    0 -0.26451471240E+02 -0.89987971384E+00  0.53641442771E+03  0.55144214245E+03  0.12509000000E+03 0.  0.
<mgrwt>
<rscale>  2 0.45853176E+03</rscale>
<asrwt>0</asrwt>
<pdfrwt beam="1">  1       21 0.23836123E+00 0.45853176E+03</pdfrwt>
<pdfrwt beam="2">  1       21 0.47689791E-02 0.45853176E+03</pdfrwt>
<totfact> 0.19706073E+04</totfact>
</mgrwt>
</event>
<event>
 7    0  0.4712189E-002  0.4307351E+03  0.7546771E-02  0.1033628E+00
         21   -1    0    0  502  501  0.00000000000E+00  0.00000000000E+00  0.70505788010E+03  0.70505788010E+03  0.00000000000E+00 0.  1.
         21   -1    0    0  501  502 -0.00000000000E+00 -0.00000000000E+00 -0.65786349427E+02  0.65786349427E+02  0.00000000000E+00 0.  1.
      99926    2    1    2    0    0  0.00000000000E+00  0.00000000000E+00  0.63927153067E+03  0.77084422952E+03  0.43073511148E+03 0.  0.
      99925    2    3    3    0    0  0.33693705990E+02  0.77442068147E+02  0.45976627417E+03  0.53631878324E+03  0.26290734233E+03 0.  0.
         25    1    4    4    0    0  0.37303513224E+02  0.63102976833E+02  0.29705608871E+03  0.33055009563E+03  0.12509000000E+03 0.  0.
         25    1    3    3    0    0 -0.33693705990E+02 -0.77442068147E+02  0.17950525650E+03  0.23452544628E+03  0.12509000000E+03 0.  0.
         25    1    4    4    0    0 -0.36098072346E+01  0.14339091314E+02  0.16271018546E+03  0.20576868761E+03  0.12509000000E+03 0.  0.
<mgrwt>
<rscale>  2 0.43073511E+03</rscale>
<asrwt>0</asrwt>
<pdfrwt beam="1">  1       21 0.10368498E+00 0.43073511E+03</pdfrwt>
<pdfrwt beam="2">  1       21 0.96744636E-02 0.43073511E+03</pdfrwt>
<totfact> 0.59812934E+04</totfact>
</mgrwt>
</event>
<event>
 7    0  0.4712189E-002  0.4569919E+03  0.7546771E-02  0.1025657E+00
         21   -1    0    0  502  501  0.00000000000E+00  0.00000000000E+00  0.29260897816E+03  0.29260897816E+03  0.00000000000E+00 0. -1.
         21   -1    0    0  501  502 -0.00000000000E+00 -0.00000000000E+00 -0.17843061600E+03  0.17843061600E+03  0.00000000000E+00 0. -1.
      99926    2    1    2    0    0 -0.35527136788E-14  0.00000000000E+00  0.11417836216E+03  0.47103959416E+03  0.45699190462E+03 0.  0.
      99925    2    3    3    0    0 -0.26255946362E+02  0.10565236054E+03  0.11046163710E+03  0.30516880665E+03  0.26282015005E+03 0.  0.
         25    1    4    4    0    0  0.20662935065E+02  0.74678510260E+02  0.51625970614E+02  0.15593776233E+03  0.12509000000E+03 0.  0.
         25    1    4    4    0    0 -0.46918881427E+02  0.30973850277E+02  0.58835666486E+02  0.14923104431E+03  0.12509000000E+03 0.  0.
         25    1    3    3    0    0  0.26255946362E+02 -0.10565236054E+03  0.37167250567E+01  0.16587078752E+03  0.12509000000E+03 0.  0.
<mgrwt>
<rscale>  2 0.45699190E+03</rscale>
<asrwt>0</asrwt>
<pdfrwt beam="1">  1       21 0.43030732E-01 0.45699190E+03</pdfrwt>
<pdfrwt beam="2">  1       21 0.26239797E-01 0.45699190E+03</pdfrwt>
<totfact> 0.66304568E+04</totfact>
</mgrwt>
</event>
<event>
 7    0  0.4712189E-002  0.4482943E+03  0.7546771E-02  0.1028232E+00
         21   -1    0    0  502  501  0.00000000000E+00  0.00000000000E+00  0.11514957681E+04  0.11514957681E+04  0.00000000000E+00 0. -1.
         21   -1    0    0  501  502 -0.00000000000E+00 -0.00000000000E+00 -0.43631888811E+02  0.43631888811E+02  0.00000000000E+00 0. -1.
      99926    2    1    2    0    0  0.35527136788E-14  0.14210854715E-13  0.11078638793E+04  0.11951276569E+04  0.44829425746E+03 0.  0.
      99925    2    3    3    0    0 -0.30587489621E+02 -0.65419872784E+02  0.49203155261E+03  0.56258333676E+03  0.26303917532E+03 0.  0.
         25    1    3    3    0    0  0.30587489621E+02  0.65419872784E+02  0.61583232665E+03  0.63254432012E+03  0.12509000000E+03 0.  0.
         25    1    4    4    0    0 -0.20411884244E+01 -0.36659780097E+02  0.16626563680E+03  0.21128150891E+03  0.12509000000E+03 0.  0.
         25    1    4    4    0    0 -0.28546301197E+02 -0.28760092688E+02  0.32576591581E+03  0.35130182785E+03  0.12509000000E+03 0.  0.
<mgrwt>
<rscale>  2 0.44829426E+03</rscale>
<asrwt>0</asrwt>
<pdfrwt beam="1">  1       21 0.16933759E+00 0.44829426E+03</pdfrwt>
<pdfrwt beam="2">  1       21 0.64164550E-02 0.44829426E+03</pdfrwt>
<totfact> 0.34055306E+04</totfact>
</mgrwt>
</event>
<event>
 7    0  0.4712189E-002  0.4568424E+03  0.7546771E-02  0.1025701E+00
         21   -1    0    0  502  501  0.00000000000E+00  0.00000000000E+00  0.44933680903E+02  0.44933680903E+02  0.00000000000E+00 0. -1.
         21   -1    0    0  501  502 -0.00000000000E+00 -0.00000000000E+00 -0.11611836491E+04  0.11611836491E+04  0.00000000000E+00 0. -1.
      99926    2    1    2    0    0  0.00000000000E+00  0.00000000000E+00 -0.11162499682E+04  0.12061173300E+04  0.45684244793E+03 0.  0.
      99925    2    3    3    0    0 -0.14019965408E+02  0.11284665158E+03 -0.74241650180E+03  0.79583706616E+03  0.26314149714E+03 0.  0.
         25    1    4    4    0    0 -0.72702578890E+01  0.27818608406E+02 -0.25554267175E+03  0.28596555179E+03  0.12509000000E+03 0.  0.
         25    1    3    3    0    0  0.14019965408E+02 -0.11284665158E+03 -0.37383346639E+03  0.41028026384E+03  0.12509000000E+03 0.  0.
         25    1    4    4    0    0 -0.67497075186E+01  0.85028043178E+02 -0.48687383005E+03  0.50987151437E+03  0.12509000000E+03 0.  0.
<mgrwt>
<rscale>  2 0.45684245E+03</rscale>
<asrwt>0</asrwt>
<pdfrwt beam="1">  1       21 0.66078935E-02 0.45684245E+03</pdfrwt>
<pdfrwt beam="2">  1       21 0.17076232E+00 0.45684245E+03</pdfrwt>
<totfact> 0.31508031E+04</totfact>
</mgrwt>
</event>
<event>
 7    0  0.4712189E-002  0.4565408E+03  0.7546771E-02  0.1025789E+00
         21   -1    0    0  502  501  0.00000000000E+00  0.00000000000E+00  0.39758913171E+03  0.39758913171E+03  0.00000000000E+00 0. -1.
         21   -1    0    0  501  502 -0.00000000000E+00 -0.00000000000E+00 -0.13105833907E+03  0.13105833907E+03  0.00000000000E+00 0. -1.
      99926    2    1    2    0    0 -0.71054273576E-14  0.71054273576E-14  0.26653079264E+03  0.52864747078E+03  0.45654078124E+03 0.  0.
      99925    2    3    3    0    0 -0.37932476467E+02  0.53360221624E+02  0.27693742960E+03  0.38707772749E+03  0.26239024597E+03 0.  0.
         25    1    4    4    0    0  0.19347147124E+02  0.14344756287E+02  0.12710415655E+03  0.17995293509E+03  0.12509000000E+03 0.  0.
         25    1    4    4    0    0 -0.57279623591E+02  0.39015465336E+02  0.14983327305E+03  0.20712479240E+03  0.12509000000E+03 0.  0.
         25    1    3    3    0    0  0.37932476467E+02 -0.53360221624E+02 -0.10406636953E+02  0.14156974329E+03  0.12509000000E+03 0.  0.
<mgrwt>
<rscale>  2 0.45654078E+03</rscale>
<asrwt>0</asrwt>
<pdfrwt beam="1">  1       21 0.58468989E-01 0.45654078E+03</pdfrwt>
<pdfrwt beam="2">  1       21 0.19273285E-01 0.45654078E+03</pdfrwt>
<totfact> 0.62530997E+04</totfact>
</mgrwt>
</event>
<event>
 7    0  0.4712189E-002  0.4507195E+03  0.7546771E-02  0.1027508E+00
         21   -1    0    0  502  501  0.00000000000E+00  0.00000000000E+00  0.10080630181E+04  0.10080630181E+04  0.00000000000E+00 0.  1.
         21   -1    0    0  501  502 -0.00000000000E+00 -0.00000000000E+00 -0.50380794468E+02  0.50380794468E+02  0.00000000000E+00 0.  1.
      99926    2    1    2    0    0  0.00000000000E+00 -0.35527136788E-14  0.95768222366E+03  0.10584438126E+04  0.45071949471E+03 0.  0.
      99925    2    3    3    0    0  0.37662918498E+02  0.77184977208E+01  0.84477689351E+03  0.88560518175E+03  0.26300278990E+03 0.  0.
         25    1    3    3    0    0 -0.37662918498E+02 -0.77184977208E+01  0.11290533015E+03  0.17283863084E+03  0.12509000000E+03 0.  0.
         25    1    4    4    0    0  0.38717291821E+02 -0.30260142075E+02  0.39678566221E+03  0.41892848401E+03  0.12509000000E+03 0.  0.
         25    1    4    4    0    0 -0.10543733236E+01  0.37978639796E+02  0.44799123130E+03  0.46667669773E+03  0.12509000000E+03 0.  0.
<mgrwt>
<rscale>  2 0.45071949E+03</rscale>
<asrwt>0</asrwt>
<pdfrwt beam="1">  1       21 0.14824455E+00 0.45071949E+03</pdfrwt>
<pdfrwt beam="2">  1       21 0.74089410E-02 0.45071949E+03</pdfrwt>
<totfact> 0.38230371E+04</totfact>
</mgrwt>
</event>
<event>
 7    0  0.4712189E-002  0.4518304E+03  0.7546771E-02  0.1027178E+00
         21   -1    0    0  502  501  0.00000000000E+00  0.00000000000E+00  0.17343426860E+03  0.17343426860E+03  0.00000000000E+00 0.  1.
         21   -1    0    0  501  502 -0.00000000000E+00 -0.00000000000E+00 -0.29427674814E+03  0.29427674814E+03  0.00000000000E+00 0.  1.
      99926    2    1    2    0    0  0.00000000000E+00  0.00000000000E+00 -0.12084247953E+03  0.46771101674E+03  0.45183037782E+03 0.  0.
      99925    2    3    3    0    0  0.70341177766E+02  0.51135191193E+02 -0.60615131067E+01  0.27696283871E+03  0.26288587451E+03 0.  0.
         25    1    3    3    0    0 -0.70341177766E+02 -0.51135191193E+02 -0.11478096643E+03  0.19074817803E+03  0.12509000000E+03 0.  0.
         25    1    4    4    0    0  0.61827944813E+02 -0.44608865986E+01 -0.74080656620E+01  0.13980336836E+03  0.12509000000E+03 0.  0.
         25    1    4    4    0    0  0.85132329531E+01  0.55596077792E+02  0.13465525553E+01  0.13715947034E+03  0.12509000000E+03 0.  0.
<mgrwt>
<rscale>  2 0.45183038E+03</rscale>
<asrwt>0</asrwt>
<pdfrwt beam="1">  1       21 0.25505040E-01 0.45183038E+03</pdfrwt>
<pdfrwt beam="2">  1       21 0.43275992E-01 0.45183038E+03</pdfrwt>
<totfact> 0.69333373E+04</totfact>
</mgrwt>
</event>
<event>
 7    0  0.4712189E-002  0.4703920E+03  0.7546771E-02  0.1021810E+00
         21   -1    0    0  502  501  0.00000000000E+00  0.00000000000E+00  0.14430304129E+03  0.14430304129E+03  0.00000000000E+00 0.  1.
         21   -1    0    0  501  502 -0.00000000000E+00 -0.00000000000E+00 -0.38334019579E+03  0.38334019579E+03  0.00000000000E+00 0.  1.
      99926    2    1    2    0    0 -0.14210854715E-13  0.00000000000E+00 -0.23903715450E+03  0.52764323708E+03  0.47039199016E+03 0.  0.
      99925    2    3    3    0    0  0.83847531042E+02  0.84737525468E+02 -0.99463184613E+02  0.30551881732E+03  0.26313108133E+03 0.  0.
         25    1    3    3    0    0 -0.83847531042E+02 -0.84737525468E+02 -0.13957396988E+03  0.22212441976E+03  0.12509000000E+03 0.  0.
         25    1    4    4    0    0  0.28981340278E+01  0.25486315386E+02 -0.55663194234E+02  0.13929770546E+03  0.12509000000E+03 0.  0.
         25    1    4    4    0    0  0.80949397015E+02  0.59251210082E+02 -0.43799990379E+02  0.16622111187E+03  0.12509000000E+03 0.  0.
<mgrwt>
<rscale>  2 0.47039199E+03</rscale>
<asrwt>0</asrwt>
<pdfrwt beam="1">  1       21 0.21221036E-01 0.47039199E+03</pdfrwt>
<pdfrwt beam="2">  1       21 0.56373557E-01 0.47039199E+03</pdfrwt>
<totfact> 0.56187659E+04</totfact>
</mgrwt>
</event>
<event>
 7    0  0.4712189E-002  0.4764179E+03  0.7546771E-02  0.1020124E+00
         21   -1    0    0  502  501  0.00000000000E+00  0.00000000000E+00  0.27920362545E+03  0.27920362545E+03  0.00000000000E+00 0.  1.
         21   -1    0    0  501  502 -0.00000000000E+00 -0.00000000000E+00 -0.20323336598E+03  0.20323336598E+03  0.00000000000E+00 0.  1.
      99926    2    1    2    0    0  0.00000000000E+00  0.00000000000E+00  0.75970259472E+02  0.48243699143E+03  0.47641785270E+03 0.  0.
      99925    2    3    3    0    0  0.25037733693E+02 -0.12292641971E+03  0.89091620515E+02  0.30479276555E+03  0.26310363037E+03 0.  0.
         25    1    3    3    0    0 -0.25037733693E+02  0.12292641971E+03 -0.13121361043E+02  0.17764422588E+03  0.12509000000E+03 0.  0.
         25    1    4    4    0    0  0.46521896225E+02 -0.45746290615E+02  0.60559340022E+02  0.15353159837E+03  0.12509000000E+03 0.  0.
         25    1    4    4    0    0 -0.21484162532E+02 -0.77180129096E+02  0.28532280494E+02  0.15126116718E+03  0.12509000000E+03 0.  0.
<mgrwt>
<rscale>  2 0.47641785E+03</rscale>
<asrwt>0</asrwt>
<pdfrwt beam="1">  1       21 0.41059357E-01 0.47641785E+03</pdfrwt>
<pdfrwt beam="2">  1       21 0.29887260E-01 0.47641785E+03</pdfrwt>
<totfact> 0.56318085E+04</totfact>
</mgrwt>
</event>
<event>
 7    0  0.4712189E-002  0.4512701E+03  0.7546771E-02  0.1027344E+00
         21   -1    0    0  502  501  0.00000000000E+00  0.00000000000E+00  0.24552699625E+03  0.24552699625E+03  0.00000000000E+00 0.  1.
         21   -1    0    0  501  502 -0.00000000000E+00 -0.00000000000E+00 -0.20735473230E+03  0.20735473230E+03  0.00000000000E+00 0.  1.
      99926    2    1    2    0    0  0.00000000000E+00 -0.14210854715E-13  0.38172263954E+02  0.45288172855E+03  0.45127013897E+03 0.  0.
      99925    2    3    3    0    0  0.37858040782E+02  0.82818429297E+02  0.85453155125E+02  0.29109447858E+03  0.26294796112E+03 0.  0.
         25    1    4    4    0    0  0.80830279559E+00  0.75246960542E+02  0.60662182215E+02  0.15808278488E+03  0.12509000000E+03 0.  0.
         25    1    3    3    0    0 -0.37858040782E+02 -0.82818429297E+02 -0.47280891171E+02  0.16178724997E+03  0.12509000000E+03 0.  0.
         25    1    4    4    0    0  0.37049737986E+02  0.75714687545E+01  0.24790972911E+02  0.13301169370E+03  0.12509000000E+03 0.  0.
<mgrwt>
<rscale>  2 0.45127014E+03</rscale>
<asrwt>0</asrwt>
<pdfrwt beam="1">  1       21 0.36106911E-01 0.45127014E+03</pdfrwt>
<pdfrwt beam="2">  1       21 0.30493343E-01 0.45127014E+03</pdfrwt>
<totfact> 0.70784441E+04</totfact>
</mgrwt>
</event>
<event>
 7    0  0.4712189E-002  0.4519020E+03  0.7546771E-02  0.1027156E+00
         21   -1    0    0  502  501  0.00000000000E+00  0.00000000000E+00  0.40343811380E+03  0.40343811380E+03  0.00000000000E+00 0.  1.
         21   -1    0    0  501  502 -0.00000000000E+00 -0.00000000000E+00 -0.12654692909E+03  0.12654692909E+03  0.00000000000E+00 0.  1.
      99926    2    1    2    0    0 -0.17763568394E-14  0.00000000000E+00  0.27689118471E+03  0.52998504289E+03  0.45190199990E+03 0.  0.
      99925    2    3    3    0    0  0.11434422603E+02 -0.85978231314E+02  0.94738096051E+02  0.29260294986E+03  0.26290336085E+03 0.  0.
         25    1    3    3    0    0 -0.11434422603E+02  0.85978231314E+02  0.18215308866E+03  0.23738209303E+03  0.12509000000E+03 0.  0.
         25    1    4    4    0    0 -0.27918364860E+02 -0.24983365011E+02  0.29118396057E+02  0.13378711714E+03  0.12509000000E+03 0.  0.
         25    1    4    4    0    0  0.39352787463E+02 -0.60994866303E+02  0.65619699994E+02  0.15881583272E+03  0.12509000000E+03 0.  0.
<mgrwt>
<rscale>  2 0.45190200E+03</rscale>
<asrwt>0</asrwt>
<pdfrwt beam="1">  1       21 0.59329134E-01 0.45190200E+03</pdfrwt>
<pdfrwt beam="2">  1       21 0.18609843E-01 0.45190200E+03</pdfrwt>
<totfact> 0.64782950E+04</totfact>
</mgrwt>
</event>
<event>
 7    0  0.4712189E-002  0.4516099E+03  0.7546771E-02  0.1027243E+00
         21   -1    0    0  502  501  0.00000000000E+00  0.00000000000E+00  0.18185042278E+03  0.18185042278E+03  0.00000000000E+00 0. -1.
         21   -1    0    0  501  502 -0.00000000000E+00 -0.00000000000E+00 -0.28038365407E+03  0.28038365407E+03  0.00000000000E+00 0. -1.
      99926    2    1    2    0    0  0.00000000000E+00  0.00000000000E+00 -0.98533231282E+02  0.46223407685E+03  0.45160994690E+03 0.  0.
      99925    2    3    3    0    0  0.35661482188E+02 -0.15362851208E+02  0.43066316499E+02  0.26934628942E+03  0.26303033570E+03 0.  0.
         25    1    4    4    0    0  0.57507868305E+02 -0.12770386317E+01  0.14622857715E+02  0.13845620901E+03  0.12509000000E+03 0.  0.
         25    1    4    4    0    0 -0.21846386117E+02 -0.14085812577E+02  0.28443458784E+02  0.13089008041E+03  0.12509000000E+03 0.  0.
         25    1    3    3    0    0 -0.35661482188E+02  0.15362851208E+02 -0.14159954778E+03  0.19288778743E+03  0.12509000000E+03 0.  0.
<mgrwt>
<rscale>  2 0.45160995E+03</rscale>
<asrwt>0</asrwt>
<pdfrwt beam="1">  1       21 0.26742710E-01 0.45160995E+03</pdfrwt>
<pdfrwt beam="2">  1       21 0.41232890E-01 0.45160995E+03</pdfrwt>
<totfact> 0.69878413E+04</totfact>
</mgrwt>
</event>
<event>
 7    0  0.4712189E-002  0.4622359E+03  0.7546771E-02  0.1024135E+00
         21   -1    0    0  502  501  0.00000000000E+00  0.00000000000E+00  0.49208678151E+02  0.49208678151E+02  0.00000000000E+00 0. -1.
         21   -1    0    0  501  502 -0.00000000000E+00 -0.00000000000E+00 -0.10854894810E+04  0.10854894810E+04  0.00000000000E+00 0. -1.
      99926    2    1    2    0    0  0.71054273576E-14  0.00000000000E+00 -0.10362808029E+04  0.11346981592E+04  0.46223588138E+03 0.  0.
      99925    2    3    3    0    0  0.59138658357E+02  0.10248211328E+03 -0.69379973765E+03  0.75136964134E+03  0.26305569278E+03 0.  0.
         25    1    3    3    0    0 -0.59138658357E+02 -0.10248211328E+03 -0.34248106524E+03  0.38332851786E+03  0.12509000000E+03 0.  0.
         25    1    4    4    0    0  0.58786000843E+02  0.81373484067E+02 -0.35317056459E+03  0.38788451064E+03  0.12509000000E+03 0.  0.
         25    1    4    4    0    0  0.35265751406E+00  0.21108629215E+02 -0.34062917306E+03  0.36348513070E+03  0.12509000000E+03 0.  0.
<mgrwt>
<rscale>  2 0.46223588E+03</rscale>
<asrwt>0</asrwt>
<pdfrwt beam="1">  1       21 0.72365706E-02 0.46223588E+03</pdfrwt>
<pdfrwt beam="2">  1       21 0.15963080E+00 0.46223588E+03</pdfrwt>
<totfact> 0.32429300E+04</totfact>
</mgrwt>
</event>
<event>
 7    0  0.4712189E-002  0.4596732E+03  0.7546771E-02  0.1024876E+00
         21   -1    0    0  502  501  0.00000000000E+00  0.00000000000E+00  0.81657843727E+03  0.81657843727E+03  0.00000000000E+00 0. -1.
         21   -1    0    0  501  502 -0.00000000000E+00 -0.00000000000E+00 -0.64690489640E+02  0.64690489640E+02  0.00000000000E+00 0. -1.
      99926    2    1    2    0    0  0.00000000000E+00  0.00000000000E+00  0.75188794763E+03  0.88126892691E+03  0.45967318363E+03 0.  0.
      99925    2    3    3    0    0 -0.79277274216E+02  0.85281973561E+02  0.50240093089E+03  0.57886327081E+03  0.26290319456E+03 0.  0.
         25    1    3    3    0    0  0.79277274216E+02 -0.85281973561E+02  0.24948701674E+03  0.30240565610E+03  0.12509000000E+03 0.  0.
         25    1    4    4    0    0 -0.73253830492E+02  0.23376991314E+02  0.28153315299E+03  0.31752327748E+03  0.12509000000E+03 0.  0.
         25    1    4    4    0    0 -0.60234437242E+01  0.61904982247E+02  0.22086777790E+03  0.26133999333E+03  0.12509000000E+03 0.  0.
<mgrwt>
<rscale>  2 0.45967318E+03</rscale>
<asrwt>0</asrwt>
<pdfrwt beam="1">  1       21 0.12008506E+00 0.45967318E+03</pdfrwt>
<pdfrwt beam="2">  1       21 0.95133078E-02 0.45967318E+03</pdfrwt>
<totfact> 0.42477380E+04</totfact>
</mgrwt>
</event>
<event>
 7    0  0.4712189E-002  0.4483693E+03  0.7546771E-02  0.1028209E+00
         21   -1    0    0  502  501  0.00000000000E+00  0.00000000000E+00  0.10025688666E+04  0.10025688666E+04  0.00000000000E+00 0. -1.
         21   -1    0    0  501  502 -0.00000000000E+00 -0.00000000000E+00 -0.50129979097E+02  0.50129979097E+02  0.00000000000E+00 0. -1.
      99926    2    1    2    0    0  0.00000000000E+00  0.00000000000E+00  0.95243888750E+03  0.10526988457E+04  0.44836929567E+03 0.  0.
      99925    2    3    3    0    0  0.79115219055E+02 -0.59542274874E+02  0.69744606361E+03  0.75191096575E+03  0.26293457056E+03 0.  0.
         25    1    3    3    0    0 -0.79115219055E+02  0.59542274874E+02  0.25499282389E+03  0.30078787994E+03  0.12509000000E+03 0.  0.
         25    1    4    4    0    0  0.63257235373E+02 -0.65434822882E+02  0.37800462276E+03  0.40843383406E+03  0.12509000000E+03 0.  0.
         25    1    4    4    0    0  0.15857983682E+02  0.58925480081E+01  0.31944144085E+03  0.34347713170E+03  0.12509000000E+03 0.  0.
<mgrwt>
<rscale>  2 0.44836930E+03</rscale>
<asrwt>0</asrwt>
<pdfrwt beam="1">  1       21 0.14743659E+00 0.44836930E+03</pdfrwt>
<pdfrwt beam="2">  1       21 0.73720564E-02 0.44836930E+03</pdfrwt>
<totfact> 0.39166558E+04</totfact>
</mgrwt>
</event>
<event>
 7    0  0.4712189E-002  0.4510591E+03  0.7546771E-02  0.1027407E+00
         21   -1    0    0  502  501  0.00000000000E+00  0.00000000000E+00  0.31079845349E+04  0.31079845349E+04  0.00000000000E+00 0. -1.
         21   -1    0    0  501  502 -0.00000000000E+00 -0.00000000000E+00 -0.16365451134E+02  0.16365451134E+02  0.00000000000E+00 0. -1.
      99926    2    1    2    0    0  0.00000000000E+00  0.14210854715E-13  0.30916190838E+04  0.31243499860E+04  0.45105906057E+03 0.  0.
      99925    2    3    3    0    0 -0.26379975728E+02 -0.10475868465E+03  0.18289318099E+04  0.18508913315E+04  0.26293891043E+03 0.  0.
         25    1    4    4    0    0 -0.15566898750E+02 -0.79882744615E+02  0.77707131884E+03  0.79127171306E+03  0.12509000000E+03 0.  0.
         25    1    4    4    0    0 -0.10813076979E+02 -0.24875940036E+02  0.10518604911E+04  0.10596196184E+04  0.12509000000E+03 0.  0.
         25    1    3    3    0    0  0.26379975728E+02  0.10475868465E+03  0.12626872739E+04  0.12734586545E+04  0.12509000000E+03 0.  0.
<mgrwt>
<rscale>  2 0.45105906E+03</rscale>
<asrwt>0</asrwt>
<pdfrwt beam="1">  1       21 0.45705614E+00 0.45105906E+03</pdfrwt>
<pdfrwt beam="2">  1       21 0.24066861E-02 0.45105906E+03</pdfrwt>
<totfact> 0.26944163E+03</totfact>
</mgrwt>
</event>
<event>
 7    0  0.4712189E-002  0.4569635E+03  0.7546771E-02  0.1025666E+00
         21   -1    0    0  502  501  0.00000000000E+00  0.00000000000E+00  0.15438966590E+04  0.15438966590E+04  0.00000000000E+00 0. -1.
         21   -1    0    0  501  502 -0.00000000000E+00 -0.00000000000E+00 -0.33813089163E+02  0.33813089163E+02  0.00000000000E+00 0. -1.
      99926    2    1    2    0    0  0.00000000000E+00 -0.71054273576E-14  0.15100835699E+04  0.15777097482E+04  0.45696352323E+03 0.  0.
      99925    2    3    3    0    0  0.82528887514E+02  0.49896141324E+02  0.11648872560E+04  0.11980933030E+04  0.26299163771E+03 0.  0.
         25    1    4    4    0    0  0.33238099994E+02  0.62359785432E+02  0.66051719706E+03  0.67596152985E+03  0.12509000000E+03 0.  0.
         25    1    4    4    0    0  0.49290787520E+02 -0.12463644108E+02  0.50437005890E+03  0.52213177319E+03  0.12509000000E+03 0.  0.
         25    1    3    3    0    0 -0.82528887514E+02 -0.49896141324E+02  0.34519631391E+03  0.37961644515E+03  0.12509000000E+03 0.  0.
<mgrwt>
<rscale>  2 0.45696352E+03</rscale>
<asrwt>0</asrwt>
<pdfrwt beam="1">  1       21 0.22704358E+00 0.45696352E+03</pdfrwt>
<pdfrwt beam="2">  1       21 0.49725141E-02 0.45696352E+03</pdfrwt>
<totfact> 0.21605873E+04</totfact>
</mgrwt>
</event>
<event>
 7    0  0.4712189E-002  0.4476174E+03  0.7546771E-02  0.1028435E+00
         21   -1    0    0  502  501  0.00000000000E+00  0.00000000000E+00  0.58944419526E+03  0.58944419526E+03  0.00000000000E+00 0. -1.
         21   -1    0    0  501  502 -0.00000000000E+00 -0.00000000000E+00 -0.84978936275E+02  0.84978936275E+02  0.00000000000E+00 0. -1.
      99926    2    1    2    0    0  0.00000000000E+00  0.00000000000E+00  0.50446525899E+03  0.67442313154E+03  0.44761742909E+03 0.  0.
      99925    2    3    3    0    0  0.98342326362E+02  0.14700484260E+02  0.26300871955E+03  0.38487851334E+03  0.26281279664E+03 0.  0.
         25    1    3    3    0    0 -0.98342326362E+02 -0.14700484260E+02  0.24145653944E+03  0.28954461820E+03  0.12509000000E+03 0.  0.
         25    1    4    4    0    0  0.55743082247E+02  0.41097232212E+02  0.10610538755E+03  0.17805093395E+03  0.12509000000E+03 0.  0.
         25    1    4    4    0    0  0.42599244116E+02 -0.26396747952E+02  0.15690333200E+03  0.20682757938E+03  0.12509000000E+03 0.  0.
<mgrwt>
<rscale>  2 0.44761743E+03</rscale>
<asrwt>0</asrwt>
<pdfrwt beam="1">  1       21 0.86682968E-01 0.44761743E+03</pdfrwt>
<pdfrwt beam="2">  1       21 0.12496903E-01 0.44761743E+03</pdfrwt>
<totfact> 0.57590412E+04</totfact>
</mgrwt>
</event>
<event>
 7    0  0.4712189E-002  0.4564127E+03  0.7546771E-02  0.1025827E+00
         21   -1    0    0  502  501  0.00000000000E+00  0.00000000000E+00  0.70905519221E+03  0.70905519221E+03  0.00000000000E+00 0.  1.
         21   -1    0    0  501  502 -0.00000000000E+00 -0.00000000000E+00 -0.73447225595E+02  0.73447225595E+02  0.00000000000E+00 0.  1.
      99926    2    1    2    0    0  0.00000000000E+00 -0.35527136788E-14  0.63560796661E+03  0.78250241780E+03  0.45641269334E+03 0.  0.
      99925    2    3    3    0    0 -0.40594028878E+02  0.19863262057E+02  0.21874605526E+03  0.34493666777E+03  0.26284794792E+03 0.  0.
         25    1    3    3    0    0  0.40594028878E+02 -0.19863262057E+02  0.41686191136E+03  0.43756575003E+03  0.12509000000E+03 0.  0.
         25    1    4    4    0    0 -0.15266290257E+01 -0.20555526469E+02  0.13001995433E+03  0.18159723811E+03  0.12509000000E+03 0.  0.
         25    1    4    4    0    0 -0.39067399852E+02  0.40418788527E+02  0.88726100926E+02  0.16333942966E+03  0.12509000000E+03 0.  0.
<mgrwt>
<rscale>  2 0.45641269E+03</rscale>
<asrwt>0</asrwt>
<pdfrwt beam="1">  1       21 0.10427282E+00 0.45641269E+03</pdfrwt>
<pdfrwt beam="2">  1       21 0.10801063E-01 0.45641269E+03</pdfrwt>
<totfact> 0.48087407E+04</totfact>
</mgrwt>
</event>
<event>
 7    0  0.4712189E-002  0.4549099E+03  0.7546771E-02  0.1026268E+00
         21   -1    0    0  502  501  0.00000000000E+00  0.00000000000E+00  0.89738257533E+03  0.89738257533E+03  0.00000000000E+00 0. -1.
         21   -1    0    0  501  502 -0.00000000000E+00 -0.00000000000E+00 -0.57651842531E+02  0.57651842531E+02  0.00000000000E+00 0. -1.
      99926    2    1    2    0    0  0.00000000000E+00 -0.35527136788E-14  0.83973073280E+03  0.95503441786E+03  0.45490992042E+03 0.  0.
      99925    2    3    3    0    0 -0.71799637899E+02 -0.19763690434E+02  0.70652337889E+03  0.75770854856E+03  0.26344101460E+03 0.  0.
         25    1    3    3    0    0  0.71799637899E+02  0.19763690434E+02  0.13320735391E+03  0.19732586931E+03  0.12509000000E+03 0.  0.
         25    1    4    4    0    0 -0.27815347339E+02  0.30893689804E+02  0.34199682139E+03  0.36652073278E+03  0.12509000000E+03 0.  0.
         25    1    4    4    0    0 -0.43984290560E+02 -0.50657380238E+02  0.36452655750E+03  0.39118781578E+03  0.12509000000E+03 0.  0.
<mgrwt>
<rscale>  2 0.45490992E+03</rscale>
<asrwt>0</asrwt>
<pdfrwt beam="1">  1       21 0.13196802E+00 0.45490992E+03</pdfrwt>
<pdfrwt beam="2">  1       21 0.84782127E-02 0.45490992E+03</pdfrwt>
<totfact> 0.40966482E+04</totfact>
</mgrwt>
</event>
<event>
 7    0  0.4712189E-002  0.4567969E+03  0.7546771E-02  0.1025714E+00
         21   -1    0    0  502  501  0.00000000000E+00  0.00000000000E+00  0.73972408942E+03  0.73972408942E+03  0.00000000000E+00 0. -1.
         21   -1    0    0  501  502 -0.00000000000E+00 -0.00000000000E+00 -0.70520702532E+02  0.70520702532E+02  0.00000000000E+00 0. -1.
      99926    2    1    2    0    0  0.00000000000E+00  0.00000000000E+00  0.66920338688E+03  0.81024479195E+03  0.45679694599E+03 0.  0.
      99925    2    3    3    0    0  0.28969617793E+02  0.10198846853E+03  0.49855438852E+03  0.57358158143E+03  0.26305601263E+03 0.  0.
         25    1    3    3    0    0 -0.28969617793E+02 -0.10198846853E+03  0.17064899837E+03  0.23666321051E+03  0.12509000000E+03 0.  0.
         25    1    4    4    0    0  0.26450983089E+02  0.69390859878E+02  0.33403689045E+03  0.36433898806E+03  0.12509000000E+03 0.  0.
         25    1    4    4    0    0  0.25186347040E+01  0.32597608648E+02  0.16451749807E+03  0.20924259337E+03  0.12509000000E+03 0.  0.
<mgrwt>
<rscale>  2 0.45679695E+03</rscale>
<asrwt>0</asrwt>
<pdfrwt beam="1">  1       21 0.10878295E+00 0.45679695E+03</pdfrwt>
<pdfrwt beam="2">  1       21 0.10370692E-01 0.45679695E+03</pdfrwt>
<totfact> 0.46612503E+04</totfact>
</mgrwt>
</event>
<event>
 7    0  0.4712189E-002  0.4540752E+03  0.7546771E-02  0.1026514E+00
         21   -1    0    0  502  501  0.00000000000E+00  0.00000000000E+00  0.18559226210E+03  0.18559226210E+03  0.00000000000E+00 0.  1.
         21   -1    0    0  501  502 -0.00000000000E+00 -0.00000000000E+00 -0.27773822894E+03  0.27773822894E+03  0.00000000000E+00 0.  1.
      99926    2    1    2    0    0 -0.35527136788E-14  0.00000000000E+00 -0.92145966838E+02  0.46333049104E+03  0.45407517519E+03 0.  0.
      99925    2    3    3    0    0  0.19096567911E+02 -0.66281370427E+02 -0.14850504794E+03  0.30976697618E+03  0.26295233655E+03 0.  0.
         25    1    3    3    0    0 -0.19096567911E+02  0.66281370427E+02  0.56359081106E+02  0.15356351486E+03  0.12509000000E+03 0.  0.
         25    1    4    4    0    0 -0.14213781445E+02 -0.13311152233E+01 -0.83097712842E+02  0.15085271436E+03  0.12509000000E+03 0.  0.
         25    1    4    4    0    0  0.33310349356E+02 -0.64950255204E+02 -0.65407335102E+02  0.15891426182E+03  0.12509000000E+03 0.  0.
<mgrwt>
<rscale>  2 0.45407518E+03</rscale>
<asrwt>0</asrwt>
<pdfrwt beam="1">  1       21 0.27292980E-01 0.45407518E+03</pdfrwt>
<pdfrwt beam="2">  1       21 0.40843857E-01 0.45407518E+03</pdfrwt>
<totfact> 0.68436099E+04</totfact>
</mgrwt>
</event>
<event>
 7    0  0.4712189E-002  0.4483943E+03  0.7546771E-02  0.1028202E+00
         21   -1    0    0  502  501  0.00000000000E+00  0.00000000000E+00  0.48734496817E+02  0.48734496817E+02  0.00000000000E+00 0.  1.
         21   -1    0    0  501  502 -0.00000000000E+00 -0.00000000000E+00 -0.10313920239E+04  0.10313920239E+04  0.00000000000E+00 0.  1.
      99926    2    1    2    0    0  0.00000000000E+00  0.17763568394E-14 -0.98265752713E+03  0.10801265208E+04  0.44839434121E+03 0.  0.
      99925    2    3    3    0    0  0.45774078642E+02  0.15962210271E+02 -0.85151376395E+03  0.89251987601E+03  0.26299425936E+03 0.  0.
         25    1    3    3    0    0 -0.45774078642E+02 -0.15962210271E+02 -0.13114376318E+03  0.18760664475E+03  0.12509000000E+03 0.  0.
         25    1    4    4    0    0  0.14319201245E+01  0.21927448225E+02 -0.31132063329E+03  0.33623043912E+03  0.12509000000E+03 0.  0.
         25    1    4    4    0    0  0.44342158517E+02 -0.59652379542E+01 -0.54019313066E+03  0.55628943689E+03  0.12509000000E+03 0.  0.
<mgrwt>
<rscale>  2 0.44839434E+03</rscale>
<asrwt>0</asrwt>
<pdfrwt beam="1">  1       21 0.71668375E-02 0.44839434E+03</pdfrwt>
<pdfrwt beam="2">  1       21 0.15167530E+00 0.44839434E+03</pdfrwt>
<totfact> 0.38118101E+04</totfact>
</mgrwt>
</event>
<event>
 7    0  0.4712189E-002  0.4479743E+03  0.7546771E-02  0.1028328E+00
         21   -1    0    0  502  501  0.00000000000E+00  0.00000000000E+00  0.20080833373E+03  0.20080833373E+03  0.00000000000E+00 0. -1.
         21   -1    0    0  501  502 -0.00000000000E+00 -0.00000000000E+00 -0.24984148014E+03  0.24984148014E+03  0.00000000000E+00 0. -1.
      99926    2    1    2    0    0  0.00000000000E+00  0.14210854715E-13 -0.49033146415E+02  0.45064981387E+03  0.44797433553E+03 0.  0.
      99925    2    3    3    0    0  0.52129766500E+02  0.83426995407E+02  0.97494246995E+01  0.28100172256E+03  0.26303866766E+03 0.  0.
         25    1    3    3    0    0 -0.52129766500E+02 -0.83426995407E+02 -0.58782571115E+02  0.16964809131E+03  0.12509000000E+03 0.  0.
         25    1    4    4    0    0  0.45446610037E+02  0.38307299294E+02  0.40612625239E+02  0.14432510860E+03  0.12509000000E+03 0.  0.
         25    1    4    4    0    0  0.66831564638E+01  0.45119696113E+02 -0.30863200540E+02  0.13667661397E+03  0.12509000000E+03 0.  0.
<mgrwt>
<rscale>  2 0.44797434E+03</rscale>
<asrwt>0</asrwt>
<pdfrwt beam="1">  1       21 0.29530637E-01 0.44797434E+03</pdfrwt>
<pdfrwt beam="2">  1       21 0.36741394E-01 0.44797434E+03</pdfrwt>
<totfact> 0.72865143E+04</totfact>
</mgrwt>
</event>
<event>
 7    0  0.4712189E-002  0.4545604E+03  0.7546771E-02  0.1026371E+00
         21   -1    0    0  502  501  0.00000000000E+00  0.00000000000E+00  0.11770735649E+03  0.11770735649E+03  0.00000000000E+00 0.  1.
         21   -1    0    0  501  502 -0.00000000000E+00 -0.00000000000E+00 -0.43885352453E+03  0.43885352453E+03  0.00000000000E+00 0.  1.
      99926    2    1    2    0    0  0.00000000000E+00 -0.35527136788E-14 -0.32114616805E+03  0.55656088102E+03  0.45456039536E+03 0.  0.
      99925    2    3    3    0    0 -0.79790097041E+02  0.28300092561E+02 -0.29302713598E+03  0.40291992655E+03  0.26327212152E+03 0.  0.
         25    1    4    4    0    0 -0.19067130082E+02  0.49526887647E+02 -0.14257793713E+03  0.19695797599E+03  0.12509000000E+03 0.  0.
         25    1    3    3    0    0  0.79790097041E+02 -0.28300092561E+02 -0.28119032069E+02  0.15364095447E+03  0.12509000000E+03 0.  0.
         25    1    4    4    0    0 -0.60722966959E+02 -0.21226795086E+02 -0.15044919885E+03  0.20596195056E+03  0.12509000000E+03 0.  0.
<mgrwt>
<rscale>  2 0.45456040E+03</rscale>
<asrwt>0</asrwt>
<pdfrwt beam="1">  1       21 0.17309905E-01 0.45456040E+03</pdfrwt>
<pdfrwt beam="2">  1       21 0.64537283E-01 0.45456040E+03</pdfrwt>
<totfact> 0.61649141E+04</totfact>
</mgrwt>
</event>
<event>
 7    0  0.4712189E-002  0.4270430E+03  0.7546771E-02  0.1034798E+00
         21   -1    0    0  502  501  0.00000000000E+00  0.00000000000E+00  0.34283220163E+03  0.34283220163E+03  0.00000000000E+00 0. -1.
         21   -1    0    0  501  502 -0.00000000000E+00 -0.00000000000E+00 -0.13298471141E+03  0.13298471141E+03  0.00000000000E+00 0. -1.
      99926    2    1    2    0    0  0.00000000000E+00 -0.88817841970E-15  0.20984749022E+03  0.47581691305E+03  0.42704304887E+03 0.  0.
      99925    2    3    3    0    0 -0.83677804135E+02  0.77419596498E+01  0.13379787388E+03  0.30701831977E+03  0.26324221694E+03 0.  0.
         25    1    3    3    0    0  0.83677804135E+02 -0.77419596498E+01  0.76049616343E+02  0.16879859327E+03  0.12509000000E+03 0.  0.
         25    1    4    4    0    0 -0.34767192554E+02 -0.25016713332E+02  0.96911439482E+02  0.16393269603E+03  0.12509000000E+03 0.  0.
         25    1    4    4    0    0 -0.48910611582E+02  0.32758672982E+02  0.36886434399E+02  0.14308562375E+03  0.12509000000E+03 0.  0.
<mgrwt>
<rscale>  2 0.42704305E+03</rscale>
<asrwt>0</asrwt>
<pdfrwt beam="1">  1       21 0.50416500E-01 0.42704305E+03</pdfrwt>
<pdfrwt beam="2">  1       21 0.19556575E-01 0.42704305E+03</pdfrwt>
<totfact> 0.84196573E+04</totfact>
</mgrwt>
</event>
<event>
 7    0  0.4712189E-002  0.4504106E+03  0.7546771E-02  0.1027600E+00
         21   -1    0    0  502  501  0.00000000000E+00  0.00000000000E+00  0.25742322078E+03  0.25742322078E+03  0.00000000000E+00 0. -1.
         21   -1    0    0  501  502 -0.00000000000E+00 -0.00000000000E+00 -0.19701966716E+03  0.19701966716E+03  0.00000000000E+00 0. -1.
      99926    2    1    2    0    0  0.00000000000E+00  0.17763568394E-14  0.60403553615E+02  0.45444288794E+03  0.45041064498E+03 0.  0.
      99925    2    3    3    0    0  0.73668881820E+02 -0.10913017740E+02  0.11828443792E+03  0.29777794939E+03  0.26293402363E+03 0.  0.
         25    1    3    3    0    0 -0.73668881820E+02  0.10913017740E+02 -0.57880884305E+02  0.15666493856E+03  0.12509000000E+03 0.  0.
         25    1    4    4    0    0  0.71606719372E+02 -0.21362483329E+02  0.81515883312E+02  0.16696174797E+03  0.12509000000E+03 0.  0.
         25    1    4    4    0    0  0.20621624481E+01  0.10449465589E+02  0.36768554608E+02  0.13081620142E+03  0.12509000000E+03 0.  0.
<mgrwt>
<rscale>  2 0.45041064E+03</rscale>
<asrwt>0</asrwt>
<pdfrwt beam="1">  1       21 0.37856356E-01 0.45041064E+03</pdfrwt>
<pdfrwt beam="2">  1       21 0.28973480E-01 0.45041064E+03</pdfrwt>
<totfact> 0.71156282E+04</totfact>
</mgrwt>
</event>
<event>
 7    0  0.4712189E-002  0.4499033E+03  0.7546771E-02  0.1027751E+00
         21   -1    0    0  502  501  0.00000000000E+00  0.00000000000E+00  0.22732842549E+02  0.22732842549E+02  0.00000000000E+00 0. -1.
         21   -1    0    0  501  502 -0.00000000000E+00 -0.00000000000E+00 -0.22259976626E+04  0.22259976626E+04  0.00000000000E+00 0. -1.
      99926    2    1    2    0    0  0.00000000000E+00  0.00000000000E+00 -0.22032648200E+04  0.22487305051E+04  0.44990334241E+03 0.  0.
      99925    2    3    3    0    0 -0.81474828364E+02 -0.70749358415E+02 -0.13669351683E+04  0.13962409662E+04  0.26331248019E+03 0.  0.
         25    1    4    4    0    0 -0.68973690622E+02 -0.37308126797E+02 -0.87649294742E+03  0.88884006508E+03  0.12509000000E+03 0.  0.
         25    1    4    4    0    0 -0.12501137743E+02 -0.33441231618E+02 -0.49044222084E+03  0.50740090117E+03  0.12509000000E+03 0.  0.
         25    1    3    3    0    0  0.81474828364E+02  0.70749358415E+02 -0.83632965178E+03  0.85248953890E+03  0.12509000000E+03 0.  0.
<mgrwt>
<rscale>  2 0.44990334E+03</rscale>
<asrwt>0</asrwt>
<pdfrwt beam="1">  1       21 0.33430641E-02 0.44990334E+03</pdfrwt>
<pdfrwt beam="2">  1       21 0.32735269E+00 0.44990334E+03</pdfrwt>
<totfact> 0.10465490E+04</totfact>
</mgrwt>
</event>
<event>
 7    0  0.4712189E-002  0.4442352E+03  0.7546771E-02  0.1029455E+00
         21   -1    0    0  502  501  0.00000000000E+00  0.00000000000E+00  0.15686554831E+03  0.15686554831E+03  0.00000000000E+00 0.  1.
         21   -1    0    0  501  502 -0.00000000000E+00 -0.00000000000E+00 -0.31451284312E+03  0.31451284312E+03  0.00000000000E+00 0.  1.
      99926    2    1    2    0    0  0.00000000000E+00  0.00000000000E+00 -0.15764729481E+03  0.47137839143E+03  0.44423520611E+03 0.  0.
      99925    2    3    3    0    0 -0.74309132975E+02  0.14328960892E+02 -0.26381216375E+02  0.27489567511E+03  0.26295341271E+03 0.  0.
         25    1    3    3    0    0  0.74309132975E+02 -0.14328960892E+02 -0.13126607843E+03  0.19648271632E+03  0.12509000000E+03 0.  0.
         25    1    4    4    0    0 -0.24220273197E+01  0.15346462146E+02  0.89034483092E+01  0.12636518353E+03  0.12509000000E+03 0.  0.
         25    1    4    4    0    0 -0.71887105656E+02 -0.10175012537E+01 -0.35284664684E+02  0.14853049158E+03  0.12509000000E+03 0.  0.
<mgrwt>
<rscale>  2 0.44423521E+03</rscale>
<asrwt>0</asrwt>
<pdfrwt beam="1">  1       21 0.23068463E-01 0.44423521E+03</pdfrwt>
<pdfrwt beam="2">  1       21 0.46251889E-01 0.44423521E+03</pdfrwt>
<totfact> 0.73407293E+04</totfact>
</mgrwt>
</event>
<event>
 7    0  0.4712189E-002  0.4723538E+03  0.7546771E-02  0.1021258E+00
         21   -1    0    0  502  501  0.00000000000E+00  0.00000000000E+00  0.46629710242E+02  0.46629710242E+02  0.00000000000E+00 0.  1.
         21   -1    0    0  501  502 -0.00000000000E+00 -0.00000000000E+00 -0.11962230861E+04  0.11962230861E+04  0.00000000000E+00 0.  1.
      99926    2    1    2    0    0  0.00000000000E+00  0.88817841970E-15 -0.11495933759E+04  0.12428527964E+04  0.47235383301E+03 0.  0.
      99925    2    3    3    0    0  0.12854454225E+03  0.50312747473E+01 -0.71880028321E+03  0.77618459532E+03  0.26313431135E+03 0.  0.
         25    1    4    4    0    0  0.10134188309E+03 -0.19472362595E+02 -0.37833736419E+03  0.41162606746E+03  0.12509000000E+03 0.  0.
         25    1    3    3    0    0 -0.12854454225E+03 -0.50312747473E+01 -0.43079309267E+03  0.46666820104E+03  0.12509000000E+03 0.  0.
         25    1    4    4    0    0  0.27202659157E+02  0.24503637343E+02 -0.34046291902E+03  0.36455852786E+03  0.12509000000E+03 0.  0.
<mgrwt>
<rscale>  2 0.47235383E+03</rscale>
<asrwt>0</asrwt>
<pdfrwt beam="1">  1       21 0.68573112E-02 0.47235383E+03</pdfrwt>
<pdfrwt beam="2">  1       21 0.17591514E+00 0.47235383E+03</pdfrwt>
<totfact> 0.26986221E+04</totfact>
</mgrwt>
</event>
<event>
 7    0  0.4712189E-002  0.4590571E+03  0.7546771E-02  0.1025055E+00
         21   -1    0    0  502  501  0.00000000000E+00  0.00000000000E+00  0.40807922601E+02  0.40807922601E+02  0.00000000000E+00 0. -1.
         21   -1    0    0  501  502 -0.00000000000E+00 -0.00000000000E+00 -0.12910080208E+04  0.12910080208E+04  0.00000000000E+00 0. -1.
      99926    2    1    2    0    0  0.00000000000E+00  0.14210854715E-13 -0.12502000982E+04  0.13318159434E+04  0.45905710053E+03 0.  0.
      99925    2    3    3    0    0  0.42845481347E+02 -0.84537285899E+02 -0.98261034635E+03  0.10215997746E+04  0.26298425572E+03 0.  0.
         25    1    4    4    0    0  0.50792969504E+02 -0.73105287571E+02 -0.52342229215E+03  0.54547475912E+03  0.12509000000E+03 0.  0.
         25    1    3    3    0    0 -0.42845481347E+02  0.84537285899E+02 -0.26758975180E+03  0.31021616874E+03  0.12509000000E+03 0.  0.
         25    1    4    4    0    0 -0.79474881563E+01 -0.11431998328E+02 -0.45918805420E+03  0.47612501549E+03  0.12509000000E+03 0.  0.
<mgrwt>
<rscale>  2 0.45905710E+03</rscale>
<asrwt>0</asrwt>
<pdfrwt beam="1">  1       21 0.60011653E-02 0.45905710E+03</pdfrwt>
<pdfrwt beam="2">  1       21 0.18985412E+00 0.45905710E+03</pdfrwt>
<totfact> 0.27332130E+04</totfact>
</mgrwt>
</event>
<event>
 7    0  0.4712189E-002  0.4508501E+03  0.7546771E-02  0.1027469E+00
         21   -1    0    0  502  501  0.00000000000E+00  0.00000000000E+00  0.21702830644E+04  0.21702830644E+04  0.00000000000E+00 0. -1.
         21   -1    0    0  501  502 -0.00000000000E+00 -0.00000000000E+00 -0.23414669753E+02  0.23414669753E+02  0.00000000000E+00 0. -1.
      99926    2    1    2    0    0  0.00000000000E+00  0.00000000000E+00  0.21468683946E+04  0.21936977341E+04  0.45085013574E+03 0.  0.
      99925    2    3    3    0    0  0.38113329198E+02 -0.88973056028E+00  0.18543516204E+04  0.18732808357E+04  0.26288351019E+03 0.  0.
         25    1    3    3    0    0 -0.38113329198E+02  0.88973056028E+00  0.29251677424E+03  0.32041689843E+03  0.12509000000E+03 0.  0.
         25    1    4    4    0    0  0.52318321651E+02  0.17889084350E+01  0.79644062043E+03  0.80790195998E+03  0.12509000000E+03 0.  0.
         25    1    4    4    0    0 -0.14204992453E+02 -0.26786389953E+01  0.10579109999E+04  0.10653788757E+04  0.12509000000E+03 0.  0.
<mgrwt>
<rscale>  2 0.45085014E+03</rscale>
<asrwt>0</asrwt>
<pdfrwt beam="1">  1       21 0.31915914E+00 0.45085014E+03</pdfrwt>
<pdfrwt beam="2">  1       21 0.34433353E-02 0.45085014E+03</pdfrwt>
<totfact> 0.11152664E+04</totfact>
</mgrwt>
</event>
<event>
 7    0  0.4712189E-002  0.4537666E+03  0.7546771E-02  0.1026605E+00
         21   -1    0    0  502  501  0.00000000000E+00  0.00000000000E+00  0.16444985205E+03  0.16444985205E+03  0.00000000000E+00 0.  1.
         21   -1    0    0  501  502 -0.00000000000E+00 -0.00000000000E+00 -0.31301968997E+03  0.31301968997E+03  0.00000000000E+00 0.  1.
      99926    2    1    2    0    0  0.00000000000E+00  0.14210854715E-13 -0.14856983792E+03  0.47746954202E+03  0.45376664357E+03 0.  0.
      99925    2    3    3    0    0  0.10048111690E+02  0.11030568741E+03 -0.76232740937E+02  0.29540232113E+03  0.26302621792E+03 0.  0.
         25    1    3    3    0    0 -0.10048111690E+02 -0.11030568741E+03 -0.72337096979E+02  0.18206722089E+03  0.12509000000E+03 0.  0.
         25    1    4    4    0    0 -0.13400393342E+02  0.15807072899E+02 -0.30288575011E+02  0.13036234108E+03  0.12509000000E+03 0.  0.
         25    1    4    4    0    0  0.23448505032E+02  0.94498614508E+02 -0.45944165926E+02  0.16503998005E+03  0.12509000000E+03 0.  0.
<mgrwt>
<rscale>  2 0.45376664E+03</rscale>
<asrwt>0</asrwt>
<pdfrwt beam="1">  1       21 0.24183802E-01 0.45376664E+03</pdfrwt>
<pdfrwt beam="2">  1       21 0.46032307E-01 0.45376664E+03</pdfrwt>
<totfact> 0.67543530E+04</totfact>
</mgrwt>
</event>
<event>
 7    0  0.4712189E-002  0.4540049E+03  0.7546771E-02  0.1026534E+00
         21   -1    0    0  502  501  0.00000000000E+00  0.00000000000E+00  0.91329030777E+03  0.91329030777E+03  0.00000000000E+00 0.  1.
         21   -1    0    0  501  502 -0.00000000000E+00 -0.00000000000E+00 -0.56422478572E+02  0.56422478572E+02  0.00000000000E+00 0.  1.
      99926    2    1    2    0    0  0.00000000000E+00 -0.88817841970E-15  0.85686782920E+03  0.96971278634E+03  0.45400485821E+03 0.  0.
      99925    2    3    3    0    0  0.88043338272E+01 -0.79769723615E+01  0.77806273802E+03  0.82139252853E+03  0.26298842797E+03 0.  0.
         25    1    3    3    0    0 -0.88043338272E+01  0.79769723615E+01  0.78805091180E+02  0.14832025781E+03  0.12509000000E+03 0.  0.
         25    1    4    4    0    0  0.32328622892E+02 -0.14423671591E+02  0.47851559023E+03  0.49586072677E+03  0.12509000000E+03 0.  0.
         25    1    4    4    0    0 -0.23524289065E+02  0.64466992291E+01  0.29954714778E+03  0.32553180175E+03  0.12509000000E+03 0.  0.
<mgrwt>
<rscale>  2 0.45400486E+03</rscale>
<asrwt>0</asrwt>
<pdfrwt beam="1">  1       21 0.13430739E+00 0.45400486E+03</pdfrwt>
<pdfrwt beam="2">  1       21 0.82974239E-02 0.45400486E+03</pdfrwt>
<totfact> 0.40668214E+04</totfact>
</mgrwt>
</event>
<event>
 7    0  0.4712189E-002  0.4534218E+03  0.7546771E-02  0.1026707E+00
         21   -1    0    0  502  501  0.00000000000E+00  0.00000000000E+00  0.45392842138E+03  0.45392842138E+03  0.00000000000E+00 0.  1.
         21   -1    0    0  501  502 -0.00000000000E+00 -0.00000000000E+00 -0.11322894513E+03  0.11322894513E+03  0.00000000000E+00 0.  1.
      99926    2    1    2    0    0  0.00000000000E+00  0.00000000000E+00  0.34069947625E+03  0.56715736652E+03  0.45342181827E+03 0.  0.
      99925    2    3    3    0    0 -0.63358990109E+02 -0.53978177198E+02  0.30793960404E+03  0.41337595487E+03  0.26291609895E+03 0.  0.
         25    1    4    4    0    0 -0.24728246353E+02 -0.26864987766E+02  0.92426549747E+02  0.15976041103E+03  0.12509000000E+03 0.  0.
         25    1    3    3    0    0  0.63358990109E+02  0.53978177198E+02  0.32759872207E+02  0.15378141165E+03  0.12509000000E+03 0.  0.
         25    1    4    4    0    0 -0.38630743756E+02 -0.27113189432E+02  0.21551305429E+03  0.25361554384E+03  0.12509000000E+03 0.  0.
<mgrwt>
<rscale>  2 0.45342182E+03</rscale>
<asrwt>0</asrwt>
<pdfrwt beam="1">  1       21 0.66754179E-01 0.45342182E+03</pdfrwt>
<pdfrwt beam="2">  1       21 0.16651316E-01 0.45342182E+03</pdfrwt>
<totfact> 0.61510897E+04</totfact>
</mgrwt>
</event>
<event>
 7    0  0.4712189E-002  0.4551765E+03  0.7546771E-02  0.1026190E+00
         21   -1    0    0  502  501  0.00000000000E+00  0.00000000000E+00  0.10757123554E+03  0.10757123554E+03  0.00000000000E+00 0. -1.
         21   -1    0    0  501  502 -0.00000000000E+00 -0.00000000000E+00 -0.48150792968E+03  0.48150792968E+03  0.00000000000E+00 0. -1.
      99926    2    1    2    0    0  0.00000000000E+00  0.14210854715E-13 -0.37393669414E+03  0.58907916522E+03  0.45517646213E+03 0.  0.
      99925    2    3    3    0    0 -0.27392083298E+02  0.85729450374E+02 -0.14604626780E+03  0.31397660361E+03  0.26296754626E+03 0.  0.
         25    1    4    4    0    0 -0.20029989980E+02  0.59845622204E+02 -0.34653284018E+02  0.14432968229E+03  0.12509000000E+03 0.  0.
         25    1    4    4    0    0 -0.73620933188E+01  0.25883828170E+02 -0.11139298378E+03  0.16964692132E+03  0.12509000000E+03 0.  0.
         25    1    3    3    0    0  0.27392083298E+02 -0.85729450374E+02 -0.22789042634E+03  0.27510256161E+03  0.12509000000E+03 0.  0.
<mgrwt>
<rscale>  2 0.45517646E+03</rscale>
<asrwt>0</asrwt>
<pdfrwt beam="1">  1       21 0.15819300E-01 0.45517646E+03</pdfrwt>
<pdfrwt beam="2">  1       21 0.70809988E-01 0.45517646E+03</pdfrwt>
<totfact> 0.59272846E+04</totfact>
</mgrwt>
</event>
<event>
 7    0  0.4712189E-002  0.4445145E+03  0.7546771E-02  0.1029371E+00
         21   -1    0    0  502  501  0.00000000000E+00  0.00000000000E+00  0.23457556177E+03  0.23457556177E+03  0.00000000000E+00 0. -1.
         21   -1    0    0  501  502 -0.00000000000E+00 -0.00000000000E+00 -0.21058580045E+03  0.21058580045E+03  0.00000000000E+00 0. -1.
      99926    2    1    2    0    0  0.00000000000E+00  0.00000000000E+00  0.23989761321E+02  0.44516136223E+03  0.44451448770E+03 0.  0.
      99925    2    3    3    0    0  0.83958445175E+02  0.59671809702E+02  0.17516730929E+02  0.28299122437E+03  0.26299705668E+03 0.  0.
         25    1    4    4    0    0  0.77415925290E+02  0.16472499675E+02 -0.72103715762E+01  0.14820278773E+03  0.12509000000E+03 0.  0.
         25    1    4    4    0    0  0.65425198849E+01  0.43199310028E+02  0.24727102505E+02  0.13478843664E+03  0.12509000000E+03 0.  0.
         25    1    3    3    0    0 -0.83958445175E+02 -0.59671809702E+02  0.64730303918E+01  0.16217013785E+03  0.12509000000E+03 0.  0.
<mgrwt>
<rscale>  2 0.44451449E+03</rscale>
<asrwt>0</asrwt>
<pdfrwt beam="1">  1       21 0.34496406E-01 0.44451449E+03</pdfrwt>
<pdfrwt beam="2">  1       21 0.30968500E-01 0.44451449E+03</pdfrwt>
<totfact> 0.75384885E+04</totfact>
</mgrwt>
</event>
<event>
 7    0  0.4712189E-002  0.4462437E+03  0.7546771E-02  0.1028848E+00
         21   -1    0    0  502  501  0.00000000000E+00  0.00000000000E+00  0.13515740187E+04  0.13515740187E+04  0.00000000000E+00 0.  1.
         21   -1    0    0  501  502 -0.00000000000E+00 -0.00000000000E+00 -0.36833619497E+02  0.36833619497E+02  0.00000000000E+00 0.  1.
      99926    2    1    2    0    0  0.00000000000E+00  0.00000000000E+00  0.13147403992E+04  0.13884076382E+04  0.44624371425E+03 0.  0.
      99925    2    3    3    0    0  0.78437800450E+02  0.64552184601E+02  0.75773474141E+03  0.80856086190E+03  0.26322852423E+03 0.  0.
         25    1    4    4    0    0  0.42311707241E+02  0.56969424555E+02  0.30139659655E+03  0.33395091318E+03  0.12509000000E+03 0.  0.
         25    1    3    3    0    0 -0.78437800450E+02 -0.64552184601E+02  0.55700565780E+03  0.57984677631E+03  0.12509000000E+03 0.  0.
         25    1    4    4    0    0  0.36126093209E+02  0.75827600467E+01  0.45633814487E+03  0.47460994872E+03  0.12509000000E+03 0.  0.
<mgrwt>
<rscale>  2 0.44624371E+03</rscale>
<asrwt>0</asrwt>
<pdfrwt beam="1">  1       21 0.19876085E+00 0.44624371E+03</pdfrwt>
<pdfrwt beam="2">  1       21 0.54167096E-02 0.44624371E+03</pdfrwt>
<totfact> 0.28535613E+04</totfact>
</mgrwt>
</event>
<event>
 7    0  0.4712189E-002  0.4577023E+03  0.7546771E-02  0.1025450E+00
         21   -1    0    0  502  501  0.00000000000E+00  0.00000000000E+00  0.88747679637E+02  0.88747679637E+02  0.00000000000E+00 0. -1.
         21   -1    0    0  501  502 -0.00000000000E+00 -0.00000000000E+00 -0.59013195294E+03  0.59013195294E+03  0.00000000000E+00 0. -1.
      99926    2    1    2    0    0 -0.14210854715E-13  0.00000000000E+00 -0.50138427330E+03  0.67887963258E+03  0.45770226787E+03 0.  0.
      99925    2    3    3    0    0  0.66263975061E+02 -0.88719766317E+02 -0.26501526841E+03  0.38943201055E+03  0.26298685713E+03 0.  0.
         25    1    4    4    0    0  0.53955712947E+02 -0.76662466990E+02 -0.11946755855E+03  0.19674439878E+03  0.12509000000E+03 0.  0.
         25    1    3    3    0    0 -0.66263975061E+02  0.88719766317E+02 -0.23636900489E+03  0.28944762203E+03  0.12509000000E+03 0.  0.
         25    1    4    4    0    0  0.12308262113E+02 -0.12057299326E+02 -0.14554770986E+03  0.19268761177E+03  0.12509000000E+03 0.  0.
<mgrwt>
<rscale>  2 0.45770227E+03</rscale>
<asrwt>0</asrwt>
<pdfrwt beam="1">  1       21 0.13051129E-01 0.45770227E+03</pdfrwt>
<pdfrwt beam="2">  1       21 0.86784111E-01 0.45770227E+03</pdfrwt>
<totfact> 0.52929189E+04</totfact>
</mgrwt>
</event>
<event>
 7    0  0.4712189E-002  0.4532015E+03  0.7546771E-02  0.1026772E+00
         21   -1    0    0  502  501  0.00000000000E+00  0.00000000000E+00  0.12925803972E+03  0.12925803972E+03  0.00000000000E+00 0. -1.
         21   -1    0    0  501  502 -0.00000000000E+00 -0.00000000000E+00 -0.39725113160E+03  0.39725113160E+03  0.00000000000E+00 0. -1.
      99926    2    1    2    0    0  0.00000000000E+00  0.14210854715E-13 -0.26799309188E+03  0.52650917133E+03  0.45320151169E+03 0.  0.
      99925    2    3    3    0    0  0.49682541073E+01 -0.88344125555E+02 -0.90026570749E+02  0.29167101682E+03  0.26294073580E+03 0.  0.
         25    1    4    4    0    0  0.79889834674E+01 -0.86209640058E+02 -0.44533448416E+02  0.15851391744E+03  0.12509000000E+03 0.  0.
         25    1    4    4    0    0 -0.30207293601E+01 -0.21344854975E+01 -0.45493122333E+02  0.13315709937E+03  0.12509000000E+03 0.  0.
         25    1    3    3    0    0 -0.49682541073E+01  0.88344125555E+02 -0.17796652113E+03  0.23483815451E+03  0.12509000000E+03 0.  0.
<mgrwt>
<rscale>  2 0.45320151E+03</rscale>
<asrwt>0</asrwt>
<pdfrwt beam="1">  1       21 0.19008535E-01 0.45320151E+03</pdfrwt>
<pdfrwt beam="2">  1       21 0.58419284E-01 0.45320151E+03</pdfrwt>
<totfact> 0.64356036E+04</totfact>
</mgrwt>
</event>
<event>
 7    0  0.4712189E-002  0.4513035E+03  0.7546771E-02  0.1027334E+00
         21   -1    0    0  502  501  0.00000000000E+00  0.00000000000E+00  0.20650852097E+03  0.20650852097E+03  0.00000000000E+00 0. -1.
         21   -1    0    0  501  502 -0.00000000000E+00 -0.00000000000E+00 -0.24656955145E+03  0.24656955145E+03  0.00000000000E+00 0. -1.
      99926    2    1    2    0    0  0.00000000000E+00 -0.14210854715E-13 -0.40061030479E+02  0.45307807242E+03  0.45130350491E+03 0.  0.
      99925    2    3    3    0    0  0.32164029081E+02  0.10046405002E+03  0.43339942312E+01  0.28353168811E+03  0.26314232754E+03 0.  0.
         25    1    4    4    0    0  0.21524122838E+01  0.90600094281E+02  0.10299155036E+01  0.15447193528E+03  0.12509000000E+03 0.  0.
         25    1    3    3    0    0 -0.32164029081E+02 -0.10046405002E+03 -0.44395024710E+02  0.16954638431E+03  0.12509000000E+03 0.  0.
         25    1    4    4    0    0  0.30011616797E+02  0.98639557355E+01  0.33040787275E+01  0.12905975283E+03  0.12509000000E+03 0.  0.
<mgrwt>
<rscale>  2 0.45130350E+03</rscale>
<asrwt>0</asrwt>
<pdfrwt beam="1">  1       21 0.30368900E-01 0.45130350E+03</pdfrwt>
<pdfrwt beam="2">  1       21 0.36260228E-01 0.45130350E+03</pdfrwt>
<totfact> 0.70750577E+04</totfact>
</mgrwt>
</event>
<event>
 7    0  0.4712189E-002  0.4579100E+03  0.7546771E-02  0.1025389E+00
         21   -1    0    0  502  501  0.00000000000E+00  0.00000000000E+00  0.88385764756E+02  0.88385764756E+02  0.00000000000E+00 0.  1.
         21   -1    0    0  501  502 -0.00000000000E+00 -0.00000000000E+00 -0.59308647783E+03  0.59308647783E+03  0.00000000000E+00 0.  1.
      99926    2    1    2    0    0  0.35527136788E-14  0.00000000000E+00 -0.50470071307E+03  0.68147224259E+03  0.45791004317E+03 0.  0.
      99925    2    3    3    0    0 -0.64700471939E+01  0.76599498281E+02 -0.44576883874E+03  0.52326409311E+03  0.26303252442E+03 0.  0.
         25    1    3    3    0    0  0.64700471939E+01 -0.76599498281E+02 -0.58931874337E+02  0.15820814948E+03  0.12509000000E+03 0.  0.
         25    1    4    4    0    0  0.30012647805E+02  0.40558307343E+02 -0.17832252472E+03  0.22358928026E+03  0.12509000000E+03 0.  0.
         25    1    4    4    0    0 -0.36482694999E+02  0.36041190937E+02 -0.26744631402E+03  0.29967481285E+03  0.12509000000E+03 0.  0.
<mgrwt>
<rscale>  2 0.45791004E+03</rscale>
<asrwt>0</asrwt>
<pdfrwt beam="1">  1       21 0.12997907E-01 0.45791004E+03</pdfrwt>
<pdfrwt beam="2">  1       21 0.87218600E-01 0.45791004E+03</pdfrwt>
<totfact> 0.52702397E+04</totfact>
</mgrwt>
</event>
<event>
 7    0  0.4712189E-002  0.4548300E+03  0.7546771E-02  0.1026291E+00
         21   -1    0    0  502  501  0.00000000000E+00  0.00000000000E+00  0.15799063414E+03  0.15799063414E+03  0.00000000000E+00 0. -1.
         21   -1    0    0  501  502 -0.00000000000E+00 -0.00000000000E+00 -0.32734586504E+03  0.32734586504E+03  0.00000000000E+00 0. -1.
      99926    2    1    2    0    0  0.00000000000E+00  0.14210854715E-13 -0.16935523091E+03  0.48533649918E+03  0.45482999374E+03 0.  0.
      99925    2    3    3    0    0  0.45607201432E+02  0.86922921762E+02 -0.16691698880E+03  0.32631114185E+03  0.26264437743E+03 0.  0.
         25    1    3    3    0    0 -0.45607201432E+02 -0.86922921762E+02 -0.24382421065E+01  0.15902535733E+03  0.12509000000E+03 0.  0.
         25    1    4    4    0    0  0.24780071785E+02  0.62650965739E+02 -0.45796240866E+02  0.14927826112E+03  0.12509000000E+03 0.  0.
         25    1    4    4    0    0  0.20827129647E+02  0.24271956023E+02 -0.12112074793E+03  0.17703288073E+03  0.12509000000E+03 0.  0.
<mgrwt>
<rscale>  2 0.45482999E+03</rscale>
<asrwt>0</asrwt>
<pdfrwt beam="1">  1       21 0.23233917E-01 0.45482999E+03</pdfrwt>
<pdfrwt beam="2">  1       21 0.48139097E-01 0.45482999E+03</pdfrwt>
<totfact> 0.66403221E+04</totfact>
</mgrwt>
</event>
<event>
 7    0  0.4712189E-002  0.4413671E+03  0.7546771E-02  0.1030328E+00
         21   -1    0    0  502  501  0.00000000000E+00  0.00000000000E+00  0.19201718060E+03  0.19201718060E+03  0.00000000000E+00 0.  1.
         21   -1    0    0  501  502 -0.00000000000E+00 -0.00000000000E+00 -0.25362958218E+03  0.25362958218E+03  0.00000000000E+00 0.  1.
      99926    2    1    2    0    0  0.00000000000E+00  0.00000000000E+00 -0.61612401580E+02  0.44564676278E+03  0.44136713646E+03 0.  0.
      99925    2    3    3    0    0  0.80908778154E+01 -0.88611390175E+02  0.64490430666E+01  0.27772621871E+03  0.26300726536E+03 0.  0.
         25    1    3    3    0    0 -0.80908778154E+01  0.88611390175E+02 -0.68061444647E+02  0.16792054407E+03  0.12509000000E+03 0.  0.
         25    1    4    4    0    0 -0.12149642088E+02 -0.45879102905E+02 -0.33945826907E+02  0.13803018927E+03  0.12509000000E+03 0.  0.
         25    1    4    4    0    0  0.20240519903E+02 -0.42732287271E+02  0.40394869974E+02  0.13969602944E+03  0.12509000000E+03 0.  0.
<mgrwt>
<rscale>  2 0.44136714E+03</rscale>
<asrwt>0</asrwt>
<pdfrwt beam="1">  1       21 0.28237821E-01 0.44136714E+03</pdfrwt>
<pdfrwt beam="2">  1       21 0.37298468E-01 0.44136714E+03</pdfrwt>
<totfact> 0.77308666E+04</totfact>
</mgrwt>
</event>
<event>
 7    0  0.4712189E-002  0.4538626E+03  0.7546771E-02  0.1026576E+00
         21   -1    0    0  502  501  0.00000000000E+00  0.00000000000E+00  0.52048891829E+03  0.52048891829E+03  0.00000000000E+00 0. -1.
         21   -1    0    0  501  502 -0.00000000000E+00 -0.00000000000E+00 -0.98941221585E+02  0.98941221585E+02  0.00000000000E+00 0. -1.
      99926    2    1    2    0    0  0.00000000000E+00  0.00000000000E+00  0.42154769671E+03  0.61943013988E+03  0.45386257567E+03 0.  0.
      99925    2    3    3    0    0 -0.15353874824E+02  0.67685660663E+02  0.38564589904E+03  0.47193933573E+03  0.26303400358E+03 0.  0.
         25    1    3    3    0    0  0.15353874824E+02 -0.67685660663E+02  0.35901797674E+02  0.14749080415E+03  0.12509000000E+03 0.  0.
         25    1    4    4    0    0  0.28314296370E+02  0.16054733009E+02  0.16823733905E+03  0.21215740426E+03  0.12509000000E+03 0.  0.
         25    1    4    4    0    0 -0.43668171195E+02  0.51630927653E+02  0.21740855999E+03  0.25978193148E+03  0.12509000000E+03 0.  0.
<mgrwt>
<rscale>  2 0.45386258E+03</rscale>
<asrwt>0</asrwt>
<pdfrwt beam="1">  1       21 0.76542487E-01 0.45386258E+03</pdfrwt>
<pdfrwt beam="2">  1       21 0.14550180E-01 0.45386258E+03</pdfrwt>
<totfact> 0.58017300E+04</totfact>
</mgrwt>
</event>
<event>
 7    0  0.4712189E-002  0.4394469E+03  0.7546771E-02  0.1030917E+00
         21   -1    0    0  502  501  0.00000000000E+00  0.00000000000E+00  0.21902861776E+04  0.21902861776E+04  0.00000000000E+00 0.  1.
         21   -1    0    0  501  502 -0.00000000000E+00 -0.00000000000E+00 -0.22042044897E+02  0.22042044897E+02  0.00000000000E+00 0.  1.
      99926    2    1    2    0    0  0.00000000000E+00  0.26645352591E-14  0.21682441327E+04  0.22123282225E+04  0.43944686261E+03 0.  0.
      99925    2    3    3    0    0  0.24523310365E+02 -0.67241898692E+01  0.90860193204E+03  0.94623478626E+03  0.26297564972E+03 0.  0.
         25    1    3    3    0    0 -0.24523310365E+02  0.67241898692E+01  0.12596422007E+04  0.12660934363E+04  0.12509000000E+03 0.  0.
         25    1    4    4    0    0 -0.25124045496E+01 -0.39601739889E+02  0.41516718774E+03  0.43541464359E+03  0.12509000000E+03 0.  0.
         25    1    4    4    0    0  0.27035714914E+02  0.32877550019E+02  0.49343474430E+03  0.51082014267E+03  0.12509000000E+03 0.  0.
<mgrwt>
<rscale>  2 0.43944686E+03</rscale>
<asrwt>0</asrwt>
<pdfrwt beam="1">  1       21 0.32210076E+00 0.43944686E+03</pdfrwt>
<pdfrwt beam="2">  1       21 0.32414787E-02 0.43944686E+03</pdfrwt>
<totfact> 0.11919002E+04</totfact>
</mgrwt>
</event>
<event>
 7    0  0.4712189E-002  0.4402828E+03  0.7546771E-02  0.1030660E+00
         21   -1    0    0  502  501  0.00000000000E+00  0.00000000000E+00  0.44589514064E+02  0.44589514064E+02  0.00000000000E+00 0. -1.
         21   -1    0    0  501  502 -0.00000000000E+00 -0.00000000000E+00 -0.10868526799E+04  0.10868526799E+04  0.00000000000E+00 0. -1.
      99926    2    1    2    0    0  0.00000000000E+00  0.00000000000E+00 -0.10422631659E+04  0.11314421940E+04  0.44028278575E+03 0.  0.
      99925    2    3    3    0    0 -0.32636377825E+02  0.88602056907E+02 -0.59411776307E+03  0.65668197263E+03  0.26332458893E+03 0.  0.
         25    1    3    3    0    0  0.32636377825E+02 -0.88602056907E+02 -0.44814540281E+03  0.47476022138E+03  0.12509000000E+03 0.  0.
         25    1    4    4    0    0 -0.41330181711E+02  0.10940039147E+02 -0.28719808777E+03  0.31616153798E+03  0.12509000000E+03 0.  0.
         25    1    4    4    0    0  0.86938038867E+01  0.77662017760E+02 -0.30691967530E+03  0.34052043465E+03  0.12509000000E+03 0.  0.
<mgrwt>
<rscale>  2 0.44028279E+03</rscale>
<asrwt>0</asrwt>
<pdfrwt beam="1">  1       21 0.65572806E-02 0.44028279E+03</pdfrwt>
<pdfrwt beam="2">  1       21 0.15983130E+00 0.44028279E+03</pdfrwt>
<totfact> 0.38656006E+04</totfact>
</mgrwt>
</event>
<event>
 6    0  0.4712189E-002  0.4569478E+03  0.7546771E-02  0.1025670E+00
         21   -1    0    0  502  501  0.00000000000E+00  0.00000000000E+00  0.18918735379E+03  0.18918735379E+03  0.00000000000E+00 0. -1.
         21   -1    0    0  501  502 -0.00000000000E+00 -0.00000000000E+00 -0.27591865151E+03  0.27591865151E+03  0.00000000000E+00 0. -1.
      99926    2    1    2    0    0  0.35527136788E-14  0.71054273576E-14 -0.86731297719E+02  0.46510600529E+03  0.45694778494E+03 0.  0.
         25    1    3    3    0    0  0.14772308162E+02  0.46075500713E+02  0.68551582584E+02  0.15062536449E+03  0.12509000000E+03 0.  0.
         25    1    3    3    0    0  0.14453400502E+02 -0.50544714779E+02 -0.12012807449E+03  0.18122342939E+03  0.12509000000E+03 0.  0.
         25    1    3    3    0    0 -0.29225708664E+02  0.44692140665E+01 -0.35154805809E+02  0.13325721141E+03  0.12509000000E+03 0.  0.
<mgrwt>
<rscale>  2 0.45694778E+03</rscale>
<asrwt>0</asrwt>
<pdfrwt beam="1">  1       21 0.27821670E-01 0.45694778E+03</pdfrwt>
<pdfrwt beam="2">  1       21 0.40576272E-01 0.45694778E+03</pdfrwt>
<totfact> 0.66762586E+04</totfact>
</mgrwt>
</event>
<event>
 7    0  0.4712189E-002  0.4628985E+03  0.7546771E-02  0.1023944E+00
         21   -1    0    0  502  501  0.00000000000E+00  0.00000000000E+00  0.37552553578E+03  0.37552553578E+03  0.00000000000E+00 0.  1.
         21   -1    0    0  501  502 -0.00000000000E+00 -0.00000000000E+00 -0.14265009428E+03  0.14265009428E+03  0.00000000000E+00 0.  1.
      99926    2    1    2    0    0  0.14210854715E-13  0.00000000000E+00  0.23287544150E+03  0.51817563005E+03  0.46289849031E+03 0.  0.
      99925    2    3    3    0    0 -0.62946353577E+02 -0.10100223979E+03  0.12333379592E+03  0.31369928402E+03  0.26274002305E+03 0.  0.
         25    1    3    3    0    0  0.62946353577E+02  0.10100223979E+03  0.10954164558E+03  0.20447634603E+03  0.12509000000E+03 0.  0.
         25    1    4    4    0    0  0.58595796962E+01 -0.58213843088E+02  0.74211091634E+02  0.15677365985E+03  0.12509000000E+03 0.  0.
         25    1    4    4    0    0 -0.68805933273E+02 -0.42788396698E+02  0.49122704281E+02  0.15692562417E+03  0.12509000000E+03 0.  0.
<mgrwt>
<rscale>  2 0.46289849E+03</rscale>
<asrwt>0</asrwt>
<pdfrwt beam="1">  1       21 0.55224343E-01 0.46289849E+03</pdfrwt>
<pdfrwt beam="2">  1       21 0.20977955E-01 0.46289849E+03</pdfrwt>
<totfact> 0.60152182E+04</totfact>
</mgrwt>
</event>
<event>
 7    0  0.4712189E-002  0.4527108E+03  0.7546771E-02  0.1026917E+00
         21   -1    0    0  502  501  0.00000000000E+00  0.00000000000E+00  0.12431360816E+03  0.12431360816E+03  0.00000000000E+00 0.  1.
         21   -1    0    0  501  502 -0.00000000000E+00 -0.00000000000E+00 -0.41215737563E+03  0.41215737563E+03  0.00000000000E+00 0.  1.
      99926    2    1    2    0    0  0.00000000000E+00  0.00000000000E+00 -0.28784376746E+03  0.53647098379E+03  0.45271081496E+03 0.  0.
      99925    2    3    3    0    0 -0.89686429729E+01 -0.69115746584E+01 -0.50635531513E+02  0.26806185257E+03  0.26299238265E+03 0.  0.
         25    1    4    4    0    0  0.22376578055E+02 -0.28962914493E+02 -0.84856901413E+01  0.13061040042E+03  0.12509000000E+03 0.  0.
         25    1    3    3    0    0  0.89686429729E+01  0.69115746584E+01 -0.23720823595E+03  0.26840913122E+03  0.12509000000E+03 0.  0.
         25    1    4    4    0    0 -0.31345221028E+02  0.22051339835E+02 -0.42149841372E+02  0.13745145215E+03  0.12509000000E+03 0.  0.
<mgrwt>
<rscale>  2 0.45271081E+03</rscale>
<asrwt>0</asrwt>
<pdfrwt beam="1">  1       21 0.18281413E-01 0.45271081E+03</pdfrwt>
<pdfrwt beam="2">  1       21 0.60611378E-01 0.45271081E+03</pdfrwt>
<totfact> 0.63919719E+04</totfact>
</mgrwt>
</event>
<event>
 7    0  0.4712189E-002  0.4426591E+03  0.7546771E-02  0.1029934E+00
         21   -1    0    0  502  501  0.00000000000E+00  0.00000000000E+00  0.52875058348E+03  0.52875058348E+03  0.00000000000E+00 0. -1.
         21   -1    0    0  501  502 -0.00000000000E+00 -0.00000000000E+00 -0.92646272275E+02  0.92646272275E+02  0.00000000000E+00 0. -1.
      99926    2    1    2    0    0  0.00000000000E+00  0.00000000000E+00  0.43610431121E+03  0.62139685576E+03  0.44265910370E+03 0.  0.
      99925    2    3    3    0    0 -0.16922286935E+02  0.95977194312E+02  0.23941650624E+03  0.36874771892E+03  0.26297648397E+03 0.  0.
         25    1    3    3    0    0  0.16922286935E+02 -0.95977194312E+02  0.19668780497E+03  0.25264913684E+03  0.12509000000E+03 0.  0.
         25    1    4    4    0    0  0.21608590251E+02  0.67535193622E+02  0.98267676745E+02  0.17416078187E+03  0.12509000000E+03 0.  0.
         25    1    4    4    0    0 -0.38530877186E+02  0.28442000690E+02  0.14114882950E+03  0.19458693704E+03  0.12509000000E+03 0.  0.
<mgrwt>
<rscale>  2 0.44265910E+03</rscale>
<asrwt>0</asrwt>
<pdfrwt beam="1">  1       21 0.77757437E-01 0.44265910E+03</pdfrwt>
<pdfrwt beam="2">  1       21 0.13624452E-01 0.44265910E+03</pdfrwt>
<totfact> 0.63328921E+04</totfact>
</mgrwt>
</event>
<event>
 7    0  0.4712189E-002  0.4529935E+03  0.7546771E-02  0.1026833E+00
         21   -1    0    0  502  501  0.00000000000E+00  0.00000000000E+00  0.30477358680E+03  0.30477358680E+03  0.00000000000E+00 0.  1.
         21   -1    0    0  501  502 -0.00000000000E+00 -0.00000000000E+00 -0.16832422779E+03  0.16832422779E+03  0.00000000000E+00 0.  1.
      99926    2    1    2    0    0  0.00000000000E+00 -0.35527136788E-14  0.13644935901E+03  0.47309781459E+03  0.45299350392E+03 0.  0.
      99925    2    3    3    0    0  0.31701447276E+02  0.21427221028E+02  0.19511592219E+03  0.32973330959E+03  0.26303939781E+03 0.  0.
         25    1    4    4    0    0  0.20875207314E+02 -0.28155054456E+02  0.82090486291E+02  0.15367119903E+03  0.12509000000E+03 0.  0.
         25    1    3    3    0    0 -0.31701447276E+02 -0.21427221028E+02 -0.58666563179E+02  0.14336450501E+03  0.12509000000E+03 0.  0.
         25    1    4    4    0    0  0.10826239961E+02  0.49582275484E+02  0.11302543589E+03  0.17606211055E+03  0.12509000000E+03 0.  0.
<mgrwt>
<rscale>  2 0.45299350E+03</rscale>
<asrwt>0</asrwt>
<pdfrwt beam="1">  1       21 0.44819645E-01 0.45299350E+03</pdfrwt>
<pdfrwt beam="2">  1       21 0.24753563E-01 0.45299350E+03</pdfrwt>
<totfact> 0.68286925E+04</totfact>
</mgrwt>
</event>
<event>
 7    0  0.4712189E-002  0.4512477E+03  0.7546771E-02  0.1027351E+00
         21   -1    0    0  502  501  0.00000000000E+00  0.00000000000E+00  0.19922091260E+03  0.19922091260E+03  0.00000000000E+00 0. -1.
         21   -1    0    0  501  502 -0.00000000000E+00 -0.00000000000E+00 -0.25552598300E+03  0.25552598300E+03  0.00000000000E+00 0. -1.
      99926    2    1    2    0    0  0.00000000000E+00  0.14210854715E-13 -0.56305070405E+02  0.45474689560E+03  0.45124769041E+03 0.  0.
      99925    2    3    3    0    0  0.29322251819E+02 -0.65090320127E+02 -0.11938212721E+03  0.29751214301E+03  0.26299208869E+03 0.  0.
         25    1    4    4    0    0 -0.11656052368E+02 -0.71522744357E+00 -0.62591931685E+02  0.14036250610E+03  0.12509000000E+03 0.  0.
         25    1    4    4    0    0  0.40978304187E+02 -0.64375092683E+02 -0.56790195526E+02  0.15714963691E+03  0.12509000000E+03 0.  0.
         25    1    3    3    0    0 -0.29322251819E+02  0.65090320127E+02  0.63077056806E+02  0.15723475259E+03  0.12509000000E+03 0.  0.
<mgrwt>
<rscale>  2 0.45124769E+03</rscale>
<asrwt>0</asrwt>
<pdfrwt beam="1">  1       21 0.29297193E-01 0.45124769E+03</pdfrwt>
<pdfrwt beam="2">  1       21 0.37577350E-01 0.45124769E+03</pdfrwt>
<totfact> 0.70655844E+04</totfact>
</mgrwt>
</event>
<event>
 7    0  0.4712189E-002  0.4540079E+03  0.7546771E-02  0.1026534E+00
         21   -1    0    0  502  501  0.00000000000E+00  0.00000000000E+00  0.91002271654E+03  0.91002271654E+03  0.00000000000E+00 0.  1.
         21   -1    0    0  501  502 -0.00000000000E+00 -0.00000000000E+00 -0.56625819431E+02  0.56625819431E+02  0.00000000000E+00 0.  1.
      99926    2    1    2    0    0 -0.14210854715E-13  0.00000000000E+00  0.85339689710E+03  0.96664853597E+03  0.45400785026E+03 0.  0.
      99925    2    3    3    0    0 -0.83820362812E+02  0.34911408842E+02  0.67807246649E+03  0.73291615961E+03  0.26294327812E+03 0.  0.
         25    1    4    4    0    0 -0.61587806820E+02  0.25738347617E+01  0.43411064539E+03  0.45595969462E+03  0.12509000000E+03 0.  0.
         25    1    4    4    0    0 -0.22232555993E+02  0.32337574081E+02  0.24396182110E+03  0.27695646499E+03  0.12509000000E+03 0.  0.
         25    1    3    3    0    0  0.83820362812E+02 -0.34911408842E+02  0.17532443061E+03  0.23373237636E+03  0.12509000000E+03 0.  0.
<mgrwt>
<rscale>  2 0.45400785E+03</rscale>
<asrwt>0</asrwt>
<pdfrwt beam="1">  1       21 0.13382686E+00 0.45400785E+03</pdfrwt>
<pdfrwt beam="2">  1       21 0.83273270E-02 0.45400785E+03</pdfrwt>
<totfact> 0.40789421E+04</totfact>
</mgrwt>
</event>
<event>
 7    0  0.4712189E-002  0.4566767E+03  0.7546771E-02  0.1025749E+00
         21   -1    0    0  502  501  0.00000000000E+00  0.00000000000E+00  0.54457459297E+03  0.54457459297E+03  0.00000000000E+00 0.  1.
         21   -1    0    0  501  502 -0.00000000000E+00 -0.00000000000E+00 -0.95741538752E+02  0.95741538752E+02  0.00000000000E+00 0.  1.
      99926    2    1    2    0    0  0.00000000000E+00  0.00000000000E+00  0.44883305422E+03  0.64031613172E+03  0.45667673248E+03 0.  0.
      99925    2    3    3    0    0  0.81239970533E+02  0.64198134149E+02  0.21229825267E+03  0.35340577345E+03  0.26287593914E+03 0.  0.
         25    1    3    3    0    0 -0.81239970533E+02 -0.64198134149E+02  0.23653480155E+03  0.28691035827E+03  0.12509000000E+03 0.  0.
         25    1    4    4    0    0  0.52571056128E+01  0.21388275603E+02  0.12237517549E+03  0.17637541543E+03  0.12509000000E+03 0.  0.
         25    1    4    4    0    0  0.75982864921E+02  0.42809858546E+02  0.89923077178E+02  0.17703035802E+03  0.12509000000E+03 0.  0.
<mgrwt>
<rscale>  2 0.45667673E+03</rscale>
<asrwt>0</asrwt>
<pdfrwt beam="1">  1       21 0.80084498E-01 0.45667673E+03</pdfrwt>
<pdfrwt beam="2">  1       21 0.14079638E-01 0.45667673E+03</pdfrwt>
<totfact> 0.55524494E+04</totfact>
</mgrwt>
</event>
<event>
 7    0  0.4712189E-002  0.4530278E+03  0.7546771E-02  0.1026823E+00
         21   -1    0    0  502  501  0.00000000000E+00  0.00000000000E+00  0.26313174478E+03  0.26313174478E+03  0.00000000000E+00 0. -1.
         21   -1    0    0  501  502 -0.00000000000E+00 -0.00000000000E+00 -0.19499187496E+03  0.19499187496E+03  0.00000000000E+00 0. -1.
      99926    2    1    2    0    0  0.00000000000E+00  0.17763568394E-14  0.68139869825E+02  0.45812361974E+03  0.45302782376E+03 0.  0.
      99925    2    3    3    0    0  0.10472703158E+03 -0.12936577083E+02  0.78168746046E+02  0.29416267125E+03  0.26322275382E+03 0.  0.
         25    1    4    4    0    0  0.15827551430E+02 -0.24701656023E+02  0.22189345216E+02  0.13038618921E+03  0.12509000000E+03 0.  0.
         25    1    4    4    0    0  0.88899480150E+02  0.11765078940E+02  0.55979400830E+02  0.16377648204E+03  0.12509000000E+03 0.  0.
         25    1    3    3    0    0 -0.10472703158E+03  0.12936577083E+02 -0.10028876221E+02  0.16396094849E+03  0.12509000000E+03 0.  0.
<mgrwt>
<rscale>  2 0.45302782E+03</rscale>
<asrwt>0</asrwt>
<pdfrwt beam="1">  1       21 0.38695845E-01 0.45302782E+03</pdfrwt>
<pdfrwt beam="2">  1       21 0.28675276E-01 0.45302782E+03</pdfrwt>
<totfact> 0.69402647E+04</totfact>
</mgrwt>
</event>
<event>
 7    0  0.4712189E-002  0.4353501E+03  0.7546771E-02  0.1032183E+00
         21   -1    0    0  502  501  0.00000000000E+00  0.00000000000E+00  0.15342856219E+03  0.15342856219E+03  0.00000000000E+00 0. -1.
         21   -1    0    0  501  502 -0.00000000000E+00 -0.00000000000E+00 -0.30882409673E+03  0.30882409673E+03  0.00000000000E+00 0. -1.
      99926    2    1    2    0    0 -0.35527136788E-14  0.71054273576E-14 -0.15539553454E+03  0.46225265893E+03  0.43535014474E+03 0.  0.
      99925    2    3    3    0    0 -0.28217041044E+02  0.35312545772E+02 -0.18671864312E+03  0.32560778151E+03  0.26289427227E+03 0.  0.
         25    1    3    3    0    0  0.28217041044E+02 -0.35312545772E+02  0.31323108580E+02  0.13664487742E+03  0.12509000000E+03 0.  0.
         25    1    4    4    0    0  0.12967265716E+02 -0.83067069698E+01 -0.10875813380E+03  0.16647219326E+03  0.12509000000E+03 0.  0.
         25    1    4    4    0    0 -0.41184306760E+02  0.43619252742E+02 -0.77960509325E+02  0.15913558825E+03  0.12509000000E+03 0.  0.
<mgrwt>
<rscale>  2 0.43535014E+03</rscale>
<asrwt>0</asrwt>
<pdfrwt beam="1">  1       21 0.22563024E-01 0.43535014E+03</pdfrwt>
<pdfrwt beam="2">  1       21 0.45415308E-01 0.43535014E+03</pdfrwt>
<totfact> 0.79743692E+04</totfact>
</mgrwt>
</event>
<event>
 7    0  0.4712189E-002  0.4566628E+03  0.7546771E-02  0.1025754E+00
         21   -1    0    0  502  501  0.00000000000E+00  0.00000000000E+00  0.91917960267E+03  0.91917960267E+03  0.00000000000E+00 0. -1.
         21   -1    0    0  501  502 -0.00000000000E+00 -0.00000000000E+00 -0.56719300622E+02  0.56719300622E+02  0.00000000000E+00 0. -1.
      99926    2    1    2    0    0  0.00000000000E+00  0.14210854715E-13  0.86246030205E+03  0.97589890329E+03  0.45666278241E+03 0.  0.
      99925    2    3    3    0    0 -0.74511543926E+02 -0.86895613119E+02  0.52507141739E+03  0.59829913456E+03  0.26298107022E+03 0.  0.
         25    1    4    4    0    0 -0.39422566632E+02 -0.83517560199E+02  0.25678582563E+03  0.30019292125E+03  0.12509000000E+03 0.  0.
         25    1    4    4    0    0 -0.35088977293E+02 -0.33780529200E+01  0.26828559176E+03  0.29810621331E+03  0.12509000000E+03 0.  0.
         25    1    3    3    0    0  0.74511543926E+02  0.86895613119E+02  0.33738888466E+03  0.37759976873E+03  0.12509000000E+03 0.  0.
<mgrwt>
<rscale>  2 0.45666278E+03</rscale>
<asrwt>0</asrwt>
<pdfrwt beam="1">  1       21 0.13517346E+00 0.45666278E+03</pdfrwt>
<pdfrwt beam="2">  1       21 0.83410742E-02 0.45666278E+03</pdfrwt>
<totfact> 0.39592295E+04</totfact>
</mgrwt>
</event>
<event>
 7    0  0.4712189E-002  0.4513400E+03  0.7546771E-02  0.1027323E+00
         21   -1    0    0  502  501  0.00000000000E+00  0.00000000000E+00  0.44104173936E+03  0.44104173936E+03  0.00000000000E+00 0. -1.
         21   -1    0    0  501  502 -0.00000000000E+00 -0.00000000000E+00 -0.11546965605E+03  0.11546965605E+03  0.00000000000E+00 0. -1.
      99926    2    1    2    0    0  0.00000000000E+00  0.00000000000E+00  0.32557208330E+03  0.55651139541E+03  0.45133995147E+03 0.  0.
      99925    2    3    3    0    0  0.49495555466E+02 -0.79625711322E+02  0.13543873157E+03  0.31036456229E+03  0.26304457341E+03 0.  0.
         25    1    4    4    0    0  0.18739541937E+02 -0.31759284177E+02  0.22178763309E+02  0.13228464841E+03  0.12509000000E+03 0.  0.
         25    1    4    4    0    0  0.30756013529E+02 -0.47866427145E+02  0.11325996826E+03  0.17807991388E+03  0.12509000000E+03 0.  0.
         25    1    3    3    0    0 -0.49495555466E+02  0.79625711322E+02  0.19013335173E+03  0.24614683312E+03  0.12509000000E+03 0.  0.
<mgrwt>
<rscale>  2 0.45133995E+03</rscale>
<asrwt>0</asrwt>
<pdfrwt beam="1">  1       21 0.64859079E-01 0.45133995E+03</pdfrwt>
<pdfrwt beam="2">  1       21 0.16980832E-01 0.45133995E+03</pdfrwt>
<totfact> 0.63249744E+04</totfact>
</mgrwt>
</event>
<event>
 6    0  0.4712189E-002  0.4555091E+03  0.7546771E-02  0.1026092E+00
         21   -1    0    0  502  501  0.00000000000E+00  0.00000000000E+00  0.36903608177E+02  0.36903608177E+02  0.00000000000E+00 0. -1.
         21   -1    0    0  501  502 -0.00000000000E+00 -0.00000000000E+00 -0.14056112338E+04  0.14056112338E+04  0.00000000000E+00 0. -1.
      99926    2    1    2    0    0  0.00000000000E+00 -0.71054273576E-14 -0.13687076256E+04  0.14425148419E+04  0.45550906125E+03 0.  0.
         25    1    3    3    0    0  0.17324204750E+02 -0.40466943388E+01 -0.56755506955E+03  0.58144885319E+03  0.12509000000E+03 0.  0.
         25    1    3    3    0    0  0.31920344819E+02 -0.60308791405E+02 -0.22810008618E+03  0.26894835219E+03  0.12509000000E+03 0.  0.
         25    1    3    3    0    0 -0.49244549569E+02  0.64355485743E+02 -0.57305246985E+03  0.59211763654E+03  0.12509000000E+03 0.  0.
<mgrwt>
<rscale>  2 0.45550906E+03</rscale>
<asrwt>0</asrwt>
<pdfrwt beam="1">  1       21 0.54270010E-02 0.45550906E+03</pdfrwt>
<pdfrwt beam="2">  1       21 0.20670754E+00 0.45550906E+03</pdfrwt>
<totfact> 0.25121252E+04</totfact>
</mgrwt>
</event>
<event>
 7    0  0.4712189E-002  0.4549128E+03  0.7546771E-02  0.1026267E+00
         21   -1    0    0  502  501  0.00000000000E+00  0.00000000000E+00  0.48771575438E+03  0.48771575438E+03  0.00000000000E+00 0. -1.
         21   -1    0    0  501  502 -0.00000000000E+00 -0.00000000000E+00 -0.10607904469E+03  0.10607904469E+03  0.00000000000E+00 0. -1.
      99926    2    1    2    0    0  0.00000000000E+00 -0.14210854715E-13  0.38163670969E+03  0.59379479907E+03  0.45491283254E+03 0.  0.
      99925    2    3    3    0    0 -0.52005646486E+02  0.79428856703E+02  0.15999320370E+03  0.32215738928E+03  0.26300955819E+03 0.  0.
         25    1    4    4    0    0 -0.12532964648E+02  0.37062418528E+00  0.83906710451E+02  0.15114581279E+03  0.12509000000E+03 0.  0.
         25    1    4    4    0    0 -0.39472681838E+02  0.79058232517E+02  0.76086493250E+02  0.17101157649E+03  0.12509000000E+03 0.  0.
         25    1    3    3    0    0  0.52005646486E+02 -0.79428856703E+02  0.22164350599E+03  0.27163740978E+03  0.12509000000E+03 0.  0.
<mgrwt>
<rscale>  2 0.45491283E+03</rscale>
<asrwt>0</asrwt>
<pdfrwt beam="1">  1       21 0.71722904E-01 0.45491283E+03</pdfrwt>
<pdfrwt beam="2">  1       21 0.15599860E-01 0.45491283E+03</pdfrwt>
<totfact> 0.59102550E+04</totfact>
</mgrwt>
</event>
<event>
 7    0  0.4712189E-002  0.3975623E+03  0.7546771E-02  0.1044627E+00
         21   -1    0    0  502  501  0.00000000000E+00  0.00000000000E+00  0.31160565759E+03  0.31160565759E+03  0.00000000000E+00 0. -1.
         21   -1    0    0  501  502 -0.00000000000E+00 -0.00000000000E+00 -0.12680750471E+03  0.12680750471E+03  0.00000000000E+00 0. -1.
      99926    2    1    2    0    0  0.00000000000E+00 -0.35527136788E-14  0.18479815287E+03  0.43841316230E+03  0.39756225120E+03 0.  0.
      99925    2    3    3    0    0  0.59226426849E+01  0.17776006531E+02  0.16370166456E+03  0.31018042848E+03  0.26279763912E+03 0.  0.
         25    1    3    3    0    0 -0.59226426849E+01 -0.17776006531E+02  0.21096488316E+02  0.12823273382E+03  0.12509000000E+03 0.  0.
         25    1    4    4    0    0 -0.30810806339E+01 -0.19593075830E+01  0.36253975252E+02  0.13028887430E+03  0.12509000000E+03 0.  0.
         25    1    4    4    0    0  0.90037233189E+01  0.19735314114E+02  0.12744768931E+03  0.17989155418E+03  0.12509000000E+03 0.  0.
<mgrwt>
<rscale>  2 0.39756225E+03</rscale>
<asrwt>0</asrwt>
<pdfrwt beam="1">  1       21 0.45824361E-01 0.39756225E+03</pdfrwt>
<pdfrwt beam="2">  1       21 0.18648162E-01 0.39756225E+03</pdfrwt>
<totfact> 0.11337509E+05</totfact>
</mgrwt>
</event>
<event>
 7    0  0.4712189E-002  0.4517871E+03  0.7546771E-02  0.1027190E+00
         21   -1    0    0  502  501  0.00000000000E+00  0.00000000000E+00  0.53041345841E+03  0.53041345841E+03  0.00000000000E+00 0. -1.
         21   -1    0    0  501  502 -0.00000000000E+00 -0.00000000000E+00 -0.96204004387E+02  0.96204004387E+02  0.00000000000E+00 0. -1.
      99926    2    1    2    0    0 -0.14210854715E-13  0.71054273576E-14  0.43420945402E+03  0.62661746280E+03  0.45178711217E+03 0.  0.
      99925    2    3    3    0    0  0.10314280290E+03  0.35534375812E+02  0.29479776807E+03  0.40985894293E+03  0.26301615804E+03 0.  0.
         25    1    3    3    0    0 -0.10314280290E+03 -0.35534375812E+02  0.13941168595E+03  0.21675851986E+03  0.12509000000E+03 0.  0.
         25    1    4    4    0    0  0.37768936344E+02 -0.21620575609E+02  0.13973706673E+03  0.19253025155E+03  0.12509000000E+03 0.  0.
         25    1    4    4    0    0  0.65373866552E+02  0.57154951421E+02  0.15506070133E+03  0.21732869138E+03  0.12509000000E+03 0.  0.
<mgrwt>
<rscale>  2 0.45178711E+03</rscale>
<asrwt>0</asrwt>
<pdfrwt beam="1">  1       21 0.78001978E-01 0.45178711E+03</pdfrwt>
<pdfrwt beam="2">  1       21 0.14147648E-01 0.45178711E+03</pdfrwt>
<totfact> 0.58539875E+04</totfact>
</mgrwt>
</event>
<event>
 7    0  0.4712189E-002  0.4534940E+03  0.7546771E-02  0.1026685E+00
         21   -1    0    0  502  501  0.00000000000E+00  0.00000000000E+00  0.15436028743E+03  0.15436028743E+03  0.00000000000E+00 0. -1.
         21   -1    0    0  501  502 -0.00000000000E+00 -0.00000000000E+00 -0.33307916670E+03  0.33307916670E+03  0.00000000000E+00 0. -1.
      99926    2    1    2    0    0 -0.14210854715E-13 -0.25535129566E-14 -0.17871887927E+03  0.48743945413E+03  0.45349397309E+03 0.  0.
      99925    2    3    3    0    0 -0.11131556795E+03 -0.85832573428E+00 -0.97392726796E+02  0.30128536857E+03  0.26247978530E+03 0.  0.
         25    1    3    3    0    0  0.11131556795E+03  0.85832573428E+00 -0.81326152478E+02  0.18615408555E+03  0.12509000000E+03 0.  0.
         25    1    4    4    0    0 -0.33672499215E+02  0.33722609100E+02 -0.44175591641E+02  0.14096113849E+03  0.12509000000E+03 0.  0.
         25    1    4    4    0    0 -0.77643068738E+02 -0.34580934834E+02 -0.53217135156E+02  0.16032423008E+03  0.12509000000E+03 0.  0.
<mgrwt>
<rscale>  2 0.45349397E+03</rscale>
<asrwt>0</asrwt>
<pdfrwt beam="1">  1       21 0.22700043E-01 0.45349397E+03</pdfrwt>
<pdfrwt beam="2">  1       21 0.48982230E-01 0.45349397E+03</pdfrwt>
<totfact> 0.66959400E+04</totfact>
</mgrwt>
</event>
<event>
 7    0  0.4712189E-002  0.4559916E+03  0.7546771E-02  0.1025950E+00
         21   -1    0    0  502  501  0.00000000000E+00  0.00000000000E+00  0.13261039824E+03  0.13261039824E+03  0.00000000000E+00 0.  1.
         21   -1    0    0  501  502 -0.00000000000E+00 -0.00000000000E+00 -0.39199099828E+03  0.39199099828E+03  0.00000000000E+00 0.  1.
      99926    2    1    2    0    0  0.00000000000E+00  0.00000000000E+00 -0.25938060005E+03  0.52460139652E+03  0.45599158934E+03 0.  0.
      99925    2    3    3    0    0  0.10715595584E+02  0.80255916251E+02 -0.25554044539E+03  0.37554405531E+03  0.26301441436E+03 0.  0.
         25    1    3    3    0    0 -0.10715595584E+02 -0.80255916251E+02 -0.38401546548E+01  0.14905734121E+03  0.12509000000E+03 0.  0.
         25    1    4    4    0    0  0.29146317350E+02  0.60820457915E+01 -0.12163908359E+03  0.17700303346E+03  0.12509000000E+03 0.  0.
         25    1    4    4    0    0 -0.18430721766E+02  0.74173870460E+02 -0.13390136180E+03  0.19854102185E+03  0.12509000000E+03 0.  0.
<mgrwt>
<rscale>  2 0.45599159E+03</rscale>
<asrwt>0</asrwt>
<pdfrwt beam="1">  1       21 0.19501529E-01 0.45599159E+03</pdfrwt>
<pdfrwt beam="2">  1       21 0.57645736E-01 0.45599159E+03</pdfrwt>
<totfact> 0.63076144E+04</totfact>
</mgrwt>
</event>
<event>
 7    0  0.4712189E-002  0.4742823E+03  0.7546771E-02  0.1020718E+00
         21   -1    0    0  502  501  0.00000000000E+00  0.00000000000E+00  0.34306911887E+03  0.34306911887E+03  0.00000000000E+00 0. -1.
         21   -1    0    0  501  502 -0.00000000000E+00 -0.00000000000E+00 -0.16392007708E+03  0.16392007708E+03  0.00000000000E+00 0. -1.
      99926    2    1    2    0    0  0.00000000000E+00  0.71054273576E-14  0.17914904179E+03  0.50698919595E+03  0.47428226367E+03 0.  0.
      99925    2    3    3    0    0 -0.99950260262E+02 -0.40224206413E+02  0.18940408370E+03  0.34157844874E+03  0.26304731212E+03 0.  0.
         25    1    4    4    0    0 -0.43291165612E+02 -0.29783751165E+02  0.47295879798E+02  0.14368578635E+03  0.12509000000E+03 0.  0.
         25    1    4    4    0    0 -0.56659094650E+02 -0.10440455248E+02  0.14210820390E+03  0.19789266239E+03  0.12509000000E+03 0.  0.
         25    1    3    3    0    0  0.99950260262E+02  0.40224206413E+02 -0.10255041907E+02  0.16541074721E+03  0.12509000000E+03 0.  0.
<mgrwt>
<rscale>  2 0.47428226E+03</rscale>
<asrwt>0</asrwt>
<pdfrwt beam="1">  1       21 0.50451341E-01 0.47428226E+03</pdfrwt>
<pdfrwt beam="2">  1       21 0.24105894E-01 0.47428226E+03</pdfrwt>
<totfact> 0.55747900E+04</totfact>
</mgrwt>
</event>
<event>
 7    0  0.4712189E-002  0.4571680E+03  0.7546771E-02  0.1025606E+00
         21   -1    0    0  502  501  0.00000000000E+00  0.00000000000E+00  0.25352891001E+03  0.25352891001E+03  0.00000000000E+00 0. -1.
         21   -1    0    0  501  502 -0.00000000000E+00 -0.00000000000E+00 -0.20609342084E+03  0.20609342084E+03  0.00000000000E+00 0. -1.
      99926    2    1    2    0    0 -0.35527136788E-14  0.00000000000E+00  0.47435489172E+02  0.45962233085E+03  0.45716797940E+03 0.  0.
      99925    2    3    3    0    0 -0.13327368060E+02  0.10562179470E+03  0.74169597019E+02  0.29320177060E+03  0.26293072644E+03 0.  0.
         25    1    4    4    0    0 -0.41683244129E+02  0.74789229841E+02  0.44592731225E+02  0.15800930833E+03  0.12509000000E+03 0.  0.
         25    1    4    4    0    0  0.28355876068E+02  0.30832564855E+02  0.29576865794E+02  0.13519246227E+03  0.12509000000E+03 0.  0.
         25    1    3    3    0    0  0.13327368060E+02 -0.10562179470E+03 -0.26734107847E+02  0.16642056026E+03  0.12509000000E+03 0.  0.
<mgrwt>
<rscale>  2 0.45716798E+03</rscale>
<asrwt>0</asrwt>
<pdfrwt beam="1">  1       21 0.37283663E-01 0.45716798E+03</pdfrwt>
<pdfrwt beam="2">  1       21 0.30307856E-01 0.45716798E+03</pdfrwt>
<totfact> 0.67041299E+04</totfact>
</mgrwt>
</event>
<event>
 7    0  0.4712189E-002  0.4568435E+03  0.7546771E-02  0.1025701E+00
         21   -1    0    0  502  501  0.00000000000E+00  0.00000000000E+00  0.16370944222E+03  0.16370944222E+03  0.00000000000E+00 0. -1.
         21   -1    0    0  501  502 -0.00000000000E+00 -0.00000000000E+00 -0.31871408890E+03  0.31871408890E+03  0.00000000000E+00 0. -1.
      99926    2    1    2    0    0  0.71054273576E-14  0.00000000000E+00 -0.15500464668E+03  0.48242353112E+03  0.45684354311E+03 0.  0.
      99925    2    3    3    0    0 -0.62540259114E+02 -0.69425770491E+02 -0.26736814074E+02  0.28035580336E+03  0.26297014590E+03 0.  0.
         25    1    4    4    0    0 -0.46723471381E+02 -0.20970218585E+02 -0.48362455018E+02  0.14355928392E+03  0.12509000000E+03 0.  0.
         25    1    4    4    0    0 -0.15816787734E+02 -0.48455551906E+02  0.21625640944E+02  0.13679651944E+03  0.12509000000E+03 0.  0.
         25    1    3    3    0    0  0.62540259114E+02  0.69425770491E+02 -0.12826783260E+03  0.20206772775E+03  0.12509000000E+03 0.  0.
<mgrwt>
<rscale>  2 0.45684354E+03</rscale>
<asrwt>0</asrwt>
<pdfrwt beam="1">  1       21 0.24074918E-01 0.45684354E+03</pdfrwt>
<pdfrwt beam="2">  1       21 0.46869719E-01 0.45684354E+03</pdfrwt>
<totfact> 0.65559468E+04</totfact>
</mgrwt>
</event>
<event>
 7    0  0.4712189E-002  0.4542980E+03  0.7546771E-02  0.1026448E+00
         21   -1    0    0  502  501  0.00000000000E+00  0.00000000000E+00  0.48281709950E+03  0.48281709950E+03  0.00000000000E+00 0. -1.
         21   -1    0    0  501  502 -0.00000000000E+00 -0.00000000000E+00 -0.10686588266E+03  0.10686588266E+03  0.00000000000E+00 0. -1.
      99926    2    1    2    0    0  0.00000000000E+00  0.35527136788E-14  0.37595121684E+03  0.58968298216E+03  0.45429803214E+03 0.  0.
      99925    2    3    3    0    0  0.25290875825E+02  0.13643730294E+02  0.96087870168E+02  0.28179212376E+03  0.26334035476E+03 0.  0.
         25    1    3    3    0    0 -0.25290875825E+02 -0.13643730294E+02  0.27986334667E+03  0.30789085840E+03  0.12509000000E+03 0.  0.
         25    1    4    4    0    0  0.17696281613E+02 -0.27528401874E+02  0.71021522386E+02  0.14752130705E+03  0.12509000000E+03 0.  0.
         25    1    4    4    0    0  0.75945942122E+01  0.41172132168E+02  0.25066347782E+02  0.13427081671E+03  0.12509000000E+03 0.  0.
<mgrwt>
<rscale>  2 0.45429803E+03</rscale>
<asrwt>0</asrwt>
<pdfrwt beam="1">  1       21 0.71002514E-01 0.45429803E+03</pdfrwt>
<pdfrwt beam="2">  1       21 0.15715571E-01 0.45429803E+03</pdfrwt>
<totfact> 0.59648084E+04</totfact>
</mgrwt>
</event>
<event>
 7    0  0.4712189E-002  0.4576371E+03  0.7546771E-02  0.1025469E+00
         21   -1    0    0  502  501  0.00000000000E+00  0.00000000000E+00  0.32277882813E+02  0.32277882813E+02  0.00000000000E+00 0.  1.
         21   -1    0    0  501  502 -0.00000000000E+00 -0.00000000000E+00 -0.16220993322E+04  0.16220993322E+04  0.00000000000E+00 0.  1.
      99926    2    1    2    0    0  0.00000000000E+00  0.00000000000E+00 -0.15898214494E+04  0.16543772150E+04  0.45763711456E+03 0.  0.
      99925    2    3    3    0    0  0.16354033482E+02 -0.98696011786E+02 -0.12094500409E+04  0.12416566393E+04  0.26255180676E+03 0.  0.
         25    1    4    4    0    0  0.17173883149E+02 -0.85180231019E+02 -0.57356968369E+03  0.59344781082E+03  0.12509000000E+03 0.  0.
         25    1    4    4    0    0 -0.81984966669E+00 -0.13515780766E+02 -0.63588035720E+03  0.64820882843E+03  0.12509000000E+03 0.  0.
         25    1    3    3    0    0 -0.16354033482E+02  0.98696011786E+02 -0.38037140847E+03  0.41272057573E+03  0.12509000000E+03 0.  0.
<mgrwt>
<rscale>  2 0.45763711E+03</rscale>
<asrwt>0</asrwt>
<pdfrwt beam="1">  1       21 0.47467456E-02 0.45763711E+03</pdfrwt>
<pdfrwt beam="2">  1       21 0.23854411E+00 0.45763711E+03</pdfrwt>
<totfact> 0.19819480E+04</totfact>
</mgrwt>
</event>
<event>
 7    0  0.4712189E-002  0.4558868E+03  0.7546771E-02  0.1025981E+00
         21   -1    0    0  502  501  0.00000000000E+00  0.00000000000E+00  0.48198283558E+03  0.48198283558E+03  0.00000000000E+00 0.  1.
         21   -1    0    0  501  502 -0.00000000000E+00 -0.00000000000E+00 -0.10780089954E+03  0.10780089954E+03  0.00000000000E+00 0.  1.
      99926    2    1    2    0    0  0.71054273576E-14 -0.14210854715E-13  0.37418193604E+03  0.58978373511E+03  0.45588675452E+03 0.  0.
      99925    2    3    3    0    0 -0.47367024940E+02  0.70522628939E+02  0.33386350671E+03  0.43329041229E+03  0.26279015208E+03 0.  0.
         25    1    4    4    0    0 -0.20808887615E+02  0.16300312464E+01  0.11881859387E+03  0.17378444452E+03  0.12509000000E+03 0.  0.
         25    1    3    3    0    0  0.47367024940E+02 -0.70522628939E+02  0.40318429328E+02  0.15649332282E+03  0.12509000000E+03 0.  0.
         25    1    4    4    0    0 -0.26558137324E+02  0.68892597693E+02  0.21504491284E+03  0.25950596778E+03  0.12509000000E+03 0.  0.
<mgrwt>
<rscale>  2 0.45588675E+03</rscale>
<asrwt>0</asrwt>
<pdfrwt beam="1">  1       21 0.70879828E-01 0.45588675E+03</pdfrwt>
<pdfrwt beam="2">  1       21 0.15853074E-01 0.45588675E+03</pdfrwt>
<totfact> 0.58897677E+04</totfact>
</mgrwt>
</event>
<event>
 7    0  0.4712189E-002  0.4551928E+03  0.7546771E-02  0.1026185E+00
         21   -1    0    0  502  501  0.00000000000E+00  0.00000000000E+00  0.15155120119E+03  0.15155120119E+03  0.00000000000E+00 0. -1.
         21   -1    0    0  501  502 -0.00000000000E+00 -0.00000000000E+00 -0.34179948653E+03  0.34179948653E+03  0.00000000000E+00 0. -1.
      99926    2    1    2    0    0 -0.14210854715E-13  0.00000000000E+00 -0.19024828534E+03  0.49335068771E+03  0.45519280639E+03 0.  0.
      99925    2    3    3    0    0  0.92433056958E+02 -0.32196647906E+02 -0.59215832095E+02  0.28744414081E+03  0.26369892901E+03 0.  0.
         25    1    4    4    0    0  0.13104422857E+02 -0.37361251008E+02 -0.11364033387E+02  0.13169752591E+03  0.12509000000E+03 0.  0.
         25    1    3    3    0    0 -0.92433056958E+02  0.32196647906E+02 -0.13103245325E+03  0.20590654691E+03  0.12509000000E+03 0.  0.
         25    1    4    4    0    0  0.79328634100E+02  0.51646031025E+01 -0.47851798708E+02  0.15574661490E+03  0.12509000000E+03 0.  0.
<mgrwt>
<rscale>  2 0.45519281E+03</rscale>
<asrwt>0</asrwt>
<pdfrwt beam="1">  1       21 0.22286941E-01 0.45519281E+03</pdfrwt>
<pdfrwt beam="2">  1       21 0.50264630E-01 0.45519281E+03</pdfrwt>
<totfact> 0.65639833E+04</totfact>
</mgrwt>
</event>
<event>
 7    0  0.4712189E-002  0.4572056E+03  0.7546771E-02  0.1025595E+00
         21   -1    0    0  502  501  0.00000000000E+00  0.00000000000E+00  0.11704531507E+03  0.11704531507E+03  0.00000000000E+00 0.  1.
         21   -1    0    0  501  502 -0.00000000000E+00 -0.00000000000E+00 -0.44648718898E+03  0.44648718898E+03  0.00000000000E+00 0.  1.
      99926    2    1    2    0    0 -0.14210854715E-13  0.00000000000E+00 -0.32944187391E+03  0.56353250405E+03  0.45720557174E+03 0.  0.
      99925    2    3    3    0    0 -0.83861445104E+02 -0.71244392572E+02 -0.16506053242E+03  0.32948712601E+03  0.26307466887E+03 0.  0.
         25    1    3    3    0    0  0.83861445104E+02  0.71244392572E+02 -0.16438134149E+03  0.23404537803E+03  0.12509000000E+03 0.  0.
         25    1    4    4    0    0 -0.17127629570E+01 -0.26491816097E+02 -0.88644887036E+02  0.15559618882E+03  0.12509000000E+03 0.  0.
         25    1    4    4    0    0 -0.82148682147E+02 -0.44752576475E+02 -0.76415645380E+02  0.17389093719E+03  0.12509000000E+03 0.  0.
<mgrwt>
<rscale>  2 0.45720557E+03</rscale>
<asrwt>0</asrwt>
<pdfrwt beam="1">  1       21 0.17212546E-01 0.45720557E+03</pdfrwt>
<pdfrwt beam="2">  1       21 0.65659881E-01 0.45720557E+03</pdfrwt>
<totfact> 0.59928754E+04</totfact>
</mgrwt>
</event>
<event>
 7    0  0.4712189E-002  0.4575300E+03  0.7546771E-02  0.1025500E+00
         21   -1    0    0  502  501  0.00000000000E+00  0.00000000000E+00  0.59302639337E+02  0.59302639337E+02  0.00000000000E+00 0. -1.
         21   -1    0    0  501  502 -0.00000000000E+00 -0.00000000000E+00 -0.88248056418E+03  0.88248056418E+03  0.00000000000E+00 0. -1.
      99926    2    1    2    0    0  0.00000000000E+00  0.00000000000E+00 -0.82317792484E+03  0.94178320352E+03  0.45753000609E+03 0.  0.
      99925    2    3    3    0    0 -0.29314592982E+02  0.80159046644E+02 -0.67708627132E+03  0.73136671783E+03  0.26299551140E+03 0.  0.
         25    1    3    3    0    0  0.29314592982E+02 -0.80159046644E+02 -0.14609165353E+03  0.21041648569E+03  0.12509000000E+03 0.  0.
         25    1    4    4    0    0  0.17690690067E+02  0.13237964656E+02 -0.30652359366E+03  0.33180178691E+03  0.12509000000E+03 0.  0.
         25    1    4    4    0    0 -0.47005283048E+02  0.66921081988E+02 -0.37056267765E+03  0.39956493092E+03  0.12509000000E+03 0.  0.
<mgrwt>
<rscale>  2 0.45753001E+03</rscale>
<asrwt>0</asrwt>
<pdfrwt beam="1">  1       21 0.87209767E-02 0.45753001E+03</pdfrwt>
<pdfrwt beam="2">  1       21 0.12977655E+00 0.45753001E+03</pdfrwt>
<totfact> 0.40664749E+04</totfact>
</mgrwt>
</event>
<event>
 7    0  0.4712189E-002  0.4505900E+03  0.7546771E-02  0.1027546E+00
         21   -1    0    0  502  501  0.00000000000E+00  0.00000000000E+00  0.78321104678E+03  0.78321104678E+03  0.00000000000E+00 0.  1.
         21   -1    0    0  501  502 -0.00000000000E+00 -0.00000000000E+00 -0.64807353784E+02  0.64807353784E+02  0.00000000000E+00 0.  1.
      99926    2    1    2    0    0  0.88817841970E-15 -0.14210854715E-13  0.71840369300E+03  0.84801840057E+03  0.45058999277E+03 0.  0.
      99925    2    3    3    0    0 -0.36395247430E+01 -0.73861103815E+02  0.30329998463E+03  0.40821468798E+03  0.26302023119E+03 0.  0.
         25    1    3    3    0    0  0.36395247430E+01  0.73861103815E+02  0.41510370837E+03  0.43980371258E+03  0.12509000000E+03 0.  0.
         25    1    4    4    0    0  0.20635697341E+02 -0.56532965723E+02  0.19903270119E+03  0.24265888086E+03  0.12509000000E+03 0.  0.
         25    1    4    4    0    0 -0.24275222084E+02 -0.17328138091E+02  0.10426728344E+03  0.16555580712E+03  0.12509000000E+03 0.  0.
<mgrwt>
<rscale>  2 0.45058999E+03</rscale>
<asrwt>0</asrwt>
<pdfrwt beam="1">  1       21 0.11517809E+00 0.45058999E+03</pdfrwt>
<pdfrwt beam="2">  1       21 0.95304937E-02 0.45058999E+03</pdfrwt>
<totfact> 0.47137845E+04</totfact>
</mgrwt>
</event>
<event>
 7    0  0.4712189E-002  0.4545693E+03  0.7546771E-02  0.1026368E+00
         21   -1    0    0  502  501  0.00000000000E+00  0.00000000000E+00  0.53377742672E+02  0.53377742672E+02  0.00000000000E+00 0.  1.
         21   -1    0    0  501  502 -0.00000000000E+00 -0.00000000000E+00 -0.96778752504E+03  0.96778752504E+03  0.00000000000E+00 0.  1.
      99926    2    1    2    0    0  0.00000000000E+00  0.00000000000E+00 -0.91440978237E+03  0.10211652677E+04  0.45456930593E+03 0.  0.
      99925    2    3    3    0    0  0.87651249882E+01  0.57845821069E+02 -0.79236192276E+03  0.83686617774E+03  0.26283952589E+03 0.  0.
         25    1    4    4    0    0  0.43770126417E+02  0.37975392309E+02 -0.40833249455E+03  0.43097666827E+03  0.12509000000E+03 0.  0.
         25    1    4    4    0    0 -0.35005001429E+02  0.19870428760E+02 -0.38402942821E+03  0.40588950947E+03  0.12509000000E+03 0.  0.
         25    1    3    3    0    0 -0.87651249882E+01 -0.57845821069E+02 -0.12204785961E+03  0.18429908998E+03  0.12509000000E+03 0.  0.
<mgrwt>
<rscale>  2 0.45456931E+03</rscale>
<asrwt>0</asrwt>
<pdfrwt beam="1">  1       21 0.78496687E-02 0.45456931E+03</pdfrwt>
<pdfrwt beam="2">  1       21 0.14232168E+00 0.45456931E+03</pdfrwt>
<totfact> 0.38482766E+04</totfact>
</mgrwt>
</event>
<event>
 7    0  0.4712189E-002  0.4562758E+03  0.7546771E-02  0.1025867E+00
         21   -1    0    0  502  501  0.00000000000E+00  0.00000000000E+00  0.13363664082E+03  0.13363664082E+03  0.00000000000E+00 0.  1.
         21   -1    0    0  501  502 -0.00000000000E+00 -0.00000000000E+00 -0.38946585166E+03  0.38946585166E+03  0.00000000000E+00 0.  1.
      99926    2    1    2    0    0  0.00000000000E+00  0.00000000000E+00 -0.25582921085E+03  0.52310249248E+03  0.45627582942E+03 0.  0.
      99925    2    3    3    0    0 -0.91338823990E+02 -0.57252657008E+01 -0.23942410580E+03  0.36724295633E+03  0.26299796027E+03 0.  0.
         25    1    4    4    0    0 -0.50977439946E+02 -0.34768509797E+02 -0.89359923994E+02  0.16565099690E+03  0.12509000000E+03 0.  0.
         25    1    4    4    0    0 -0.40361384045E+02  0.29043244096E+02 -0.15006418180E+03  0.20159195944E+03  0.12509000000E+03 0.  0.
         25    1    3    3    0    0  0.91338823990E+02  0.57252657008E+01 -0.16405105052E+02  0.15585953614E+03  0.12509000000E+03 0.  0.
<mgrwt>
<rscale>  2 0.45627583E+03</rscale>
<asrwt>0</asrwt>
<pdfrwt beam="1">  1       21 0.19652447E-01 0.45627583E+03</pdfrwt>
<pdfrwt beam="2">  1       21 0.57274389E-01 0.45627583E+03</pdfrwt>
<totfact> 0.63035799E+04</totfact>
</mgrwt>
</event>
<event>
 7    0  0.4712189E-002  0.4472712E+03  0.7546771E-02  0.1028539E+00
         21   -1    0    0  502  501  0.00000000000E+00  0.00000000000E+00  0.10633023585E+03  0.10633023585E+03  0.00000000000E+00 0.  1.
         21   -1    0    0  501  502 -0.00000000000E+00 -0.00000000000E+00 -0.47035421064E+03  0.47035421064E+03  0.00000000000E+00 0.  1.
      99926    2    1    2    0    0  0.00000000000E+00  0.14210854715E-13 -0.36402397479E+03  0.57668444649E+03  0.44727116674E+03 0.  0.
      99925    2    3    3    0    0  0.33468378545E+02  0.86824062559E+02 -0.29559221269E+03  0.40642298765E+03  0.26295691375E+03 0.  0.
         25    1    3    3    0    0 -0.33468378545E+02 -0.86824062559E+02 -0.68431762105E+02  0.17026145884E+03  0.12509000000E+03 0.  0.
         25    1    4    4    0    0  0.27829411805E+02  0.44211307708E+02 -0.92704768566E+02  0.16422788468E+03  0.12509000000E+03 0.  0.
         25    1    4    4    0    0  0.56389667400E+01  0.42612754851E+02 -0.20288744412E+03  0.24219510297E+03  0.12509000000E+03 0.  0.
<mgrwt>
<rscale>  2 0.44727117E+03</rscale>
<asrwt>0</asrwt>
<pdfrwt beam="1">  1       21 0.15636799E-01 0.44727117E+03</pdfrwt>
<pdfrwt beam="2">  1       21 0.69169738E-01 0.44727117E+03</pdfrwt>
<totfact> 0.63956282E+04</totfact>
</mgrwt>
</event>
<event>
 7    0  0.4712189E-002  0.4592074E+03  0.7546771E-02  0.1025011E+00
         21   -1    0    0  502  501  0.00000000000E+00  0.00000000000E+00  0.10784837785E+04  0.10784837785E+04  0.00000000000E+00 0. -1.
         21   -1    0    0  501  502 -0.00000000000E+00 -0.00000000000E+00 -0.48881450687E+02  0.48881450687E+02  0.00000000000E+00 0. -1.
      99926    2    1    2    0    0  0.00000000000E+00  0.71054273576E-14  0.10296023278E+04  0.11273652292E+04  0.45920736769E+03 0.  0.
      99925    2    3    3    0    0  0.99277794379E+02 -0.60092216943E+02  0.60808766931E+03  0.67262434645E+03  0.26303182865E+03 0.  0.
         25    1    3    3    0    0 -0.99277794379E+02  0.60092216943E+02  0.42151465848E+03  0.45474088271E+03  0.12509000000E+03 0.  0.
         25    1    4    4    0    0  0.61195107483E+02  0.77730337241E+01  0.27231964149E+03  0.30595874963E+03  0.12509000000E+03 0.  0.
         25    1    4    4    0    0  0.38082686896E+02 -0.67865250667E+02  0.33576802782E+03  0.36666559682E+03  0.12509000000E+03 0.  0.
<mgrwt>
<rscale>  2 0.45920737E+03</rscale>
<asrwt>0</asrwt>
<pdfrwt beam="1">  1       21 0.15860054E+00 0.45920737E+03</pdfrwt>
<pdfrwt beam="2">  1       21 0.71884493E-02 0.45920737E+03</pdfrwt>
<totfact> 0.33436922E+04</totfact>
</mgrwt>
</event>
<event>
 7    0  0.4712189E-002  0.4390713E+03  0.7546771E-02  0.1031032E+00
         21   -1    0    0  502  501  0.00000000000E+00  0.00000000000E+00  0.87289283717E+02  0.87289283717E+02  0.00000000000E+00 0.  1.
         21   -1    0    0  501  502 -0.00000000000E+00 -0.00000000000E+00 -0.55214001828E+03  0.55214001828E+03  0.00000000000E+00 0.  1.
      99926    2    1    2    0    0  0.00000000000E+00 -0.44408920985E-15 -0.46485073456E+03  0.63942930200E+03  0.43907132317E+03 0.  0.
      99925    2    3    3    0    0  0.76539388425E+02 -0.18592049957E+01 -0.38462045848E+03  0.47225831192E+03  0.26312217974E+03 0.  0.
         25    1    4    4    0    0  0.42441566654E+02 -0.61048075145E+01 -0.26331712907E+03  0.29465568689E+03  0.12509000000E+03 0.  0.
         25    1    3    3    0    0 -0.76539388425E+02  0.18592049957E+01 -0.80230276085E+02  0.16717099008E+03  0.12509000000E+03 0.  0.
         25    1    4    4    0    0  0.34097821771E+02  0.42456025187E+01 -0.12130332940E+03  0.17760262502E+03  0.12509000000E+03 0.  0.
<mgrwt>
<rscale>  2 0.43907132E+03</rscale>
<asrwt>0</asrwt>
<pdfrwt beam="1">  1       21 0.12836660E-01 0.43907132E+03</pdfrwt>
<pdfrwt beam="2">  1       21 0.81197061E-01 0.43907132E+03</pdfrwt>
<totfact> 0.63985027E+04</totfact>
</mgrwt>
</event>
<event>
 7    0  0.4712189E-002  0.4531829E+03  0.7546771E-02  0.1026777E+00
         21   -1    0    0  502  501  0.00000000000E+00  0.00000000000E+00  0.10932424118E+03  0.10932424118E+03  0.00000000000E+00 0.  1.
         21   -1    0    0  501  502 -0.00000000000E+00 -0.00000000000E+00 -0.46964590936E+03  0.46964590936E+03  0.00000000000E+00 0.  1.
      99926    2    1    2    0    0  0.00000000000E+00  0.00000000000E+00 -0.36032166818E+03  0.57897015054E+03  0.45318288876E+03 0.  0.
      99925    2    3    3    0    0  0.42594608142E+02  0.60691713402E+02 -0.33427298750E+03  0.43124125498E+03  0.26216942063E+03 0.  0.
         25    1    4    4    0    0  0.39998213362E+01  0.28466634253E+02 -0.21910244446E+03  0.25392860631E+03  0.12509000000E+03 0.  0.
         25    1    3    3    0    0 -0.42594608142E+02 -0.60691713402E+02 -0.26048680685E+02  0.14772889556E+03  0.12509000000E+03 0.  0.
         25    1    4    4    0    0  0.38594786806E+02  0.32225079149E+02 -0.11517054304E+03  0.17731264867E+03  0.12509000000E+03 0.  0.
<mgrwt>
<rscale>  2 0.45318289E+03</rscale>
<asrwt>0</asrwt>
<pdfrwt beam="1">  1       21 0.16077094E-01 0.45318289E+03</pdfrwt>
<pdfrwt beam="2">  1       21 0.69065575E-01 0.45318289E+03</pdfrwt>
<totfact> 0.60861373E+04</totfact>
</mgrwt>
</event>
<event>
 7    0  0.4712189E-002  0.4428277E+03  0.7546771E-02  0.1029883E+00
         21   -1    0    0  502  501  0.00000000000E+00  0.00000000000E+00  0.21196916305E+03  0.21196916305E+03  0.00000000000E+00 0.  1.
         21   -1    0    0  501  502 -0.00000000000E+00 -0.00000000000E+00 -0.23127934125E+03  0.23127934125E+03  0.00000000000E+00 0.  1.
      99926    2    1    2    0    0  0.14210854715E-13 -0.13322676296E-14 -0.19310178193E+02  0.44324850430E+03  0.44282767933E+03 0.  0.
      99925    2    3    3    0    0  0.79115897654E+02 -0.26365479760E+01 -0.75334830158E+02  0.28496854229E+03  0.26318331408E+03 0.  0.
         25    1    4    4    0    0  0.34028115947E+02 -0.40232334042E+02 -0.25719406532E+02  0.13815045910E+03  0.12509000000E+03 0.  0.
         25    1    4    4    0    0  0.45087781707E+02  0.37595786066E+02 -0.49615423626E+02  0.14681808319E+03  0.12509000000E+03 0.  0.
         25    1    3    3    0    0 -0.79115897654E+02  0.26365479760E+01  0.56024651965E+02  0.15827996201E+03  0.12509000000E+03 0.  0.
<mgrwt>
<rscale>  2 0.44282768E+03</rscale>
<asrwt>0</asrwt>
<pdfrwt beam="1">  1       21 0.31171936E-01 0.44282768E+03</pdfrwt>
<pdfrwt beam="2">  1       21 0.34011668E-01 0.44282768E+03</pdfrwt>
<totfact> 0.76587835E+04</totfact>
</mgrwt>
</event>
<event>
 7    0  0.4712189E-002  0.4551744E+03  0.7546771E-02  0.1026190E+00
         21   -1    0    0  502  501  0.00000000000E+00  0.00000000000E+00  0.48222154167E+02  0.48222154167E+02  0.00000000000E+00 0.  1.
         21   -1    0    0  501  502 -0.00000000000E+00 -0.00000000000E+00 -0.10741107338E+04  0.10741107338E+04  0.00000000000E+00 0.  1.
      99926    2    1    2    0    0  0.17763568394E-14  0.00000000000E+00 -0.10258885796E+04  0.11223328880E+04  0.45517439909E+03 0.  0.
      99925    2    3    3    0    0 -0.15461601213E+02  0.11148320883E+03 -0.67847790341E+03  0.73631572123E+03  0.26298480744E+03 0.  0.
         25    1    4    4    0    0 -0.30039296336E+02  0.22123521933E+02 -0.27883164120E+03  0.30787400309E+03  0.12509000000E+03 0.  0.
         25    1    4    4    0    0  0.14577695123E+02  0.89359686899E+02 -0.39964626221E+03  0.42844171813E+03  0.12509000000E+03 0.  0.
         25    1    3    3    0    0  0.15461601213E+02 -0.11148320883E+03 -0.34741067621E+03  0.38601716673E+03  0.12509000000E+03 0.  0.
<mgrwt>
<rscale>  2 0.45517440E+03</rscale>
<asrwt>0</asrwt>
<pdfrwt beam="1">  1       21 0.70914937E-02 0.45517440E+03</pdfrwt>
<pdfrwt beam="2">  1       21 0.15795745E+00 0.45517440E+03</pdfrwt>
<totfact> 0.34672480E+04</totfact>
</mgrwt>
</event>
<event>
 7    0  0.4712189E-002  0.4607715E+03  0.7546771E-02  0.1024558E+00
         21   -1    0    0  502  501  0.00000000000E+00  0.00000000000E+00  0.52299596585E+03  0.52299596585E+03  0.00000000000E+00 0.  1.
         21   -1    0    0  501  502 -0.00000000000E+00 -0.00000000000E+00 -0.10148759034E+03  0.10148759034E+03  0.00000000000E+00 0.  1.
      99926    2    1    2    0    0  0.00000000000E+00  0.00000000000E+00  0.42150837551E+03  0.62448355619E+03  0.46077152834E+03 0.  0.
      99925    2    3    3    0    0 -0.91007320637E+02  0.40168085367E+02  0.35132338094E+03  0.44992912613E+03  0.26289217001E+03 0.  0.
         25    1    4    4    0    0 -0.48551728477E+01  0.56542545607E+01  0.15449592097E+03  0.19892722537E+03  0.12509000000E+03 0.  0.
         25    1    4    4    0    0 -0.86152147790E+02  0.34513830806E+02  0.19682745997E+03  0.25100190076E+03  0.12509000000E+03 0.  0.
         25    1    3    3    0    0  0.91007320637E+02 -0.40168085367E+02  0.70184994574E+02  0.17455443006E+03  0.12509000000E+03 0.  0.
<mgrwt>
<rscale>  2 0.46077153E+03</rscale>
<asrwt>0</asrwt>
<pdfrwt beam="1">  1       21 0.76911170E-01 0.46077153E+03</pdfrwt>
<pdfrwt beam="2">  1       21 0.14924646E-01 0.46077153E+03</pdfrwt>
<totfact> 0.54662100E+04</totfact>
</mgrwt>
</event>
<event>
 7    0  0.4712189E-002  0.4595987E+03  0.7546771E-02  0.1024898E+00
         21   -1    0    0  502  501  0.00000000000E+00  0.00000000000E+00  0.85603032943E+03  0.85603032943E+03  0.00000000000E+00 0. -1.
         21   -1    0    0  501  502 -0.00000000000E+00 -0.00000000000E+00 -0.61689113435E+02  0.61689113435E+02  0.00000000000E+00 0. -1.
      99926    2    1    2    0    0 -0.17763568394E-14  0.00000000000E+00  0.79434121599E+03  0.91771944286E+03  0.45959874715E+03 0.  0.
      99925    2    3    3    0    0 -0.39022034435E+01  0.11269411440E+03  0.43296812018E+03  0.51903007370E+03  0.26308864227E+03 0.  0.
         25    1    3    3    0    0  0.39022034435E+01 -0.11269411440E+03  0.36137309581E+03  0.39868936917E+03  0.12509000000E+03 0.  0.
         25    1    4    4    0    0  0.20850277715E+02  0.21937380119E+02  0.17372242590E+03  0.21620123054E+03  0.12509000000E+03 0.  0.
         25    1    4    4    0    0 -0.24752481158E+02  0.90756734283E+02  0.25924569428E+03  0.30282884315E+03  0.12509000000E+03 0.  0.
<mgrwt>
<rscale>  2 0.45959875E+03</rscale>
<asrwt>0</asrwt>
<pdfrwt beam="1">  1       21 0.12588681E+00 0.45959875E+03</pdfrwt>
<pdfrwt beam="2">  1       21 0.90719290E-02 0.45959875E+03</pdfrwt>
<totfact> 0.40981302E+04</totfact>
</mgrwt>
</event>
<event>
 7    0  0.4712189E-002  0.5031775E+03  0.7546771E-02  0.1012953E+00
         21   -1    0    0  502  501  0.00000000000E+00  0.00000000000E+00  0.92797479029E+02  0.92797479029E+02  0.00000000000E+00 0. -1.
         21   -1    0    0  501  502 -0.00000000000E+00 -0.00000000000E+00 -0.68209709021E+03  0.68209709021E+03  0.00000000000E+00 0. -1.
      99926    2    1    2    0    0  0.00000000000E+00  0.00000000000E+00 -0.58929961118E+03  0.77489456923E+03  0.50317746541E+03 0.  0.
      99925    2    3    3    0    0 -0.11937474835E+03 -0.95738653232E+02 -0.38367359279E+03  0.48968273953E+03  0.26299722303E+03 0.  0.
         25    1    3    3    0    0  0.11937474835E+03  0.95738653232E+02 -0.20562601839E+03  0.28521182971E+03  0.12509000000E+03 0.  0.
         25    1    4    4    0    0 -0.58182471615E+02 -0.42108555279E+02 -0.12413817541E+03  0.19030534707E+03  0.12509000000E+03 0.  0.
         25    1    4    4    0    0 -0.61192276733E+02 -0.53630097953E+02 -0.25953541738E+03  0.29937739246E+03  0.12509000000E+03 0.  0.
<mgrwt>
<rscale>  2 0.50317747E+03</rscale>
<asrwt>0</asrwt>
<pdfrwt beam="1">  1       21 0.13646688E-01 0.50317747E+03</pdfrwt>
<pdfrwt beam="2">  1       21 0.10030839E+00 0.50317747E+03</pdfrwt>
<totfact> 0.34140005E+04</totfact>
</mgrwt>
</event>
<event>
 7    0  0.4712189E-002  0.4724232E+03  0.7546771E-02  0.1021239E+00
         21   -1    0    0  502  501  0.00000000000E+00  0.00000000000E+00  0.11547729050E+04  0.11547729050E+04  0.00000000000E+00 0. -1.
         21   -1    0    0  501  502 -0.00000000000E+00 -0.00000000000E+00 -0.48317658095E+02  0.48317658095E+02  0.00000000000E+00 0. -1.
      99926    2    1    2    0    0 -0.35527136788E-14  0.00000000000E+00  0.11064552469E+04  0.12030905631E+04  0.47242321027E+03 0.  0.
      99925    2    3    3    0    0 -0.25252047728E+02 -0.10346988279E+03  0.86955340425E+03  0.91479614117E+03  0.26341065751E+03 0.  0.
         25    1    4    4    0    0 -0.41061634733E+02 -0.41742469462E+02  0.52196012748E+03  0.53992441544E+03  0.12509000000E+03 0.  0.
         25    1    3    3    0    0  0.25252047728E+02  0.10346988279E+03  0.23690184263E+03  0.28829442190E+03  0.12509000000E+03 0.  0.
         25    1    4    4    0    0  0.15809587005E+02 -0.61727413327E+02  0.34759327677E+03  0.37487172573E+03  0.12509000000E+03 0.  0.
<mgrwt>
<rscale>  2 0.47242321E+03</rscale>
<asrwt>0</asrwt>
<pdfrwt beam="1">  1       21 0.16981953E+00 0.47242321E+03</pdfrwt>
<pdfrwt beam="2">  1       21 0.71055387E-02 0.47242321E+03</pdfrwt>
<totfact> 0.28052861E+04</totfact>
</mgrwt>
</event>
<event>
 7    0  0.4712189E-002  0.4659735E+03  0.7546771E-02  0.1023063E+00
         21   -1    0    0  502  501  0.00000000000E+00  0.00000000000E+00  0.23639509725E+03  0.23639509725E+03  0.00000000000E+00 0.  1.
         21   -1    0    0  501  502 -0.00000000000E+00 -0.00000000000E+00 -0.22962755366E+03  0.22962755366E+03  0.00000000000E+00 0.  1.
      99926    2    1    2    0    0  0.00000000000E+00  0.00000000000E+00  0.67675435884E+01  0.46602265091E+03  0.46597350946E+03 0.  0.
      99925    2    3    3    0    0 -0.91176331798E+02  0.82944914532E+02  0.19664486357E+01  0.29034242738E+03  0.26287235665E+03 0.  0.
         25    1    4    4    0    0 -0.33097683573E+02  0.78230651727E+01 -0.21975565620E+02  0.13148038101E+03  0.12509000000E+03 0.  0.
         25    1    4    4    0    0 -0.58078648226E+02  0.75121849359E+02  0.23942014256E+02  0.15886204637E+03  0.12509000000E+03 0.  0.
         25    1    3    3    0    0  0.91176331798E+02 -0.82944914532E+02  0.48010949526E+01  0.17568022353E+03  0.12509000000E+03 0.  0.
<mgrwt>
<rscale>  2 0.46597351E+03</rscale>
<asrwt>0</asrwt>
<pdfrwt beam="1">  1       21 0.34763985E-01 0.46597351E+03</pdfrwt>
<pdfrwt beam="2">  1       21 0.33768758E-01 0.46597351E+03</pdfrwt>
<totfact> 0.62125389E+04</totfact>
</mgrwt>
</event>
<event>
 7    0  0.4712189E-002  0.4535292E+03  0.7546771E-02  0.1026675E+00
         21   -1    0    0  502  501  0.00000000000E+00  0.00000000000E+00  0.13863567907E+03  0.13863567907E+03  0.00000000000E+00 0.  1.
         21   -1    0    0  501  502 -0.00000000000E+00 -0.00000000000E+00 -0.37091599981E+03  0.37091599981E+03  0.00000000000E+00 0.  1.
      99926    2    1    2    0    0  0.00000000000E+00  0.00000000000E+00 -0.23228032074E+03  0.50955167889E+03  0.45352923395E+03 0.  0.
      99925    2    3    3    0    0  0.91400847834E+02 -0.16825331785E+02 -0.76332998581E+02  0.28908789010E+03  0.26288376663E+03 0.  0.
         25    1    4    4    0    0  0.33653820810E+02  0.28747186390E+02 -0.24124667027E+02  0.13486470272E+03  0.12509000000E+03 0.  0.
         25    1    4    4    0    0  0.57747027024E+02 -0.45572518175E+02 -0.52208331554E+02  0.15422318738E+03  0.12509000000E+03 0.  0.
         25    1    3    3    0    0 -0.91400847834E+02  0.16825331785E+02 -0.15594732216E+03  0.22046378878E+03  0.12509000000E+03 0.  0.
<mgrwt>
<rscale>  2 0.45352923E+03</rscale>
<asrwt>0</asrwt>
<pdfrwt beam="1">  1       21 0.20387600E-01 0.45352923E+03</pdfrwt>
<pdfrwt beam="2">  1       21 0.54546471E-01 0.45352923E+03</pdfrwt>
<totfact> 0.65364327E+04</totfact>
</mgrwt>
</event>
<event>
 7    0  0.4712189E-002  0.4588088E+03  0.7546771E-02  0.1025127E+00
         21   -1    0    0  502  501  0.00000000000E+00  0.00000000000E+00  0.81600720797E+02  0.81600720797E+02  0.00000000000E+00 0.  1.
         21   -1    0    0  501  502 -0.00000000000E+00 -0.00000000000E+00 -0.64492527973E+03  0.64492527973E+03  0.00000000000E+00 0.  1.
      99926    2    1    2    0    0  0.00000000000E+00  0.00000000000E+00 -0.56332455893E+03  0.72652600053E+03  0.45880875182E+03 0.  0.
      99925    2    3    3    0    0 -0.34134099378E+02 -0.12916838187E+02 -0.17783713052E+03  0.31961071817E+03  0.26304559439E+03 0.  0.
         25    1    4    4    0    0  0.45722662139E+01  0.25283323327E+02 -0.10276986815E+03  0.16391859552E+03  0.12509000000E+03 0.  0.
         25    1    4    4    0    0 -0.38706365591E+02 -0.38200161515E+02 -0.75067262369E+02  0.15569212265E+03  0.12509000000E+03 0.  0.
         25    1    3    3    0    0  0.34134099378E+02  0.12916838187E+02 -0.38548742841E+03  0.40691528236E+03  0.12509000000E+03 0.  0.
<mgrwt>
<rscale>  2 0.45880875E+03</rscale>
<asrwt>0</asrwt>
<pdfrwt beam="1">  1       21 0.12000106E-01 0.45880875E+03</pdfrwt>
<pdfrwt beam="2">  1       21 0.94841951E-01 0.45880875E+03</pdfrwt>
<totfact> 0.49972617E+04</totfact>
</mgrwt>
</event>
<event>
 7    0  0.4712189E-002  0.4361633E+03  0.7546771E-02  0.1031931E+00
         21   -1    0    0  502  501  0.00000000000E+00  0.00000000000E+00  0.11097388391E+03  0.11097388391E+03  0.00000000000E+00 0. -1.
         21   -1    0    0  501  502 -0.00000000000E+00 -0.00000000000E+00 -0.42856578686E+03  0.42856578686E+03  0.00000000000E+00 0. -1.
      99926    2    1    2    0    0  0.00000000000E+00  0.00000000000E+00 -0.31759190295E+03  0.53953967078E+03  0.43616331749E+03 0.  0.
      99925    2    3    3    0    0  0.19224562613E+02  0.52894358465E+02 -0.10904002862E+03  0.28992238502E+03  0.26267444590E+03 0.  0.
         25    1    4    4    0    0  0.30684982164E+01  0.54911028959E+02 -0.26553740779E+02  0.13920217682E+03  0.12509000000E+03 0.  0.
         25    1    3    3    0    0 -0.19224562613E+02 -0.52894358465E+02 -0.20855187432E+03  0.24961728576E+03  0.12509000000E+03 0.  0.
         25    1    4    4    0    0  0.16156064397E+02 -0.20166704933E+01 -0.82486287845E+02  0.15072020820E+03  0.12509000000E+03 0.  0.
<mgrwt>
<rscale>  2 0.43616332E+03</rscale>
<asrwt>0</asrwt>
<pdfrwt beam="1">  1       21 0.16319689E-01 0.43616332E+03</pdfrwt>
<pdfrwt beam="2">  1       21 0.63024380E-01 0.43616332E+03</pdfrwt>
<totfact> 0.72827398E+04</totfact>
</mgrwt>
</event>
<event>
 7    0  0.4712189E-002  0.4583167E+03  0.7546771E-02  0.1025271E+00
         21   -1    0    0  502  501  0.00000000000E+00  0.00000000000E+00  0.66906100301E+02  0.66906100301E+02  0.00000000000E+00 0. -1.
         21   -1    0    0  501  502 -0.00000000000E+00 -0.00000000000E+00 -0.78488449044E+03  0.78488449044E+03  0.00000000000E+00 0. -1.
      99926    2    1    2    0    0  0.00000000000E+00  0.00000000000E+00 -0.71797839014E+03  0.85179059074E+03  0.45831674829E+03 0.  0.
      99925    2    3    3    0    0  0.83536550080E+02 -0.80428764342E+02 -0.46828630676E+03  0.54939881516E+03  0.26286850643E+03 0.  0.
         25    1    3    3    0    0 -0.83536550080E+02  0.80428764342E+02 -0.24969208338E+03  0.30239177558E+03  0.12509000000E+03 0.  0.
         25    1    4    4    0    0  0.59550324651E+02 -0.54337934061E+02 -0.18291055430E+03  0.23580210181E+03  0.12509000000E+03 0.  0.
         25    1    4    4    0    0  0.23986225429E+02 -0.26090830281E+02 -0.28537575246E+03  0.31359671336E+03  0.12509000000E+03 0.  0.
<mgrwt>
<rscale>  2 0.45831675E+03</rscale>
<asrwt>0</asrwt>
<pdfrwt beam="1">  1       21 0.98391327E-02 0.45831675E+03</pdfrwt>
<pdfrwt beam="2">  1       21 0.11542419E+00 0.45831675E+03</pdfrwt>
<totfact> 0.44198161E+04</totfact>
</mgrwt>
</event>
<event>
 7    0  0.4712189E-002  0.4628284E+03  0.7546771E-02  0.1023964E+00
         21   -1    0    0  502  501  0.00000000000E+00  0.00000000000E+00  0.23113192927E+03  0.23113192927E+03  0.00000000000E+00 0. -1.
         21   -1    0    0  501  502 -0.00000000000E+00 -0.00000000000E+00 -0.23169683623E+03  0.23169683623E+03  0.00000000000E+00 0. -1.
      99926    2    1    2    0    0  0.00000000000E+00  0.00000000000E+00 -0.56490695346E+00  0.46282876550E+03  0.46282842075E+03 0.  0.
      99925    2    3    3    0    0  0.25779856169E+01 -0.11441656209E+03  0.36877139528E+02  0.28919924429E+03  0.26301802940E+03 0.  0.
         25    1    4    4    0    0 -0.17128140346E+01 -0.22653211963E+02  0.42065266260E+02  0.13391451180E+03  0.12509000000E+03 0.  0.
         25    1    3    3    0    0 -0.25779856169E+01  0.11441656209E+03 -0.37442046482E+02  0.17362952121E+03  0.12509000000E+03 0.  0.
         25    1    4    4    0    0  0.42907996514E+01 -0.91763350122E+02 -0.51881267312E+01  0.15528473250E+03  0.12509000000E+03 0.  0.
<mgrwt>
<rscale>  2 0.46282842E+03</rscale>
<asrwt>0</asrwt>
<pdfrwt beam="1">  1       21 0.33989990E-01 0.46282842E+03</pdfrwt>
<pdfrwt beam="2">  1       21 0.34073064E-01 0.46282842E+03</pdfrwt>
<totfact> 0.63890987E+04</totfact>
</mgrwt>
</event>
<event>
 7    0  0.4712189E-002  0.4584930E+03  0.7546771E-02  0.1025219E+00
         21   -1    0    0  502  501  0.00000000000E+00  0.00000000000E+00  0.34515640022E+03  0.34515640022E+03  0.00000000000E+00 0. -1.
         21   -1    0    0  501  502 -0.00000000000E+00 -0.00000000000E+00 -0.15226126951E+03  0.15226126951E+03  0.00000000000E+00 0. -1.
      99926    2    1    2    0    0  0.00000000000E+00  0.00000000000E+00  0.19289513071E+03  0.49741766973E+03  0.45849297346E+03 0.  0.
      99925    2    3    3    0    0 -0.55245437939E+02  0.75451823710E+02  0.45771933976E+02  0.28285350863E+03  0.26299429897E+03 0.  0.
         25    1    4    4    0    0 -0.45432536496E+02  0.73317747067E+00  0.22343080658E+02  0.13494952492E+03  0.12509000000E+03 0.  0.
         25    1    4    4    0    0 -0.98129014438E+01  0.74718646239E+02  0.23428853317E+02  0.14790398371E+03  0.12509000000E+03 0.  0.
         25    1    3    3    0    0  0.55245437939E+02 -0.75451823710E+02  0.14712319673E+03  0.21456416110E+03  0.12509000000E+03 0.  0.
<mgrwt>
<rscale>  2 0.45849297E+03</rscale>
<asrwt>0</asrwt>
<pdfrwt beam="1">  1       21 0.50758294E-01 0.45849297E+03</pdfrwt>
<pdfrwt beam="2">  1       21 0.22391363E-01 0.45849297E+03</pdfrwt>
<totfact> 0.63668594E+04</totfact>
</mgrwt>
</event>
<event>
 7    0  0.4712189E-002  0.4466227E+03  0.7546771E-02  0.1028734E+00
         21   -1    0    0  502  501  0.00000000000E+00  0.00000000000E+00  0.79462734791E+02  0.79462734791E+02  0.00000000000E+00 0.  1.
         21   -1    0    0  501  502 -0.00000000000E+00 -0.00000000000E+00 -0.62756404189E+03  0.62756404189E+03  0.00000000000E+00 0.  1.
      99926    2    1    2    0    0  0.00000000000E+00  0.00000000000E+00 -0.54810130710E+03  0.70702677668E+03  0.44662268203E+03 0.  0.
      99925    2    3    3    0    0 -0.32414001988E+02  0.96662111283E+01 -0.18965524494E+03  0.32587694953E+03  0.26283563521E+03 0.  0.
         25    1    4    4    0    0  0.15421606136E+02  0.19103418034E+02 -0.11794115697E+03  0.17366747284E+03  0.12509000000E+03 0.  0.
         25    1    4    4    0    0 -0.47835608125E+02 -0.94372069054E+01 -0.71714087971E+02  0.15220947668E+03  0.12509000000E+03 0.  0.
         25    1    3    3    0    0  0.32414001988E+02 -0.96662111283E+01 -0.35844606216E+03  0.38114982715E+03  0.12509000000E+03 0.  0.
<mgrwt>
<rscale>  2 0.44662268E+03</rscale>
<asrwt>0</asrwt>
<pdfrwt beam="1">  1       21 0.11685696E-01 0.44662268E+03</pdfrwt>
<pdfrwt beam="2">  1       21 0.92288828E-01 0.44662268E+03</pdfrwt>
<totfact> 0.56132548E+04</totfact>
</mgrwt>
</event>
<event>
 6    0  0.4712189E-002  0.4269196E+03  0.7546771E-02  0.1034837E+00
         21   -1    0    0  502  501  0.00000000000E+00  0.00000000000E+00  0.76984130890E+03  0.76984130890E+03  0.00000000000E+00 0.  1.
         21   -1    0    0  501  502 -0.00000000000E+00 -0.00000000000E+00 -0.59187622846E+02  0.59187622846E+02  0.00000000000E+00 0.  1.
      99926    2    1    2    0    0  0.00000000000E+00  0.14210854715E-13  0.71065368605E+03  0.82902893174E+03  0.42691955702E+03 0.  0.
         25    1    3    3    0    0 -0.68202337854E+01  0.10942291920E+02  0.28241882917E+03  0.30915069547E+03  0.12509000000E+03 0.  0.
         25    1    3    3    0    0  0.27755165734E+02 -0.76762310272E+02  0.25262267172E+03  0.29347661554E+03  0.12509000000E+03 0.  0.
         25    1    3    3    0    0 -0.20934931949E+02  0.65820018352E+02  0.17561218516E+03  0.22640162073E+03  0.12509000000E+03 0.  0.
<mgrwt>
<rscale>  2 0.42691956E+03</rscale>
<asrwt>0</asrwt>
<pdfrwt beam="1">  1       21 0.11321195E+00 0.42691956E+03</pdfrwt>
<pdfrwt beam="2">  1       21 0.87040626E-02 0.42691956E+03</pdfrwt>
<totfact> 0.58191346E+04</totfact>
</mgrwt>
</event>
<event>
 7    0  0.4712189E-002  0.4506789E+03  0.7546771E-02  0.1027520E+00
         21   -1    0    0  502  501  0.00000000000E+00  0.00000000000E+00  0.52176671313E+02  0.52176671313E+02  0.00000000000E+00 0.  1.
         21   -1    0    0  501  502 -0.00000000000E+00 -0.00000000000E+00 -0.97319104241E+03  0.97319104241E+03  0.00000000000E+00 0.  1.
      99926    2    1    2    0    0  0.00000000000E+00 -0.88817841970E-15 -0.92101437110E+03  0.10253677137E+04  0.45067890630E+03 0.  0.
      99925    2    3    3    0    0  0.80277862719E+02  0.45070599178E+01 -0.74928794847E+03  0.79820627078E+03  0.26312729269E+03 0.  0.
         25    1    3    3    0    0 -0.80277862719E+02 -0.45070599178E+01 -0.17172642262E+03  0.22716144294E+03  0.12509000000E+03 0.  0.
         25    1    4    4    0    0  0.10073357266E+02 -0.23115237023E+02 -0.30875998369E+03  0.33408984171E+03  0.12509000000E+03 0.  0.
         25    1    4    4    0    0  0.70204505453E+02  0.27622296941E+02 -0.44052796478E+03  0.46411642907E+03  0.12509000000E+03 0.  0.
<mgrwt>
<rscale>  2 0.45067891E+03</rscale>
<asrwt>0</asrwt>
<pdfrwt beam="1">  1       21 0.76730403E-02 0.45067891E+03</pdfrwt>
<pdfrwt beam="2">  1       21 0.14311632E+00 0.45067891E+03</pdfrwt>
<totfact> 0.39510604E+04</totfact>
</mgrwt>
</event>
<event>
 7    0  0.4712189E-002  0.4467427E+03  0.7546771E-02  0.1028698E+00
         21   -1    0    0  502  501  0.00000000000E+00  0.00000000000E+00  0.32663460904E+03  0.32663460904E+03  0.00000000000E+00 0. -1.
         21   -1    0    0  501  502 -0.00000000000E+00 -0.00000000000E+00 -0.15275406576E+03  0.15275406576E+03  0.00000000000E+00 0. -1.
      99926    2    1    2    0    0  0.14210854715E-13  0.88817841970E-15  0.17388054329E+03  0.47938867480E+03  0.44674272036E+03 0.  0.
      99925    2    3    3    0    0  0.66922095034E+02  0.52390074890E+01  0.23294079713E+02  0.27243504445E+03  0.26300613166E+03 0.  0.
         25    1    4    4    0    0 -0.61858298973E+01  0.10894652172E+02  0.90400207584E+00  0.12571906481E+03  0.12509000000E+03 0.  0.
         25    1    4    4    0    0  0.73107924931E+02 -0.56556446834E+01  0.22390077637E+02  0.14671597964E+03  0.12509000000E+03 0.  0.
         25    1    3    3    0    0 -0.66922095034E+02 -0.52390074890E+01  0.15058646357E+03  0.20695363035E+03  0.12509000000E+03 0.  0.
<mgrwt>
<rscale>  2 0.44674272E+03</rscale>
<asrwt>0</asrwt>
<pdfrwt beam="1">  1       21 0.48034501E-01 0.44674272E+03</pdfrwt>
<pdfrwt beam="2">  1       21 0.22463833E-01 0.44674272E+03</pdfrwt>
<totfact> 0.71305159E+04</totfact>
</mgrwt>
</event>
<event>
 7    0  0.4712189E-002  0.4553710E+03  0.7546771E-02  0.1026132E+00
         21   -1    0    0  502  501  0.00000000000E+00  0.00000000000E+00  0.19353731554E+03  0.19353731554E+03  0.00000000000E+00 0.  1.
         21   -1    0    0  501  502 -0.00000000000E+00 -0.00000000000E+00 -0.26785889359E+03  0.26785889359E+03  0.00000000000E+00 0.  1.
      99926    2    1    2    0    0  0.00000000000E+00 -0.35527136788E-14 -0.74321578052E+02  0.46139620914E+03  0.45537101889E+03 0.  0.
      99925    2    3    3    0    0  0.47641322854E+02 -0.26203528318E+02  0.54203316944E+02  0.27398629138E+03  0.26300982445E+03 0.  0.
         25    1    4    4    0    0  0.39899323516E+02 -0.31030091408E+02  0.61668741339E+02  0.14834205185E+03  0.12509000000E+03 0.  0.
         25    1    4    4    0    0  0.77419993381E+01  0.48265630904E+01 -0.74654243942E+01  0.12564423953E+03  0.12509000000E+03 0.  0.
         25    1    3    3    0    0 -0.47641322854E+02  0.26203528318E+02 -0.12852489500E+03  0.18740991776E+03  0.12509000000E+03 0.  0.
<mgrwt>
<rscale>  2 0.45537102E+03</rscale>
<asrwt>0</asrwt>
<pdfrwt beam="1">  1       21 0.28461370E-01 0.45537102E+03</pdfrwt>
<pdfrwt beam="2">  1       21 0.39391014E-01 0.45537102E+03</pdfrwt>
<totfact> 0.67877826E+04</totfact>
</mgrwt>
</event>
<event>
 7    0  0.4712189E-002  0.4405006E+03  0.7546771E-02  0.1030593E+00
         21   -1    0    0  502  501  0.00000000000E+00  0.00000000000E+00  0.27184130884E+02  0.27184130884E+02  0.00000000000E+00 0.  1.
         21   -1    0    0  501  502 -0.00000000000E+00 -0.00000000000E+00 -0.17845038908E+04  0.17845038908E+04  0.00000000000E+00 0.  1.
      99926    2    1    2    0    0  0.00000000000E+00  0.00000000000E+00 -0.17573197599E+04  0.18116880216E+04  0.44050056676E+03 0.  0.
      99925    2    3    3    0    0 -0.96268302047E+02 -0.20986688988E+02 -0.11483160267E+04  0.11822111895E+04  0.26322152702E+03 0.  0.
         25    1    4    4    0    0 -0.13042296631E+02  0.74233080471E+01 -0.44674464461E+03  0.46416968082E+03  0.12509000000E+03 0.  0.
         25    1    4    4    0    0 -0.83226005416E+02 -0.28409997035E+02 -0.70157138210E+03  0.71804150868E+03  0.12509000000E+03 0.  0.
         25    1    3    3    0    0  0.96268302047E+02  0.20986688988E+02 -0.60900373317E+03  0.62947683214E+03  0.12509000000E+03 0.  0.
<mgrwt>
<rscale>  2 0.44050057E+03</rscale>
<asrwt>0</asrwt>
<pdfrwt beam="1">  1       21 0.39976665E-02 0.44050057E+03</pdfrwt>
<pdfrwt beam="2">  1       21 0.26242703E+00 0.44050057E+03</pdfrwt>
<totfact> 0.19096126E+04</totfact>
</mgrwt>
</event>
<event>
 7    0  0.4712189E-002  0.4530212E+03  0.7546771E-02  0.1026825E+00
         21   -1    0    0  502  501  0.00000000000E+00  0.00000000000E+00  0.18641344976E+02  0.18641344976E+02  0.00000000000E+00 0. -1.
         21   -1    0    0  501  502 -0.00000000000E+00 -0.00000000000E+00 -0.27523252131E+04  0.27523252131E+04  0.00000000000E+00 0. -1.
      99926    2    1    2    0    0  0.14210854715E-13  0.14210854715E-13 -0.27336838681E+04  0.27709665581E+04  0.45302116411E+03 0.  0.
      99925    2    3    3    0    0  0.68331285776E+02  0.86218856329E+02 -0.18236601194E+04  0.18458213872E+04  0.26309220181E+03 0.  0.
         25    1    4    4    0    0  0.40160914429E+02  0.83269043568E+01 -0.70996672685E+03  0.72206820849E+03  0.12509000000E+03 0.  0.
         25    1    3    3    0    0 -0.68331285776E+02 -0.86218856329E+02 -0.91002374873E+03  0.92514517086E+03  0.12509000000E+03 0.  0.
         25    1    4    4    0    0  0.28170371347E+02  0.77891951972E+02 -0.11136933925E+04  0.11237531787E+04  0.12509000000E+03 0.  0.
<mgrwt>
<rscale>  2 0.45302116E+03</rscale>
<asrwt>0</asrwt>
<pdfrwt beam="1">  1       21 0.27413758E-02 0.45302116E+03</pdfrwt>
<pdfrwt beam="2">  1       21 0.40475348E+00 0.45302116E+03</pdfrwt>
<totfact> 0.48114979E+03</totfact>
</mgrwt>
</event>
<event>
 7    0  0.4712189E-002  0.4569514E+03  0.7546771E-02  0.1025669E+00
         21   -1    0    0  502  501  0.00000000000E+00  0.00000000000E+00  0.79621760209E+03  0.79621760209E+03  0.00000000000E+00 0.  1.
         21   -1    0    0  501  502 -0.00000000000E+00 -0.00000000000E+00 -0.65561402513E+02  0.65561402513E+02  0.00000000000E+00 0.  1.
      99926    2    1    2    0    0  0.71054273576E-14  0.00000000000E+00  0.73065619958E+03  0.86177900461E+03  0.45695138778E+03 0.  0.
      99925    2    3    3    0    0 -0.51803130502E+02 -0.60184608797E+02  0.61585534636E+03  0.67434236074E+03  0.26297159614E+03 0.  0.
         25    1    4    4    0    0 -0.18401348329E+02 -0.64721486435E+02  0.37229493225E+03  0.39847020605E+03  0.12509000000E+03 0.  0.
         25    1    3    3    0    0  0.51803130502E+02  0.60184608797E+02  0.11480085322E+03  0.18743664387E+03  0.12509000000E+03 0.  0.
         25    1    4    4    0    0 -0.33401782173E+02  0.45368776383E+01  0.24356041411E+03  0.27587215469E+03  0.12509000000E+03 0.  0.
<mgrwt>
<rscale>  2 0.45695139E+03</rscale>
<asrwt>0</asrwt>
<pdfrwt beam="1">  1       21 0.11709082E+00 0.45695139E+03</pdfrwt>
<pdfrwt beam="2">  1       21 0.96413832E-02 0.45695139E+03</pdfrwt>
<totfact> 0.44235978E+04</totfact>
</mgrwt>
</event>
<event>
 7    0  0.4712189E-002  0.4608838E+03  0.7546771E-02  0.1024525E+00
         21   -1    0    0  502  501  0.00000000000E+00  0.00000000000E+00  0.31109090587E+02  0.31109090587E+02  0.00000000000E+00 0.  1.
         21   -1    0    0  501  502 -0.00000000000E+00 -0.00000000000E+00 -0.17070082029E+04  0.17070082029E+04  0.00000000000E+00 0.  1.
      99926    2    1    2    0    0 -0.14210854715E-13 -0.35527136788E-14 -0.16758991123E+04  0.17381172935E+04  0.46088381536E+03 0.  0.
      99925    2    3    3    0    0 -0.72102445432E+02  0.18907774181E+02 -0.70215316296E+03  0.75354380789E+03  0.26315953258E+03 0.  0.
         25    1    3    3    0    0  0.72102445432E+02 -0.18907774181E+02 -0.97374594932E+03  0.98457348557E+03  0.12509000000E+03 0.  0.
         25    1    4    4    0    0 -0.59246325453E+02  0.32086078949E+02 -0.44234057896E+03  0.46459911691E+03  0.12509000000E+03 0.  0.
         25    1    4    4    0    0 -0.12856119979E+02 -0.13178304768E+02 -0.25981258400E+03  0.28894469097E+03  0.12509000000E+03 0.  0.
<mgrwt>
<rscale>  2 0.46088382E+03</rscale>
<asrwt>0</asrwt>
<pdfrwt beam="1">  1       21 0.45748655E-02 0.46088382E+03</pdfrwt>
<pdfrwt beam="2">  1       21 0.25103066E+00 0.46088382E+03</pdfrwt>
<totfact> 0.17658892E+04</totfact>
</mgrwt>
</event>
<event>
 7    0  0.4712189E-002  0.4400574E+03  0.7546771E-02  0.1030729E+00
         21   -1    0    0  502  501  0.00000000000E+00  0.00000000000E+00  0.74819352599E+03  0.74819352599E+03  0.00000000000E+00 0.  1.
         21   -1    0    0  501  502 -0.00000000000E+00 -0.00000000000E+00 -0.64706014135E+02  0.64706014135E+02  0.00000000000E+00 0.  1.
      99926    2    1    2    0    0  0.00000000000E+00  0.00000000000E+00  0.68348751185E+03  0.81289954012E+03  0.44005736384E+03 0.  0.
      99925    2    3    3    0    0 -0.58981687316E+02 -0.78855048050E+02  0.43845680181E+03  0.52069325168E+03  0.26302117262E+03 0.  0.
         25    1    3    3    0    0  0.58981687316E+02  0.78855048050E+02  0.24503071004E+03  0.29220628844E+03  0.12509000000E+03 0.  0.
         25    1    4    4    0    0 -0.35408632370E+02 -0.54877355483E+00  0.22998442595E+03  0.26418632947E+03  0.12509000000E+03 0.  0.
         25    1    4    4    0    0 -0.23573054947E+02 -0.78306274495E+02  0.20847237586E+03  0.25650692221E+03  0.12509000000E+03 0.  0.
<mgrwt>
<rscale>  2 0.44005736E+03</rscale>
<asrwt>0</asrwt>
<pdfrwt beam="1">  1       21 0.11002845E+00 0.44005736E+03</pdfrwt>
<pdfrwt beam="2">  1       21 0.95155907E-02 0.44005736E+03</pdfrwt>
<totfact> 0.53105708E+04</totfact>
</mgrwt>
</event>
<event>
 7    0  0.4712189E-002  0.4575477E+03  0.7546771E-02  0.1025495E+00
         21   -1    0    0  502  501  0.00000000000E+00  0.00000000000E+00  0.23378105528E+03  0.23378105528E+03  0.00000000000E+00 0. -1.
         21   -1    0    0  501  502 -0.00000000000E+00 -0.00000000000E+00 -0.22387387271E+03  0.22387387271E+03  0.00000000000E+00 0. -1.
      99926    2    1    2    0    0  0.17763568394E-14 -0.17763568394E-14  0.99071825757E+01  0.45765492799E+03  0.45754768150E+03 0.  0.
      99925    2    3    3    0    0  0.10696565978E+02  0.54529383809E+01  0.12121360584E+03  0.28978361114E+03  0.26294039626E+03 0.  0.
         25    1    4    4    0    0  0.40199246447E+02  0.18548784203E+02  0.46845409225E+02  0.14071971175E+03  0.12509000000E+03 0.  0.
         25    1    4    4    0    0 -0.29502680469E+02 -0.13095845822E+02  0.74368196617E+02  0.14906389939E+03  0.12509000000E+03 0.  0.
         25    1    3    3    0    0 -0.10696565978E+02 -0.54529383809E+01 -0.11130642327E+03  0.16787131685E+03  0.12509000000E+03 0.  0.
<mgrwt>
<rscale>  2 0.45754768E+03</rscale>
<asrwt>0</asrwt>
<pdfrwt beam="1">  1       21 0.34379567E-01 0.45754768E+03</pdfrwt>
<pdfrwt beam="2">  1       21 0.32922628E-01 0.45754768E+03</pdfrwt>
<totfact> 0.66979793E+04</totfact>
</mgrwt>
</event>
<event>
 7    0  0.4712189E-002  0.4457061E+03  0.7546771E-02  0.1029010E+00
         21   -1    0    0  502  501  0.00000000000E+00  0.00000000000E+00  0.43368308511E+03  0.43368308511E+03  0.00000000000E+00 0.  1.
         21   -1    0    0  501  502 -0.00000000000E+00 -0.00000000000E+00 -0.11451558358E+03  0.11451558358E+03  0.00000000000E+00 0.  1.
      99926    2    1    2    0    0  0.88817841970E-15 -0.53290705182E-14  0.31916750153E+03  0.54819866869E+03  0.44570605372E+03 0.  0.
      99925    2    3    3    0    0 -0.47575689758E+01  0.47009575885E+01  0.33051231370E+03  0.42241732537E+03  0.26297010058E+03 0.  0.
         25    1    3    3    0    0  0.47575689758E+01 -0.47009575885E+01 -0.11344812170E+02  0.12578134332E+03  0.12509000000E+03 0.  0.
         25    1    4    4    0    0  0.14374284726E+01  0.36960945982E+02  0.13269946924E+03  0.18607749720E+03  0.12509000000E+03 0.  0.
         25    1    4    4    0    0 -0.61949974484E+01 -0.32259988394E+02  0.19781284446E+03  0.23633982817E+03  0.12509000000E+03 0.  0.
<mgrwt>
<rscale>  2 0.44570605E+03</rscale>
<asrwt>0</asrwt>
<pdfrwt beam="1">  1       21 0.63776924E-01 0.44570605E+03</pdfrwt>
<pdfrwt beam="2">  1       21 0.16840527E-01 0.44570605E+03</pdfrwt>
<totfact> 0.66761220E+04</totfact>
</mgrwt>
</event>
<event>
 7    0  0.4712189E-002  0.4681952E+03  0.7546771E-02  0.1022431E+00
         21   -1    0    0  502  501  0.00000000000E+00  0.00000000000E+00  0.20919345687E+03  0.20919345687E+03  0.00000000000E+00 0. -1.
         21   -1    0    0  501  502 -0.00000000000E+00 -0.00000000000E+00 -0.26196648947E+03  0.26196648947E+03  0.00000000000E+00 0. -1.
      99926    2    1    2    0    0  0.00000000000E+00  0.00000000000E+00 -0.52773032598E+02  0.47115994634E+03  0.46819515382E+03 0.  0.
      99925    2    3    3    0    0 -0.47683663750E+02  0.20231046946E+02 -0.14747461204E+03  0.30593608518E+03  0.26299258539E+03 0.  0.
         25    1    4    4    0    0 -0.21779668675E+02  0.28125909312E+02 -0.11569016707E+03  0.17406074687E+03  0.12509000000E+03 0.  0.
         25    1    4    4    0    0 -0.25903995075E+02 -0.78948623659E+01 -0.31784444966E+02  0.13187533831E+03  0.12509000000E+03 0.  0.
         25    1    3    3    0    0  0.47683663750E+02 -0.20231046946E+02  0.94701579439E+02  0.16522386116E+03  0.12509000000E+03 0.  0.
<mgrwt>
<rscale>  2 0.46819515E+03</rscale>
<asrwt>0</asrwt>
<pdfrwt beam="1">  1       21 0.30763744E-01 0.46819515E+03</pdfrwt>
<pdfrwt beam="2">  1       21 0.38524484E-01 0.46819515E+03</pdfrwt>
<totfact> 0.60728137E+04</totfact>
</mgrwt>
</event>
<event>
 7    0  0.4712189E-002  0.4536127E+03  0.7546771E-02  0.1026650E+00
         21   -1    0    0  502  501  0.00000000000E+00  0.00000000000E+00  0.21622514213E+02  0.21622514213E+02  0.00000000000E+00 0. -1.
         21   -1    0    0  501  502 -0.00000000000E+00 -0.00000000000E+00 -0.23790538381E+04  0.23790538381E+04  0.00000000000E+00 0. -1.
      99926    2    1    2    0    0  0.00000000000E+00  0.00000000000E+00 -0.23574313238E+04  0.24006763523E+04  0.45361272217E+03 0.  0.
      99925    2    3    3    0    0 -0.98411909945E+02  0.50437975464E+02 -0.13947588804E+04  0.14236325279E+04  0.26296073183E+03 0.  0.
         25    1    3    3    0    0  0.98411909945E+02 -0.50437975464E+02 -0.96267244341E+03  0.97704382440E+03  0.12509000000E+03 0.  0.
         25    1    4    4    0    0 -0.68649210391E+01  0.19582463153E+02 -0.65926377879E+03  0.67134703257E+03  0.12509000000E+03 0.  0.
         25    1    4    4    0    0 -0.91546988906E+02  0.30855512311E+02 -0.73549510163E+03  0.75228549530E+03  0.12509000000E+03 0.  0.
<mgrwt>
<rscale>  2 0.45361272E+03</rscale>
<asrwt>0</asrwt>
<pdfrwt beam="1">  1       21 0.31797817E-02 0.45361272E+03</pdfrwt>
<pdfrwt beam="2">  1       21 0.34986083E+00 0.45361272E+03</pdfrwt>
<totfact> 0.82911050E+03</totfact>
</mgrwt>
</event>
<event>
 7    0  0.4712189E-002  0.4543907E+03  0.7546771E-02  0.1026421E+00
         21   -1    0    0  502  501  0.00000000000E+00  0.00000000000E+00  0.11442265038E+03  0.11442265038E+03  0.00000000000E+00 0. -1.
         21   -1    0    0  501  502 -0.00000000000E+00 -0.00000000000E+00 -0.45111456750E+03  0.45111456750E+03  0.00000000000E+00 0. -1.
      99926    2    1    2    0    0 -0.14210854715E-13 -0.71054273576E-14 -0.33669191712E+03  0.56553721789E+03  0.45439068846E+03 0.  0.
      99925    2    3    3    0    0 -0.70764061579E+02 -0.58998486273E+02 -0.13119751486E+03  0.30792543389E+03  0.26290095309E+03 0.  0.
         25    1    3    3    0    0  0.70764061579E+02  0.58998486273E+02 -0.20549440226E+03  0.25761178400E+03  0.12509000000E+03 0.  0.
         25    1    4    4    0    0 -0.13475563487E+02  0.53030108963E+01 -0.48022312109E+02  0.13477152257E+03  0.12509000000E+03 0.  0.
         25    1    4    4    0    0 -0.57288498091E+02 -0.64301497169E+02 -0.83175202749E+02  0.17315391132E+03  0.12509000000E+03 0.  0.
<mgrwt>
<rscale>  2 0.45439069E+03</rscale>
<asrwt>0</asrwt>
<pdfrwt beam="1">  1       21 0.16826860E-01 0.45439069E+03</pdfrwt>
<pdfrwt beam="2">  1       21 0.66340377E-01 0.45439069E+03</pdfrwt>
<totfact> 0.61145447E+04</totfact>
</mgrwt>
</event>
<event>
 7    0  0.4712189E-002  0.4159495E+03  0.7546771E-02  0.1038393E+00
         21   -1    0    0  502  501  0.00000000000E+00  0.00000000000E+00  0.89034894043E+02  0.89034894043E+02  0.00000000000E+00 0.  1.
         21   -1    0    0  501  502 -0.00000000000E+00 -0.00000000000E+00 -0.48580383816E+03  0.48580383816E+03  0.00000000000E+00 0.  1.
      99926    2    1    2    0    0  0.00000000000E+00  0.00000000000E+00 -0.39676894411E+03  0.57483873220E+03  0.41594948374E+03 0.  0.
      99925    2    3    3    0    0  0.46148486281E+02  0.21722025237E+02 -0.32708229905E+03  0.42283456855E+03  0.26306788638E+03 0.  0.
         25    1    3    3    0    0 -0.46148486281E+02 -0.21722025237E+02 -0.69686645067E+02  0.15200416365E+03  0.12509000000E+03 0.  0.
         25    1    4    4    0    0  0.12990289933E+02  0.11423513112E+01 -0.22083320752E+03  0.25413552731E+03  0.12509000000E+03 0.  0.
         25    1    4    4    0    0  0.33158196348E+02  0.20579673925E+02 -0.10624909153E+03  0.16869904124E+03  0.12509000000E+03 0.  0.
<mgrwt>
<rscale>  2 0.41594948E+03</rscale>
<asrwt>0</asrwt>
<pdfrwt beam="1">  1       21 0.13093367E-01 0.41594948E+03</pdfrwt>
<pdfrwt beam="2">  1       21 0.71441741E-01 0.41594948E+03</pdfrwt>
<totfact> 0.83084891E+04</totfact>
</mgrwt>
</event>
<event>
 7    0  0.4712189E-002  0.4436273E+03  0.7546771E-02  0.1029640E+00
         21   -1    0    0  502  501  0.00000000000E+00  0.00000000000E+00  0.15412106680E+03  0.15412106680E+03  0.00000000000E+00 0.  1.
         21   -1    0    0  501  502 -0.00000000000E+00 -0.00000000000E+00 -0.31923790646E+03  0.31923790646E+03  0.00000000000E+00 0.  1.
      99926    2    1    2    0    0  0.13322676296E-14  0.17763568394E-14 -0.16511683966E+03  0.47335897326E+03  0.44362726114E+03 0.  0.
      99925    2    3    3    0    0 -0.39855664262E+01  0.11657669028E+02  0.31640110281E+01  0.26331674228E+03  0.26300933408E+03 0.  0.
         25    1    4    4    0    0 -0.25125385513E+02  0.35132035413E+02 -0.14364591768E+02  0.13311421602E+03  0.12509000000E+03 0.  0.
         25    1    4    4    0    0  0.21139819087E+02 -0.23474366385E+02  0.17528602796E+02  0.13020252626E+03  0.12509000000E+03 0.  0.
         25    1    3    3    0    0  0.39855664262E+01 -0.11657669028E+02 -0.16828085069E+03  0.21004223098E+03  0.12509000000E+03 0.  0.
<mgrwt>
<rscale>  2 0.44362726E+03</rscale>
<asrwt>0</asrwt>
<pdfrwt beam="1">  1       21 0.22664863E-01 0.44362726E+03</pdfrwt>
<pdfrwt beam="2">  1       21 0.46946750E-01 0.44362726E+03</pdfrwt>
<totfact> 0.73610481E+04</totfact>
</mgrwt>
</event>
<event>
 7    0  0.4712189E-002  0.4601065E+03  0.7546771E-02  0.1024750E+00
         21   -1    0    0  502  501  0.00000000000E+00  0.00000000000E+00  0.89898412741E+03  0.89898412741E+03  0.00000000000E+00 0.  1.
         21   -1    0    0  501  502 -0.00000000000E+00 -0.00000000000E+00 -0.58871461287E+02  0.58871461287E+02  0.00000000000E+00 0.  1.
      99926    2    1    2    0    0  0.71054273576E-14  0.00000000000E+00  0.84011266613E+03  0.95785558870E+03  0.46010654964E+03 0.  0.
      99925    2    3    3    0    0  0.41543007926E+02 -0.21266463621E+02  0.75168272300E+03  0.79771363004E+03  0.26294873172E+03 0.  0.
         25    1    3    3    0    0 -0.41543007926E+02  0.21266463621E+02  0.88429943129E+02  0.16014195866E+03  0.12509000000E+03 0.  0.
         25    1    4    4    0    0 -0.93690565214E+01  0.33509941509E+01  0.43067775617E+03  0.44858649795E+03  0.12509000000E+03 0.  0.
         25    1    4    4    0    0  0.50912064448E+02 -0.24617457772E+02  0.32100496683E+03  0.34912713209E+03  0.12509000000E+03 0.  0.
<mgrwt>
<rscale>  2 0.46010655E+03</rscale>
<asrwt>0</asrwt>
<pdfrwt beam="1">  1       21 0.13220354E+00 0.46010655E+03</pdfrwt>
<pdfrwt beam="2">  1       21 0.86575684E-02 0.46010655E+03</pdfrwt>
<totfact> 0.39234194E+04</totfact>
</mgrwt>
</event>
<event>
 7    0  0.4712189E-002  0.4524992E+03  0.7546771E-02  0.1026979E+00
         21   -1    0    0  502  501  0.00000000000E+00  0.00000000000E+00  0.12267606644E+04  0.12267606644E+04  0.00000000000E+00 0. -1.
         21   -1    0    0  501  502 -0.00000000000E+00 -0.00000000000E+00 -0.41726876090E+02  0.41726876090E+02  0.00000000000E+00 0. -1.
      99926    2    1    2    0    0  0.00000000000E+00  0.00000000000E+00  0.11850337883E+04  0.12684875405E+04  0.45249923860E+03 0.  0.
      99925    2    3    3    0    0 -0.46787190064E+02 -0.20156224713E+02  0.47170259021E+03  0.54248187878E+03  0.26303600637E+03 0.  0.
         25    1    4    4    0    0  0.16758556650E+02 -0.10131276946E+01  0.22996278125E+03  0.26232091893E+03  0.12509000000E+03 0.  0.
         25    1    4    4    0    0 -0.63545746714E+02 -0.19143097018E+02  0.24173980896E+03  0.28016095986E+03  0.12509000000E+03 0.  0.
         25    1    3    3    0    0  0.46787190064E+02  0.20156224713E+02  0.71333119806E+03  0.72600566167E+03  0.12509000000E+03 0.  0.
<mgrwt>
<rscale>  2 0.45249924E+03</rscale>
<asrwt>0</asrwt>
<pdfrwt beam="1">  1       21 0.18040596E+00 0.45249924E+03</pdfrwt>
<pdfrwt beam="2">  1       21 0.61363061E-02 0.45249924E+03</pdfrwt>
<totfact> 0.30635760E+04</totfact>
</mgrwt>
</event>
<event>
 7    0  0.4712189E-002  0.4302599E+03  0.7546771E-02  0.1033778E+00
         21   -1    0    0  502  501  0.00000000000E+00  0.00000000000E+00  0.18876215594E+03  0.18876215594E+03  0.00000000000E+00 0. -1.
         21   -1    0    0  501  502 -0.00000000000E+00 -0.00000000000E+00 -0.24518097124E+03  0.24518097124E+03  0.00000000000E+00 0. -1.
      99926    2    1    2    0    0  0.35527136788E-14  0.00000000000E+00 -0.56418815299E+02  0.43394312718E+03  0.43025986904E+03 0.  0.
      99925    2    3    3    0    0  0.18822033866E+02  0.81422521919E+02 -0.64056556867E+02  0.28331199085E+03  0.26301814700E+03 0.  0.
         25    1    4    4    0    0 -0.60186897348E+00  0.64383174578E+02 -0.60462845950E+00  0.14068912215E+03  0.12509000000E+03 0.  0.
         25    1    4    4    0    0  0.19423902840E+02  0.17039347341E+02 -0.63451928407E+02  0.14262286871E+03  0.12509000000E+03 0.  0.
         25    1    3    3    0    0 -0.18822033866E+02 -0.81422521919E+02  0.76377415682E+01  0.15063113633E+03  0.12509000000E+03 0.  0.
<mgrwt>
<rscale>  2 0.43025987E+03</rscale>
<asrwt>0</asrwt>
<pdfrwt beam="1">  1       21 0.27759141E-01 0.43025987E+03</pdfrwt>
<pdfrwt beam="2">  1       21 0.36056025E-01 0.43025987E+03</pdfrwt>
<totfact> 0.85851385E+04</totfact>
</mgrwt>
</event>
<event>
 7    0  0.4712189E-002  0.4561855E+03  0.7546771E-02  0.1025893E+00
         21   -1    0    0  502  501  0.00000000000E+00  0.00000000000E+00  0.32852611685E+03  0.32852611685E+03  0.00000000000E+00 0. -1.
         21   -1    0    0  501  502 -0.00000000000E+00 -0.00000000000E+00 -0.15836274489E+03  0.15836274489E+03  0.00000000000E+00 0. -1.
      99926    2    1    2    0    0  0.00000000000E+00  0.00000000000E+00  0.17016337196E+03  0.48688886175E+03  0.45618547822E+03 0.  0.
      99925    2    3    3    0    0 -0.99172539704E+02 -0.54157476815E+02  0.88655975645E+02  0.29964787083E+03  0.26298429525E+03 0.  0.
         25    1    4    4    0    0 -0.83556241306E+02 -0.36786289125E+02  0.73746050705E+02  0.17152511368E+03  0.12509000000E+03 0.  0.
         25    1    4    4    0    0 -0.15616298398E+02 -0.17371187690E+02  0.14909924940E+02  0.12812275715E+03  0.12509000000E+03 0.  0.
         25    1    3    3    0    0  0.99172539704E+02  0.54157476815E+02  0.81507396316E+02  0.18724099092E+03  0.12509000000E+03 0.  0.
<mgrwt>
<rscale>  2 0.45618548E+03</rscale>
<asrwt>0</asrwt>
<pdfrwt beam="1">  1       21 0.48312664E-01 0.45618548E+03</pdfrwt>
<pdfrwt beam="2">  1       21 0.23288639E-01 0.45618548E+03</pdfrwt>
<totfact> 0.65582593E+04</totfact>
</mgrwt>
</event>
<event>
 7    0  0.4712189E-002  0.3973554E+03  0.7546771E-02  0.1044699E+00
         21   -1    0    0  502  501  0.00000000000E+00  0.00000000000E+00  0.15950465361E+02  0.15950465361E+02  0.00000000000E+00 0. -1.
         21   -1    0    0  501  502 -0.00000000000E+00 -0.00000000000E+00 -0.24747135849E+04  0.24747135849E+04  0.00000000000E+00 0. -1.
      99926    2    1    2    0    0  0.00000000000E+00  0.00000000000E+00 -0.24587631196E+04  0.24906640503E+04  0.39735542434E+03 0.  0.
      99925    2    3    3    0    0 -0.94930133383E+01 -0.10965891744E+02 -0.14122076026E+04  0.14365595363E+04  0.26298787156E+03 0.  0.
         25    1    3    3    0    0  0.94930133383E+01  0.10965891744E+02 -0.10465555170E+04  0.10541045139E+04  0.12509000000E+03 0.  0.
         25    1    4    4    0    0 -0.10689279348E+02  0.58071679808E+01 -0.91458835466E+03  0.92318327025E+03  0.12509000000E+03 0.  0.
         25    1    4    4    0    0  0.11962660101E+01 -0.16773059724E+02 -0.49761924791E+03  0.51337626608E+03  0.12509000000E+03 0.  0.
<mgrwt>
<rscale>  2 0.39735542E+03</rscale>
<asrwt>0</asrwt>
<pdfrwt beam="1">  1       21 0.23456562E-02 0.39735542E+03</pdfrwt>
<pdfrwt beam="2">  1       21 0.36392854E+00 0.39735542E+03</pdfrwt>
<totfact> 0.11636060E+04</totfact>
</mgrwt>
</event>
<event>
 7    0  0.4712189E-002  0.4425162E+03  0.7546771E-02  0.1029978E+00
         21   -1    0    0  502  501  0.00000000000E+00  0.00000000000E+00  0.11092581751E+03  0.11092581751E+03  0.00000000000E+00 0. -1.
         21   -1    0    0  501  502 -0.00000000000E+00 -0.00000000000E+00 -0.44133223391E+03  0.44133223391E+03  0.00000000000E+00 0. -1.
      99926    2    1    2    0    0  0.00000000000E+00 -0.14210854715E-13 -0.33040641640E+03  0.55225805141E+03  0.44251616394E+03 0.  0.
      99925    2    3    3    0    0  0.35104393673E+02  0.92430483961E+02 -0.23627633022E+03  0.36709948681E+03  0.26298253968E+03 0.  0.
         25    1    3    3    0    0 -0.35104393673E+02 -0.92430483961E+02 -0.94130086186E+02  0.18515856460E+03  0.12509000000E+03 0.  0.
         25    1    4    4    0    0 -0.19155960784E+02  0.25631713618E+02 -0.10788723446E+03  0.16825902364E+03  0.12509000000E+03 0.  0.
         25    1    4    4    0    0  0.54260354457E+02  0.66798770342E+02 -0.12838909576E+03  0.19884046317E+03  0.12509000000E+03 0.  0.
<mgrwt>
<rscale>  2 0.44251616E+03</rscale>
<asrwt>0</asrwt>
<pdfrwt beam="1">  1       21 0.16312620E-01 0.44251616E+03</pdfrwt>
<pdfrwt beam="2">  1       21 0.64901801E-01 0.44251616E+03</pdfrwt>
<totfact> 0.68208552E+04</totfact>
</mgrwt>
</event>
<event>
 7    0  0.4712189E-002  0.4591066E+03  0.7546771E-02  0.1025041E+00
         21   -1    0    0  502  501  0.00000000000E+00  0.00000000000E+00  0.12233100331E+04  0.12233100331E+04  0.00000000000E+00 0.  1.
         21   -1    0    0  501  502 -0.00000000000E+00 -0.00000000000E+00 -0.43075528974E+02  0.43075528974E+02  0.00000000000E+00 0.  1.
      99926    2    1    2    0    0  0.00000000000E+00  0.17763568394E-14  0.11802345042E+04  0.12663855621E+04  0.45910664024E+03 0.  0.
      99925    2    3    3    0    0  0.41715368920E+02 -0.13398575806E+02  0.10391118165E+04  0.10727807716E+04  0.26303141042E+03 0.  0.
         25    1    3    3    0    0 -0.41715368920E+02  0.13398575806E+02  0.14112268764E+03  0.19360479050E+03  0.12509000000E+03 0.  0.
         25    1    4    4    0    0  0.96724991379E+01  0.17406567382E+02  0.38392319988E+03  0.40427846509E+03  0.12509000000E+03 0.  0.
         25    1    4    4    0    0  0.32042869783E+02 -0.30805143189E+02  0.65518861664E+03  0.66850230653E+03  0.12509000000E+03 0.  0.
<mgrwt>
<rscale>  2 0.45910664E+03</rscale>
<asrwt>0</asrwt>
<pdfrwt beam="1">  1       21 0.17989851E+00 0.45910664E+03</pdfrwt>
<pdfrwt beam="2">  1       21 0.63346374E-02 0.45910664E+03</pdfrwt>
<totfact> 0.29163413E+04</totfact>
</mgrwt>
</event>
<event>
 7    0  0.4712189E-002  0.4520057E+03  0.7546771E-02  0.1027126E+00
         21   -1    0    0  502  501  0.00000000000E+00  0.00000000000E+00  0.47262203981E+02  0.47262203981E+02  0.00000000000E+00 0.  1.
         21   -1    0    0  501  502 -0.00000000000E+00 -0.00000000000E+00 -0.10807214489E+04  0.10807214489E+04  0.00000000000E+00 0.  1.
      99926    2    1    2    0    0  0.00000000000E+00  0.00000000000E+00 -0.10334592450E+04  0.11279836529E+04  0.45200565292E+03 0.  0.
      99925    2    3    3    0    0  0.10487499730E+03 -0.32529539376E+02 -0.67781923524E+03  0.73532061595E+03  0.26305998668E+03 0.  0.
         25    1    4    4    0    0  0.93224131107E+02 -0.28531635859E+02 -0.40469593599E+03  0.43466205444E+03  0.12509000000E+03 0.  0.
         25    1    3    3    0    0 -0.10487499730E+03  0.32529539376E+02 -0.35564000972E+03  0.39266303697E+03  0.12509000000E+03 0.  0.
         25    1    4    4    0    0  0.11650866189E+02 -0.39979035168E+01 -0.27312329925E+03  0.30065856151E+03  0.12509000000E+03 0.  0.
<mgrwt>
<rscale>  2 0.45200565E+03</rscale>
<asrwt>0</asrwt>
<pdfrwt beam="1">  1       21 0.69503244E-02 0.45200565E+03</pdfrwt>
<pdfrwt beam="2">  1       21 0.15892962E+00 0.45200565E+03</pdfrwt>
<totfact> 0.35343836E+04</totfact>
</mgrwt>
</event>
<event>
 7    0  0.4712189E-002  0.4658219E+03  0.7546771E-02  0.1023106E+00
         21   -1    0    0  502  501  0.00000000000E+00  0.00000000000E+00  0.98039417963E+02  0.98039417963E+02  0.00000000000E+00 0. -1.
         21   -1    0    0  501  502 -0.00000000000E+00 -0.00000000000E+00 -0.55332336241E+03  0.55332336241E+03  0.00000000000E+00 0. -1.
      99926    2    1    2    0    0  0.00000000000E+00  0.00000000000E+00 -0.45528394445E+03  0.65136278037E+03  0.46582185606E+03 0.  0.
      99925    2    3    3    0    0  0.98325209560E+02  0.65609900596E+02 -0.23649159450E+03  0.37299233225E+03  0.26310169091E+03 0.  0.
         25    1    4    4    0    0  0.23748126899E+02  0.11856040751E+02 -0.14273711124E+03  0.19164010608E+03  0.12509000000E+03 0.  0.
         25    1    3    3    0    0 -0.98325209560E+02 -0.65609900596E+02 -0.21879234995E+03  0.27837044812E+03  0.12509000000E+03 0.  0.
         25    1    4    4    0    0  0.74577082660E+02  0.53753859845E+02 -0.93754483265E+02  0.18135222618E+03  0.12509000000E+03 0.  0.
<mgrwt>
<rscale>  2 0.46582186E+03</rscale>
<asrwt>0</asrwt>
<pdfrwt beam="1">  1       21 0.14417561E-01 0.46582186E+03</pdfrwt>
<pdfrwt beam="2">  1       21 0.81371084E-01 0.46582186E+03</pdfrwt>
<totfact> 0.51117008E+04</totfact>
</mgrwt>
</event>
<event>
 7    0  0.4712189E-002  0.4550104E+03  0.7546771E-02  0.1026238E+00
         21   -1    0    0  502  501  0.00000000000E+00  0.00000000000E+00  0.72231608627E+02  0.72231608627E+02  0.00000000000E+00 0. -1.
         21   -1    0    0  501  502 -0.00000000000E+00 -0.00000000000E+00 -0.71656466956E+03  0.71656466956E+03  0.00000000000E+00 0. -1.
      99926    2    1    2    0    0  0.00000000000E+00  0.00000000000E+00 -0.64433306093E+03  0.78879627818E+03  0.45501041204E+03 0.  0.
      99925    2    3    3    0    0  0.64642072378E+02  0.92304172207E+02 -0.37952836569E+03  0.47500065608E+03  0.26245987348E+03 0.  0.
         25    1    4    4    0    0  0.40853519881E+01  0.67533812125E+02 -0.22018583926E+03  0.26211985387E+03  0.12509000000E+03 0.  0.
         25    1    3    3    0    0 -0.64642072378E+02 -0.92304172207E+02 -0.26480469524E+03  0.31379562210E+03  0.12509000000E+03 0.  0.
         25    1    4    4    0    0  0.60556720390E+02  0.24770360082E+02 -0.15934252643E+03  0.21288080222E+03  0.12509000000E+03 0.  0.
<mgrwt>
<rscale>  2 0.45501041E+03</rscale>
<asrwt>0</asrwt>
<pdfrwt beam="1">  1       21 0.10622296E-01 0.45501041E+03</pdfrwt>
<pdfrwt beam="2">  1       21 0.10537715E+00 0.45501041E+03</pdfrwt>
<totfact> 0.48307572E+04</totfact>
</mgrwt>
</event>
<event>
 7    0  0.4712189E-002  0.4603808E+03  0.7546771E-02  0.1024671E+00
         21   -1    0    0  502  501  0.00000000000E+00  0.00000000000E+00  0.13744238335E+03  0.13744238335E+03  0.00000000000E+00 0.  1.
         21   -1    0    0  501  502 -0.00000000000E+00 -0.00000000000E+00 -0.38552614142E+03  0.38552614142E+03  0.00000000000E+00 0.  1.
      99926    2    1    2    0    0 -0.88817841970E-15  0.00000000000E+00 -0.24808375807E+03  0.52296852477E+03  0.46038084981E+03 0.  0.
      99925    2    3    3    0    0  0.73643096385E+01 -0.45243892150E+02 -0.27903372111E+03  0.38619626462E+03  0.26303325732E+03 0.  0.
         25    1    4    4    0    0  0.13033935228E+01 -0.18378270893E+02 -0.19702374381E+03  0.23410536816E+03  0.12509000000E+03 0.  0.
         25    1    3    3    0    0 -0.73643096385E+01  0.45243892150E+02  0.30949963036E+02  0.13677226015E+03  0.12509000000E+03 0.  0.
         25    1    4    4    0    0  0.60609161157E+01 -0.26865621256E+02 -0.82009977297E+02  0.15209089646E+03  0.12509000000E+03 0.  0.
<mgrwt>
<rscale>  2 0.46038085E+03</rscale>
<asrwt>0</asrwt>
<pdfrwt beam="1">  1       21 0.20212115E-01 0.46038085E+03</pdfrwt>
<pdfrwt beam="2">  1       21 0.56695021E-01 0.46038085E+03</pdfrwt>
<totfact> 0.61037778E+04</totfact>
</mgrwt>
</event>
<event>
 7    0  0.4712189E-002  0.4610225E+03  0.7546771E-02  0.1024485E+00
         21   -1    0    0  502  501  0.00000000000E+00  0.00000000000E+00  0.90570352010E+03  0.90570352010E+03  0.00000000000E+00 0.  1.
         21   -1    0    0  501  502 -0.00000000000E+00 -0.00000000000E+00 -0.58667577855E+02  0.58667577855E+02  0.00000000000E+00 0.  1.
      99926    2    1    2    0    0 -0.14210854715E-13 -0.44408920985E-15  0.84703594224E+03  0.96437109795E+03  0.46102248005E+03 0.  0.
      99925    2    3    3    0    0  0.11663719920E+03 -0.37949929405E+01  0.48425134653E+03  0.56327409074E+03  0.26298231210E+03 0.  0.
         25    1    4    4    0    0  0.32942751920E+02 -0.20636247848E+02  0.17167775424E+03  0.21594406459E+03  0.12509000000E+03 0.  0.
         25    1    3    3    0    0 -0.11663719920E+03  0.37949929405E+01  0.36278459571E+03  0.40109700721E+03  0.12509000000E+03 0.  0.
         25    1    4    4    0    0  0.83694447276E+02  0.16841254907E+02  0.31257359229E+03  0.34733002616E+03  0.12509000000E+03 0.  0.
<mgrwt>
<rscale>  2 0.46102248E+03</rscale>
<asrwt>0</asrwt>
<pdfrwt beam="1">  1       21 0.13319169E+00 0.46102248E+03</pdfrwt>
<pdfrwt beam="2">  1       21 0.86275855E-02 0.46102248E+03</pdfrwt>
<totfact> 0.38709212E+04</totfact>
</mgrwt>
</event>
<event>
 7    0  0.4712189E-002  0.4557682E+03  0.7546771E-02  0.1026016E+00
         21   -1    0    0  502  501  0.00000000000E+00  0.00000000000E+00  0.56520009897E+02  0.56520009897E+02  0.00000000000E+00 0. -1.
         21   -1    0    0  501  502 -0.00000000000E+00 -0.00000000000E+00 -0.91881039674E+03  0.91881039674E+03  0.00000000000E+00 0. -1.
      99926    2    1    2    0    0  0.00000000000E+00  0.00000000000E+00 -0.86229038684E+03  0.97533040664E+03  0.45576824250E+03 0.  0.
      99925    2    3    3    0    0 -0.58165130535E+02  0.24463544468E+02 -0.74507699390E+03  0.79266093737E+03  0.26303989692E+03 0.  0.
         25    1    4    4    0    0  0.42462994093E+01  0.33518537726E+02 -0.38932300218E+03  0.41031869511E+03  0.12509000000E+03 0.  0.
         25    1    3    3    0    0  0.58165130535E+02 -0.24463544468E+02 -0.11721339294E+03  0.18266946927E+03  0.12509000000E+03 0.  0.
         25    1    4    4    0    0 -0.62411429944E+02 -0.90549932583E+01 -0.35575399172E+03  0.38234224226E+03  0.12509000000E+03 0.  0.
<mgrwt>
<rscale>  2 0.45576824E+03</rscale>
<asrwt>0</asrwt>
<pdfrwt beam="1">  1       21 0.83117665E-02 0.45576824E+03</pdfrwt>
<pdfrwt beam="2">  1       21 0.13511917E+00 0.45576824E+03</pdfrwt>
<totfact> 0.39891615E+04</totfact>
</mgrwt>
</event>
<event>
 7    0  0.4712189E-002  0.4605349E+03  0.7546771E-02  0.1024626E+00
         21   -1    0    0  502  501  0.00000000000E+00  0.00000000000E+00  0.85086195839E+03  0.85086195839E+03  0.00000000000E+00 0. -1.
         21   -1    0    0  501  502 -0.00000000000E+00 -0.00000000000E+00 -0.62316911895E+02  0.62316911895E+02  0.00000000000E+00 0. -1.
      99926    2    1    2    0    0  0.71054273576E-14  0.00000000000E+00  0.78854504649E+03  0.91317887028E+03  0.46053486164E+03 0.  0.
      99925    2    3    3    0    0 -0.53147150678E+02 -0.19957801612E+02  0.28783110216E+03  0.39396321603E+03  0.26293980061E+03 0.  0.
         25    1    4    4    0    0 -0.69409040802E+01 -0.97805209947E+01  0.19186990662E+03  0.22935867960E+03  0.12509000000E+03 0.  0.
         25    1    3    3    0    0  0.53147150678E+02  0.19957801612E+02  0.50071394433E+03  0.51921565425E+03  0.12509000000E+03 0.  0.
         25    1    4    4    0    0 -0.46206246597E+02 -0.10177280617E+02  0.95961195544E+02  0.16460453644E+03  0.12509000000E+03 0.  0.
<mgrwt>
<rscale>  2 0.46053486E+03</rscale>
<asrwt>0</asrwt>
<pdfrwt beam="1">  1       21 0.12512675E+00 0.46053486E+03</pdfrwt>
<pdfrwt beam="2">  1       21 0.91642523E-02 0.46053486E+03</pdfrwt>
<totfact> 0.40869121E+04</totfact>
</mgrwt>
</event>
<event>
 7    0  0.4712189E-002  0.4556276E+03  0.7546771E-02  0.1026057E+00
         21   -1    0    0  502  501  0.00000000000E+00  0.00000000000E+00  0.39670295541E+03  0.39670295541E+03  0.00000000000E+00 0.  1.
         21   -1    0    0  501  502 -0.00000000000E+00 -0.00000000000E+00 -0.13082616293E+03  0.13082616293E+03  0.00000000000E+00 0.  1.
      99926    2    1    2    0    0  0.00000000000E+00 -0.14210854715E-13  0.26587679248E+03  0.52752911833E+03  0.45562759125E+03 0.  0.
      99925    2    3    3    0    0 -0.32743104746E+02 -0.10844252190E+03  0.17013404788E+03  0.33350315948E+03  0.26352774365E+03 0.  0.
         25    1    4    4    0    0 -0.38508064043E+02 -0.91068014268E+02  0.10845340575E+03  0.19283646838E+03  0.12509000000E+03 0.  0.
         25    1    3    3    0    0  0.32743104746E+02  0.10844252190E+03  0.95742744604E+02  0.19402595885E+03  0.12509000000E+03 0.  0.
         25    1    4    4    0    0  0.57649592965E+01 -0.17374507634E+02  0.61680642128E+02  0.14066669110E+03  0.12509000000E+03 0.  0.
<mgrwt>
<rscale>  2 0.45562759E+03</rscale>
<asrwt>0</asrwt>
<pdfrwt beam="1">  1       21 0.58338670E-01 0.45562759E+03</pdfrwt>
<pdfrwt beam="2">  1       21 0.19239142E-01 0.45562759E+03</pdfrwt>
<totfact> 0.63059822E+04</totfact>
</mgrwt>
</event>
<event>
 7    0  0.4712189E-002  0.4459671E+03  0.7546771E-02  0.1028932E+00
         21   -1    0    0  502  501  0.00000000000E+00  0.00000000000E+00  0.31370358281E+02  0.31370358281E+02  0.00000000000E+00 0.  1.
         21   -1    0    0  501  502 -0.00000000000E+00 -0.00000000000E+00 -0.15849889409E+04  0.15849889409E+04  0.00000000000E+00 0.  1.
      99926    2    1    2    0    0  0.00000000000E+00  0.00000000000E+00 -0.15536185826E+04  0.16163592992E+04  0.44596713308E+03 0.  0.
      99925    2    3    3    0    0 -0.73699638702E+02 -0.69223496230E+02 -0.10817761741E+04  0.11178552413E+04  0.26293938544E+03 0.  0.
         25    1    4    4    0    0 -0.36853167786E+02 -0.53675571754E+02 -0.41606711994E+03  0.43931603588E+03  0.12509000000E+03 0.  0.
         25    1    3    3    0    0  0.73699638702E+02  0.69223496230E+02 -0.47184240853E+03  0.49850405792E+03  0.12509000000E+03 0.  0.
         25    1    4    4    0    0 -0.36846470916E+02 -0.15547924476E+02 -0.66570905415E+03  0.67853920539E+03  0.12509000000E+03 0.  0.
<mgrwt>
<rscale>  2 0.44596713E+03</rscale>
<asrwt>0</asrwt>
<pdfrwt beam="1">  1       21 0.46132869E-02 0.44596713E+03</pdfrwt>
<pdfrwt beam="2">  1       21 0.23308666E+00 0.44596713E+03</pdfrwt>
<totfact> 0.22607166E+04</totfact>
</mgrwt>
</event>
<event>
 7    0  0.4712189E-002  0.4536964E+03  0.7546771E-02  0.1026625E+00
         21   -1    0    0  502  501  0.00000000000E+00  0.00000000000E+00  0.65036936270E+02  0.65036936270E+02  0.00000000000E+00 0.  1.
         21   -1    0    0  501  502 -0.00000000000E+00 -0.00000000000E+00 -0.79124444616E+03  0.79124444616E+03  0.00000000000E+00 0.  1.
      99926    2    1    2    0    0  0.00000000000E+00 -0.14210854715E-13 -0.72620750989E+03  0.85628138243E+03  0.45369643869E+03 0.  0.
      99925    2    3    3    0    0  0.52939382640E+02 -0.91519217084E+02 -0.52771682120E+03  0.59894035009E+03  0.26280440304E+03 0.  0.
         25    1    3    3    0    0 -0.52939382640E+02  0.91519217084E+02 -0.19849068869E+03  0.25734103234E+03  0.12509000000E+03 0.  0.
         25    1    4    4    0    0 -0.13217609537E+02 -0.48626184497E+02 -0.27042344732E+03  0.30218464551E+03  0.12509000000E+03 0.  0.
         25    1    4    4    0    0  0.66156992178E+02 -0.42893032587E+02 -0.25729337388E+03  0.29675570458E+03  0.12509000000E+03 0.  0.
<mgrwt>
<rscale>  2 0.45369644E+03</rscale>
<asrwt>0</asrwt>
<pdfrwt beam="1">  1       21 0.95642554E-02 0.45369644E+03</pdfrwt>
<pdfrwt beam="2">  1       21 0.11635948E+00 0.45369644E+03</pdfrwt>
<totfact> 0.45624396E+04</totfact>
</mgrwt>
</event>
<event>
 7    0  0.4712189E-002  0.4531922E+03  0.7546771E-02  0.1026774E+00
         21   -1    0    0  502  501  0.00000000000E+00  0.00000000000E+00  0.11840371387E+04  0.11840371387E+04  0.00000000000E+00 0. -1.
         21   -1    0    0  501  502 -0.00000000000E+00 -0.00000000000E+00 -0.43365021325E+02  0.43365021325E+02  0.00000000000E+00 0. -1.
      99926    2    1    2    0    0  0.00000000000E+00  0.00000000000E+00  0.11406721174E+04  0.12274021600E+04  0.45319221427E+03 0.  0.
      99925    2    3    3    0    0 -0.70728361380E+02 -0.47566042991E+02  0.91338157156E+03  0.95432061567E+03  0.26305306059E+03 0.  0.
         25    1    4    4    0    0 -0.48287469828E+02 -0.16917925337E+02  0.59476821915E+03  0.60993002758E+03  0.12509000000E+03 0.  0.
         25    1    3    3    0    0  0.70728361380E+02  0.47566042991E+02  0.22729054583E+03  0.27308154436E+03  0.12509000000E+03 0.  0.
         25    1    4    4    0    0 -0.22440891552E+02 -0.30648117654E+02  0.31861335241E+03  0.34439058809E+03  0.12509000000E+03 0.  0.
<mgrwt>
<rscale>  2 0.45319221E+03</rscale>
<asrwt>0</asrwt>
<pdfrwt beam="1">  1       21 0.17412309E+00 0.45319221E+03</pdfrwt>
<pdfrwt beam="2">  1       21 0.63772098E-02 0.45319221E+03</pdfrwt>
<totfact> 0.31742554E+04</totfact>
</mgrwt>
</event>
<event>
 7    0  0.4712189E-002  0.4507193E+03  0.7546771E-02  0.1027508E+00
         21   -1    0    0  502  501  0.00000000000E+00  0.00000000000E+00  0.71362144076E+03  0.71362144076E+03  0.00000000000E+00 0. -1.
         21   -1    0    0  501  502 -0.00000000000E+00 -0.00000000000E+00 -0.71167959328E+02  0.71167959328E+02  0.00000000000E+00 0. -1.
      99926    2    1    2    0    0  0.00000000000E+00  0.00000000000E+00  0.64245348143E+03  0.78478940009E+03  0.45071934359E+03 0.  0.
      99925    2    3    3    0    0 -0.38790362014E+02  0.95204095318E+02  0.46950515149E+03  0.54787771849E+03  0.26299504783E+03 0.  0.
         25    1    4    4    0    0 -0.14981234208E+02  0.70350862660E+02  0.18050012132E+03  0.23108760926E+03  0.12509000000E+03 0.  0.
         25    1    3    3    0    0  0.38790362014E+02 -0.95204095318E+02  0.17294832994E+03  0.23691168160E+03  0.12509000000E+03 0.  0.
         25    1    4    4    0    0 -0.23809127806E+02  0.24853232658E+02  0.28900503017E+03  0.31679010923E+03  0.12509000000E+03 0.  0.
<mgrwt>
<rscale>  2 0.45071934E+03</rscale>
<asrwt>0</asrwt>
<pdfrwt beam="1">  1       21 0.10494433E+00 0.45071934E+03</pdfrwt>
<pdfrwt beam="2">  1       21 0.10465877E-01 0.45071934E+03</pdfrwt>
<totfact> 0.50174005E+04</totfact>
</mgrwt>
</event>
<event>
 7    0  0.4712189E-002  0.4662212E+03  0.7546771E-02  0.1022992E+00
         21   -1    0    0  502  501  0.00000000000E+00  0.00000000000E+00  0.15521073404E+03  0.15521073404E+03  0.00000000000E+00 0.  1.
         21   -1    0    0  501  502 -0.00000000000E+00 -0.00000000000E+00 -0.35010821794E+03  0.35010821794E+03  0.00000000000E+00 0.  1.
      99926    2    1    2    0    0 -0.71054273576E-14  0.00000000000E+00 -0.19489748390E+03  0.50531895197E+03  0.46622120715E+03 0.  0.
      99925    2    3    3    0    0  0.58402247027E+02  0.62325710865E+02 -0.21789447728E+03  0.35211423110E+03  0.26308004832E+03 0.  0.
         25    1    4    4    0    0 -0.68605100033E+01  0.49762401688E+02 -0.11202894203E+03  0.17527508429E+03  0.12509000000E+03 0.  0.
         25    1    3    3    0    0 -0.58402247027E+02 -0.62325710865E+02  0.22996993379E+02  0.15320472087E+03  0.12509000000E+03 0.  0.
         25    1    4    4    0    0  0.65262757030E+02  0.12563309177E+02 -0.10586553525E+03  0.17683914682E+03  0.12509000000E+03 0.  0.
<mgrwt>
<rscale>  2 0.46622121E+03</rscale>
<asrwt>0</asrwt>
<pdfrwt beam="1">  1       21 0.22825108E-01 0.46622121E+03</pdfrwt>
<pdfrwt beam="2">  1       21 0.51486502E-01 0.46622121E+03</pdfrwt>
<totfact> 0.59426137E+04</totfact>
</mgrwt>
</event>
<event>
 7    0  0.4712189E-002  0.4555130E+03  0.7546771E-02  0.1026091E+00
         21   -1    0    0  502  501  0.00000000000E+00  0.00000000000E+00  0.18126213565E+04  0.18126213565E+04  0.00000000000E+00 0.  1.
         21   -1    0    0  501  502 -0.00000000000E+00 -0.00000000000E+00 -0.28617682884E+02  0.28617682884E+02  0.00000000000E+00 0.  1.
      99926    2    1    2    0    0 -0.35527136788E-14  0.71054273576E-14  0.17840036736E+04  0.18412390394E+04  0.45551299946E+03 0.  0.
      99925    2    3    3    0    0 -0.16870620068E+02  0.53769536866E+02  0.72298927677E+03  0.77139099441E+03  0.26297298534E+03 0.  0.
         25    1    4    4    0    0 -0.25322586028E+02  0.15872226049E+02  0.45926283128E+03  0.47693083064E+03  0.12509000000E+03 0.  0.
         25    1    4    4    0    0  0.84519659604E+01  0.37897310817E+02  0.26372644549E+03  0.29446016377E+03  0.12509000000E+03 0.  0.
         25    1    3    3    0    0  0.16870620068E+02 -0.53769536866E+02  0.10610143969E+04  0.10698480450E+04  0.12509000000E+03 0.  0.
<mgrwt>
<rscale>  2 0.45551300E+03</rscale>
<asrwt>0</asrwt>
<pdfrwt beam="1">  1       21 0.26656189E+00 0.45551300E+03</pdfrwt>
<pdfrwt beam="2">  1       21 0.42084840E-02 0.45551300E+03</pdfrwt>
<totfact> 0.16414532E+04</totfact>
</mgrwt>
</event>
<event>
 7    0  0.4712189E-002  0.4553405E+03  0.7546771E-02  0.1026141E+00
         21   -1    0    0  502  501  0.00000000000E+00  0.00000000000E+00  0.24609070221E+03  0.24609070221E+03  0.00000000000E+00 0.  1.
         21   -1    0    0  501  502 -0.00000000000E+00 -0.00000000000E+00 -0.21062862445E+03  0.21062862445E+03  0.00000000000E+00 0.  1.
      99926    2    1    2    0    0 -0.71054273576E-14 -0.14210854715E-13  0.35462077753E+02  0.45671932666E+03  0.45534051477E+03 0.  0.
      99925    2    3    3    0    0 -0.33803720350E+02 -0.98595665172E+02 -0.23508611948E+02  0.28354644471E+03  0.26264450265E+03 0.  0.
         25    1    4    4    0    0  0.82053109371E+01 -0.14782415144E+02 -0.12166100822E+02  0.12681233786E+03  0.12509000000E+03 0.  0.
         25    1    3    3    0    0  0.33803720350E+02  0.98595665172E+02  0.58970689701E+02  0.17317288195E+03  0.12509000000E+03 0.  0.
         25    1    4    4    0    0 -0.42009031287E+02 -0.83813250028E+02 -0.11342511126E+02  0.15673410685E+03  0.12509000000E+03 0.  0.
<mgrwt>
<rscale>  2 0.45534051E+03</rscale>
<asrwt>0</asrwt>
<pdfrwt beam="1">  1       21 0.36189809E-01 0.45534051E+03</pdfrwt>
<pdfrwt beam="2">  1       21 0.30974798E-01 0.45534051E+03</pdfrwt>
<totfact> 0.68234480E+04</totfact>
</mgrwt>
</event>
<event>
 7    0  0.4712189E-002  0.4551564E+03  0.7546771E-02  0.1026195E+00
         21   -1    0    0  502  501  0.00000000000E+00  0.00000000000E+00  0.51808966370E+03  0.51808966370E+03  0.00000000000E+00 0.  1.
         21   -1    0    0  501  502 -0.00000000000E+00 -0.00000000000E+00 -0.99966926925E+02  0.99966926925E+02  0.00000000000E+00 0.  1.
      99926    2    1    2    0    0 -0.14210854715E-13 -0.35527136788E-14  0.41812273677E+03  0.61805659062E+03  0.45515637555E+03 0.  0.
      99925    2    3    3    0    0 -0.89598125883E+02 -0.19005478438E+02  0.17291731447E+03  0.32794930082E+03  0.26317544317E+03 0.  0.
         25    1    4    4    0    0 -0.70590607416E+02  0.20026700505E+02  0.75007789563E+02  0.16327210167E+03  0.12509000000E+03 0.  0.
         25    1    4    4    0    0 -0.19007518467E+02 -0.39032178944E+02  0.97909524911E+02  0.16467719915E+03  0.12509000000E+03 0.  0.
         25    1    3    3    0    0  0.89598125883E+02  0.19005478438E+02  0.24520542230E+03  0.29010728980E+03  0.12509000000E+03 0.  0.
<mgrwt>
<rscale>  2 0.45515638E+03</rscale>
<asrwt>0</asrwt>
<pdfrwt beam="1">  1       21 0.76189655E-01 0.45515638E+03</pdfrwt>
<pdfrwt beam="2">  1       21 0.14701019E-01 0.45515638E+03</pdfrwt>
<totfact> 0.57509330E+04</totfact>
</mgrwt>
</event>
<event>
 7    0  0.4712189E-002  0.4436016E+03  0.7546771E-02  0.1029647E+00
         21   -1    0    0  502  501  0.00000000000E+00  0.00000000000E+00  0.17653835485E+04  0.17653835485E+04  0.00000000000E+00 0.  1.
         21   -1    0    0  501  502 -0.00000000000E+00 -0.00000000000E+00 -0.27866800207E+02  0.27866800207E+02  0.00000000000E+00 0.  1.
      99926    2    1    2    0    0  0.00000000000E+00 -0.14210854715E-13  0.17375167483E+04  0.17932503487E+04  0.44360158086E+03 0.  0.
      99925    2    3    3    0    0  0.50700213344E+02  0.88547287951E+02  0.11172371059E+04  0.11523092620E+04  0.26303374407E+03 0.  0.
         25    1    3    3    0    0 -0.50700213344E+02 -0.88547287951E+02  0.62027964238E+03  0.64094108675E+03  0.12509000000E+03 0.  0.
         25    1    4    4    0    0  0.10285621672E+02  0.73875696538E+02  0.68383790275E+03  0.69917465478E+03  0.12509000000E+03 0.  0.
         25    1    4    4    0    0  0.40414591672E+02  0.14671591413E+02  0.43339920317E+03  0.45313460718E+03  0.12509000000E+03 0.  0.
<mgrwt>
<rscale>  2 0.44360158E+03</rscale>
<asrwt>0</asrwt>
<pdfrwt beam="1">  1       21 0.25961515E+00 0.44360158E+03</pdfrwt>
<pdfrwt beam="2">  1       21 0.40980600E-02 0.44360158E+03</pdfrwt>
<totfact> 0.19017122E+04</totfact>
</mgrwt>
</event>
<event>
 7    0  0.4712189E-002  0.4562323E+03  0.7546771E-02  0.1025880E+00
         21   -1    0    0  502  501  0.00000000000E+00  0.00000000000E+00  0.91665299886E+02  0.91665299886E+02  0.00000000000E+00 0. -1.
         21   -1    0    0  501  502 -0.00000000000E+00 -0.00000000000E+00 -0.56768469113E+03  0.56768469113E+03  0.00000000000E+00 0. -1.
      99926    2    1    2    0    0  0.00000000000E+00 -0.17763568394E-14 -0.47601939124E+03  0.65934999102E+03  0.45623234192E+03 0.  0.
      99925    2    3    3    0    0 -0.10326692355E+03  0.15546506491E+02 -0.36633366977E+03  0.46292133487E+03  0.26304002224E+03 0.  0.
         25    1    4    4    0    0 -0.15405201731E+02  0.34012279758E+01 -0.20230399912E+03  0.23837639302E+03  0.12509000000E+03 0.  0.
         25    1    3    3    0    0  0.10326692355E+03 -0.15546506491E+02 -0.10968572147E+03  0.19642865615E+03  0.12509000000E+03 0.  0.
         25    1    4    4    0    0 -0.87861721817E+02  0.12145278515E+02 -0.16402967066E+03  0.22454494184E+03  0.12509000000E+03 0.  0.
<mgrwt>
<rscale>  2 0.45623234E+03</rscale>
<asrwt>0</asrwt>
<pdfrwt beam="1">  1       21 0.13480192E-01 0.45623234E+03</pdfrwt>
<pdfrwt beam="2">  1       21 0.83483040E-01 0.45623234E+03</pdfrwt>
<totfact> 0.54632820E+04</totfact>
</mgrwt>
</event>
<event>
 7    0  0.4712189E-002  0.4623188E+03  0.7546771E-02  0.1024111E+00
         21   -1    0    0  502  501  0.00000000000E+00  0.00000000000E+00  0.38760964040E+03  0.38760964040E+03  0.00000000000E+00 0.  1.
         21   -1    0    0  501  502 -0.00000000000E+00 -0.00000000000E+00 -0.13785693991E+03  0.13785693991E+03  0.00000000000E+00 0.  1.
      99926    2    1    2    0    0  0.00000000000E+00  0.00000000000E+00  0.24975270050E+03  0.52546658031E+03  0.46231884627E+03 0.  0.
      99925    2    3    3    0    0 -0.54778594252E+02  0.42610509400E+02  0.26731641439E+03  0.38134044789E+03  0.26295650191E+03 0.  0.
         25    1    3    3    0    0  0.54778594252E+02 -0.42610509400E+02 -0.17563713900E+02  0.14412613242E+03  0.12509000000E+03 0.  0.
         25    1    4    4    0    0 -0.16600929781E+02 -0.17358966046E+02  0.13926771614E+03  0.18873242814E+03  0.12509000000E+03 0.  0.
         25    1    4    4    0    0 -0.38177664471E+02  0.59969475446E+02  0.12804869826E+03  0.19260801976E+03  0.12509000000E+03 0.  0.
<mgrwt>
<rscale>  2 0.46231885E+03</rscale>
<asrwt>0</asrwt>
<pdfrwt beam="1">  1       21 0.57001418E-01 0.46231885E+03</pdfrwt>
<pdfrwt beam="2">  1       21 0.20273079E-01 0.46231885E+03</pdfrwt>
<totfact> 0.59958492E+04</totfact>
</mgrwt>
</event>
<event>
 7    0  0.4712189E-002  0.4533848E+03  0.7546771E-02  0.1026717E+00
         21   -1    0    0  502  501  0.00000000000E+00  0.00000000000E+00  0.15138668340E+04  0.15138668340E+04  0.00000000000E+00 0.  1.
         21   -1    0    0  501  502 -0.00000000000E+00 -0.00000000000E+00 -0.33945810706E+02  0.33945810706E+02  0.00000000000E+00 0.  1.
      99926    2    1    2    0    0  0.00000000000E+00  0.00000000000E+00  0.14799210233E+04  0.15478126447E+04  0.45338476808E+03 0.  0.
      99925    2    3    3    0    0  0.17435566811E+02 -0.46063523780E+02  0.59066072014E+03  0.64844773430E+03  0.26301811836E+03 0.  0.
         25    1    4    4    0    0  0.19258543984E+02 -0.52573679279E+01  0.20525256843E+03  0.24119422958E+03  0.12509000000E+03 0.  0.
         25    1    3    3    0    0 -0.17435566811E+02  0.46063523780E+02  0.88926030314E+03  0.89936491039E+03  0.12509000000E+03 0.  0.
         25    1    4    4    0    0 -0.18229771724E+01 -0.40806155852E+02  0.38540815171E+03  0.40725350472E+03  0.12509000000E+03 0.  0.
<mgrwt>
<rscale>  2 0.45338477E+03</rscale>
<asrwt>0</asrwt>
<pdfrwt beam="1">  1       21 0.22262743E+00 0.45338477E+03</pdfrwt>
<pdfrwt beam="2">  1       21 0.49920320E-02 0.45338477E+03</pdfrwt>
<totfact> 0.22917438E+04</totfact>
</mgrwt>
</event>
<event>
 7    0  0.4712189E-002  0.4468829E+03  0.7546771E-02  0.1028656E+00
         21   -1    0    0  502  501  0.00000000000E+00  0.00000000000E+00  0.43244652876E+03  0.43244652876E+03  0.00000000000E+00 0.  1.
         21   -1    0    0  501  502 -0.00000000000E+00 -0.00000000000E+00 -0.11545028059E+03  0.11545028059E+03  0.00000000000E+00 0.  1.
      99926    2    1    2    0    0  0.00000000000E+00  0.88817841970E-15  0.31699624818E+03  0.54789680935E+03  0.44688286199E+03 0.  0.
      99925    2    3    3    0    0  0.70658559441E+02  0.76604957120E+01  0.10553603973E+03  0.29213472641E+03  0.26297058291E+03 0.  0.
         25    1    4    4    0    0  0.14269243592E+01  0.17611384592E+02  0.28820093164E+02  0.12957740100E+03  0.12509000000E+03 0.  0.
         25    1    4    4    0    0  0.69231635081E+02 -0.99508888804E+01  0.76715946570E+02  0.16255732541E+03  0.12509000000E+03 0.  0.
         25    1    3    3    0    0 -0.70658559441E+02 -0.76604957120E+01  0.21146020844E+03  0.25576208294E+03  0.12509000000E+03 0.  0.
<mgrwt>
<rscale>  2 0.44688286E+03</rscale>
<asrwt>0</asrwt>
<pdfrwt beam="1">  1       21 0.63595077E-01 0.44688286E+03</pdfrwt>
<pdfrwt beam="2">  1       21 0.16977983E-01 0.44688286E+03</pdfrwt>
<totfact> 0.66153088E+04</totfact>
</mgrwt>
</event>
<event>
 7    0  0.4712189E-002  0.4668401E+03  0.7546771E-02  0.1022816E+00
         21   -1    0    0  502  501  0.00000000000E+00  0.00000000000E+00  0.25126561973E+03  0.25126561973E+03  0.00000000000E+00 0.  1.
         21   -1    0    0  501  502 -0.00000000000E+00 -0.00000000000E+00 -0.21684189821E+03  0.21684189821E+03  0.00000000000E+00 0.  1.
      99926    2    1    2    0    0  0.00000000000E+00  0.00000000000E+00  0.34423721514E+02  0.46810751794E+03  0.46684007513E+03 0.  0.
      99925    2    3    3    0    0  0.41793613953E+02  0.96641529853E+02  0.87002756353E+02  0.29635666797E+03  0.26300475961E+03 0.  0.
         25    1    4    4    0    0  0.21806791288E+02  0.54495262100E+02  0.21964056042E+01  0.13819407381E+03  0.12509000000E+03 0.  0.
         25    1    3    3    0    0 -0.41793613953E+02 -0.96641529853E+02 -0.52579034839E+02  0.17175084997E+03  0.12509000000E+03 0.  0.
         25    1    4    4    0    0  0.19986822666E+02  0.42146267753E+02  0.84806350749E+02  0.15816259417E+03  0.12509000000E+03 0.  0.
<mgrwt>
<rscale>  2 0.46684008E+03</rscale>
<asrwt>0</asrwt>
<pdfrwt beam="1">  1       21 0.36950826E-01 0.46684008E+03</pdfrwt>
<pdfrwt beam="2">  1       21 0.31888514E-01 0.46684008E+03</pdfrwt>
<totfact> 0.61570695E+04</totfact>
</mgrwt>
</event>
<event>
 7    0  0.4712189E-002  0.4498025E+03  0.7546771E-02  0.1027781E+00
         21   -1    0    0  502  501  0.00000000000E+00  0.00000000000E+00  0.81998959884E+02  0.81998959884E+02  0.00000000000E+00 0.  1.
         21   -1    0    0  501  502 -0.00000000000E+00 -0.00000000000E+00 -0.61684400062E+03  0.61684400062E+03  0.00000000000E+00 0.  1.
      99926    2    1    2    0    0 -0.35527136788E-14 -0.14210854715E-13 -0.53484504073E+03  0.69884296050E+03  0.44980247425E+03 0.  0.
      99925    2    3    3    0    0  0.28607556511E+02  0.10166081207E+03 -0.37511474559E+03  0.47011913514E+03  0.26295934262E+03 0.  0.
         25    1    4    4    0    0  0.38084402552E+00  0.77797424317E+02 -0.24503536861E+03  0.28590632075E+03  0.12509000000E+03 0.  0.
         25    1    3    3    0    0 -0.28607556511E+02 -0.10166081207E+03 -0.15973029514E+03  0.22872382536E+03  0.12509000000E+03 0.  0.
         25    1    4    4    0    0  0.28226712485E+02  0.23863387748E+02 -0.13007937697E+03  0.18421281439E+03  0.12509000000E+03 0.  0.
<mgrwt>
<rscale>  2 0.44980247E+03</rscale>
<asrwt>0</asrwt>
<pdfrwt beam="1">  1       21 0.12058671E-01 0.44980247E+03</pdfrwt>
<pdfrwt beam="2">  1       21 0.90712353E-01 0.44980247E+03</pdfrwt>
<totfact> 0.55188875E+04</totfact>
</mgrwt>
</event>
<event>
 7    0  0.4712189E-002  0.4409632E+03  0.7546771E-02  0.1030452E+00
         21   -1    0    0  502  501  0.00000000000E+00  0.00000000000E+00  0.52186127311E+03  0.52186127311E+03  0.00000000000E+00 0.  1.
         21   -1    0    0  501  502 -0.00000000000E+00 -0.00000000000E+00 -0.93151467600E+02  0.93151467600E+02  0.00000000000E+00 0.  1.
      99926    2    1    2    0    0 -0.71054273576E-14  0.71054273576E-14  0.42870980551E+03  0.61501274071E+03  0.44096323418E+03 0.  0.
      99925    2    3    3    0    0 -0.61054154805E+02 -0.60077906187E+02  0.34171523313E+03  0.44021992520E+03  0.26398355509E+03 0.  0.
         25    1    3    3    0    0  0.61054154805E+02  0.60077906187E+02  0.86994572375E+02  0.17479281551E+03  0.12509000000E+03 0.  0.
         25    1    4    4    0    0 -0.16931396559E+02  0.83254227933E+01  0.13210933537E+03  0.18291082376E+03  0.12509000000E+03 0.  0.
         25    1    4    4    0    0 -0.44122758245E+02 -0.68403328980E+02  0.20960589776E+03  0.25730910144E+03  0.12509000000E+03 0.  0.
<mgrwt>
<rscale>  2 0.44096323E+03</rscale>
<asrwt>0</asrwt>
<pdfrwt beam="1">  1       21 0.76744304E-01 0.44096323E+03</pdfrwt>
<pdfrwt beam="2">  1       21 0.13698745E-01 0.44096323E+03</pdfrwt>
<totfact> 0.64635942E+04</totfact>
</mgrwt>
</event>
<event>
 7    0  0.4712189E-002  0.4562115E+03  0.7546771E-02  0.1025886E+00
         21   -1    0    0  502  501  0.00000000000E+00  0.00000000000E+00  0.11558700667E+03  0.11558700667E+03  0.00000000000E+00 0. -1.
         21   -1    0    0  501  502 -0.00000000000E+00 -0.00000000000E+00 -0.45015637351E+03  0.45015637351E+03  0.00000000000E+00 0. -1.
      99926    2    1    2    0    0  0.00000000000E+00 -0.71054273576E-14 -0.33456936684E+03  0.56574338018E+03  0.45621147617E+03 0.  0.
      99925    2    3    3    0    0  0.86736577479E+02  0.39032150503E+02 -0.13167823031E+03  0.30911317146E+03  0.26299249759E+03 0.  0.
         25    1    3    3    0    0 -0.86736577479E+02 -0.39032150503E+02 -0.20289113653E+03  0.25663020872E+03  0.12509000000E+03 0.  0.
         25    1    4    4    0    0  0.24327467877E+02  0.28651453004E+02 -0.10225263297E+03  0.16587899355E+03  0.12509000000E+03 0.  0.
         25    1    4    4    0    0  0.62409109602E+02  0.10380697499E+02 -0.29425597340E+02  0.14323417791E+03  0.12509000000E+03 0.  0.
<mgrwt>
<rscale>  2 0.45621148E+03</rscale>
<asrwt>0</asrwt>
<pdfrwt beam="1">  1       21 0.16998090E-01 0.45621148E+03</pdfrwt>
<pdfrwt beam="2">  1       21 0.66199465E-01 0.45621148E+03</pdfrwt>
<totfact> 0.60258579E+04</totfact>
</mgrwt>
</event>
<event>
 7    0  0.4712189E-002  0.4540582E+03  0.7546771E-02  0.1026519E+00
         21   -1    0    0  502  501  0.00000000000E+00  0.00000000000E+00  0.36191792326E+03  0.36191792326E+03  0.00000000000E+00 0. -1.
         21   -1    0    0  501  502 -0.00000000000E+00 -0.00000000000E+00 -0.14241407954E+03  0.14241407954E+03  0.00000000000E+00 0. -1.
      99926    2    1    2    0    0 -0.14210854715E-13  0.88817841970E-15  0.21950384372E+03  0.50433200279E+03  0.45405818089E+03 0.  0.
      99925    2    3    3    0    0  0.10821763757E+03 -0.30436887483E+01  0.10505162460E+03  0.30316754350E+03  0.26297223138E+03 0.  0.
         25    1    3    3    0    0 -0.10821763757E+03  0.30436887483E+01  0.11445221912E+03  0.20116445930E+03  0.12509000000E+03 0.  0.
         25    1    4    4    0    0  0.42780429231E+02 -0.24031373959E+02  0.16931494583E+02  0.13543210723E+03  0.12509000000E+03 0.  0.
         25    1    4    4    0    0  0.65437208340E+02  0.20987685211E+02  0.88120130018E+02  0.16773543627E+03  0.12509000000E+03 0.  0.
<mgrwt>
<rscale>  2 0.45405818E+03</rscale>
<asrwt>0</asrwt>
<pdfrwt beam="1">  1       21 0.53223224E-01 0.45405818E+03</pdfrwt>
<pdfrwt beam="2">  1       21 0.20943247E-01 0.45405818E+03</pdfrwt>
<totfact> 0.65455331E+04</totfact>
</mgrwt>
</event>
<event>
 7    0  0.4712189E-002  0.4153800E+03  0.7546771E-02  0.1038581E+00
         21   -1    0    0  502  501  0.00000000000E+00  0.00000000000E+00  0.15621155712E+03  0.15621155712E+03  0.00000000000E+00 0. -1.
         21   -1    0    0  501  502 -0.00000000000E+00 -0.00000000000E+00 -0.27613281494E+03  0.27613281494E+03  0.00000000000E+00 0. -1.
      99926    2    1    2    0    0  0.00000000000E+00  0.00000000000E+00 -0.11992125781E+03  0.43234437206E+03  0.41538000430E+03 0.  0.
      99925    2    3    3    0    0  0.19201833830E+02  0.62559895779E+02 -0.53368811823E+02  0.27627007197E+03  0.26304842065E+03 0.  0.
         25    1    4    4    0    0 -0.25146678812E+02  0.23194861457E+02 -0.46141619954E+02  0.13764779056E+03  0.12509000000E+03 0.  0.
         25    1    3    3    0    0 -0.19201833830E+02 -0.62559895779E+02 -0.66552445990E+02  0.15607430009E+03  0.12509000000E+03 0.  0.
         25    1    4    4    0    0  0.44348512643E+02  0.39365034321E+02 -0.72271918688E+01  0.13862228141E+03  0.12509000000E+03 0.  0.
<mgrwt>
<rscale>  2 0.41538000E+03</rscale>
<asrwt>0</asrwt>
<pdfrwt beam="1">  1       21 0.22972288E-01 0.41538000E+03</pdfrwt>
<pdfrwt beam="2">  1       21 0.40607766E-01 0.41538000E+03</pdfrwt>
<totfact> 0.97591457E+04</totfact>
</mgrwt>
</event>
<event>
 7    0  0.4712189E-002  0.4525508E+03  0.7546771E-02  0.1026964E+00
         21   -1    0    0  502  501  0.00000000000E+00  0.00000000000E+00  0.83480210524E+02  0.83480210524E+02  0.00000000000E+00 0. -1.
         21   -1    0    0  501  502 -0.00000000000E+00 -0.00000000000E+00 -0.61332564245E+03  0.61332564245E+03  0.00000000000E+00 0. -1.
      99926    2    1    2    0    0  0.00000000000E+00  0.00000000000E+00 -0.52984543193E+03  0.69680585298E+03  0.45255078721E+03 0.  0.
      99925    2    3    3    0    0 -0.19290047498E+02  0.80751776994E+02 -0.22112150205E+03  0.35351162291E+03  0.26302622196E+03 0.  0.
         25    1    4    4    0    0  0.92945892065E+01  0.70227586806E+01 -0.12387077988E+03  0.17642898497E+03  0.12509000000E+03 0.  0.
         25    1    4    4    0    0 -0.28584636705E+02  0.73729018313E+02 -0.97250722166E+02  0.17708263794E+03  0.12509000000E+03 0.  0.
         25    1    3    3    0    0  0.19290047498E+02 -0.80751776994E+02 -0.30872392988E+03  0.34329423007E+03  0.12509000000E+03 0.  0.
<mgrwt>
<rscale>  2 0.45255079E+03</rscale>
<asrwt>0</asrwt>
<pdfrwt beam="1">  1       21 0.12276502E-01 0.45255079E+03</pdfrwt>
<pdfrwt beam="2">  1       21 0.90194945E-01 0.45255079E+03</pdfrwt>
<totfact> 0.54112306E+04</totfact>
</mgrwt>
</event>
<event>
 7    0  0.4712189E-002  0.4552729E+03  0.7546771E-02  0.1026161E+00
         21   -1    0    0  502  501  0.00000000000E+00  0.00000000000E+00  0.20904394932E+04  0.20904394932E+04  0.00000000000E+00 0.  1.
         21   -1    0    0  501  502 -0.00000000000E+00 -0.00000000000E+00 -0.24788261269E+02  0.24788261269E+02  0.00000000000E+00 0.  1.
      99926    2    1    2    0    0 -0.88817841970E-15 -0.14210854715E-13  0.20656512319E+04  0.21152277545E+04  0.45527293056E+03 0.  0.
      99925    2    3    3    0    0  0.73048686458E+01  0.10634798222E+03  0.14758458935E+04  0.15029524081E+04  0.26340384438E+03 0.  0.
         25    1    4    4    0    0  0.24661831912E+01  0.18153622521E+02  0.53560896525E+03  0.55032727338E+03  0.12509000000E+03 0.  0.
         25    1    3    3    0    0 -0.73048686458E+01 -0.10634798222E+03  0.58980533845E+03  0.61227534639E+03  0.12509000000E+03 0.  0.
         25    1    4    4    0    0  0.48386854546E+01  0.88194359696E+02  0.94023692822E+03  0.95262513469E+03  0.12509000000E+03 0.  0.
<mgrwt>
<rscale>  2 0.45527293E+03</rscale>
<asrwt>0</asrwt>
<pdfrwt beam="1">  1       21 0.30741745E+00 0.45527293E+03</pdfrwt>
<pdfrwt beam="2">  1       21 0.36453340E-02 0.45527293E+03</pdfrwt>
<totfact> 0.11892958E+04</totfact>
</mgrwt>
</event>
<event>
 7    0  0.4712189E-002  0.4470924E+03  0.7546771E-02  0.1028593E+00
         21   -1    0    0  502  501  0.00000000000E+00  0.00000000000E+00  0.35297349573E+03  0.35297349573E+03  0.00000000000E+00 0.  1.
         21   -1    0    0  501  502 -0.00000000000E+00 -0.00000000000E+00 -0.14157692004E+03  0.14157692004E+03  0.00000000000E+00 0.  1.
      99926    2    1    2    0    0 -0.14210854715E-13  0.00000000000E+00  0.21139657569E+03  0.49455041577E+03  0.44709238589E+03 0.  0.
      99925    2    3    3    0    0  0.85527704654E+02 -0.58437762705E+02  0.11093682207E+03  0.30358018099E+03  0.26291441084E+03 0.  0.
         25    1    4    4    0    0  0.77033291239E+02 -0.16033913389E+02  0.38553155738E+02  0.15272546695E+03  0.12509000000E+03 0.  0.
         25    1    4    4    0    0  0.84944134158E+01 -0.42403849316E+02  0.72383666334E+02  0.15085471404E+03  0.12509000000E+03 0.  0.
         25    1    3    3    0    0 -0.85527704654E+02  0.58437762705E+02  0.10045975362E+03  0.19097023478E+03  0.12509000000E+03 0.  0.
<mgrwt>
<rscale>  2 0.44709239E+03</rscale>
<asrwt>0</asrwt>
<pdfrwt beam="1">  1       21 0.51907867E-01 0.44709239E+03</pdfrwt>
<pdfrwt beam="2">  1       21 0.20820135E-01 0.44709239E+03</pdfrwt>
<totfact> 0.69943680E+04</totfact>
</mgrwt>
</event>
<event>
 7    0  0.4712189E-002  0.4563116E+03  0.7546771E-02  0.1025856E+00
         21   -1    0    0  502  501  0.00000000000E+00  0.00000000000E+00  0.15468797869E+03  0.15468797869E+03  0.00000000000E+00 0.  1.
         21   -1    0    0  501  502 -0.00000000000E+00 -0.00000000000E+00 -0.33651660115E+03  0.33651660115E+03  0.00000000000E+00 0.  1.
      99926    2    1    2    0    0 -0.71054273576E-14  0.71054273576E-14 -0.18182862246E+03  0.49120457984E+03  0.45631161646E+03 0.  0.
      99925    2    3    3    0    0 -0.53940287682E+02  0.38446948899E+02 -0.21466442119E+03  0.34590000217E+03  0.26301763299E+03 0.  0.
         25    1    3    3    0    0  0.53940287682E+02 -0.38446948899E+02  0.32835798728E+02  0.14530457767E+03  0.12509000000E+03 0.  0.
         25    1    4    4    0    0  0.25883508022E-02 -0.90794765144E+01 -0.11823268226E+03  0.17236273424E+03  0.12509000000E+03 0.  0.
         25    1    4    4    0    0 -0.53942876033E+02  0.47526425414E+02 -0.96431738934E+02  0.17353726793E+03  0.12509000000E+03 0.  0.
<mgrwt>
<rscale>  2 0.45631162E+03</rscale>
<asrwt>0</asrwt>
<pdfrwt beam="1">  1       21 0.22748232E-01 0.45631162E+03</pdfrwt>
<pdfrwt beam="2">  1       21 0.49487735E-01 0.45631162E+03</pdfrwt>
<totfact> 0.65211424E+04</totfact>
</mgrwt>
</event>
<event>
 7    0  0.4712189E-002  0.4601728E+03  0.7546771E-02  0.1024731E+00
         21   -1    0    0  502  501  0.00000000000E+00  0.00000000000E+00  0.49868997532E+02  0.49868997532E+02  0.00000000000E+00 0.  1.
         21   -1    0    0  501  502 -0.00000000000E+00 -0.00000000000E+00 -0.10615762063E+04  0.10615762063E+04  0.00000000000E+00 0.  1.
      99926    2    1    2    0    0  0.71054273576E-14 -0.14210854715E-13 -0.10117072088E+04  0.11114452039E+04  0.46017275545E+03 0.  0.
      99925    2    3    3    0    0  0.56515637031E+02 -0.10213913732E+03 -0.68166039942E+03  0.73968610837E+03  0.26238943991E+03 0.  0.
         25    1    3    3    0    0 -0.56515637031E+02  0.10213913732E+03 -0.33004680939E+03  0.37175909550E+03  0.12509000000E+03 0.  0.
         25    1    4    4    0    0  0.61257434214E+02 -0.69170485455E+02 -0.41725005918E+03  0.44528883805E+03  0.12509000000E+03 0.  0.
         25    1    4    4    0    0 -0.47417971832E+01 -0.32968651867E+02 -0.26441034024E+03  0.29439727032E+03  0.12509000000E+03 0.  0.
<mgrwt>
<rscale>  2 0.46017276E+03</rscale>
<asrwt>0</asrwt>
<pdfrwt beam="1">  1       21 0.73336766E-02 0.46017276E+03</pdfrwt>
<pdfrwt beam="2">  1       21 0.15611414E+00 0.46017276E+03</pdfrwt>
<totfact> 0.33715464E+04</totfact>
</mgrwt>
</event>
<event>
 7    0  0.4712189E-002  0.4523092E+03  0.7546771E-02  0.1027036E+00
         21   -1    0    0  502  501  0.00000000000E+00  0.00000000000E+00  0.37143565776E+03  0.37143565776E+03  0.00000000000E+00 0. -1.
         21   -1    0    0  501  502 -0.00000000000E+00 -0.00000000000E+00 -0.13769785751E+03  0.13769785751E+03  0.00000000000E+00 0. -1.
      99926    2    1    2    0    0  0.00000000000E+00  0.00000000000E+00  0.23373780025E+03  0.50913351527E+03  0.45230916098E+03 0.  0.
      99925    2    3    3    0    0 -0.62198557759E+02 -0.89411474535E+02  0.12522492489E+03  0.31092749976E+03  0.26292880392E+03 0.  0.
         25    1    4    4    0    0 -0.27140929303E+02 -0.62673219812E+02  0.10440488153E+03  0.17667045569E+03  0.12509000000E+03 0.  0.
         25    1    3    3    0    0  0.62198557759E+02  0.89411474535E+02  0.10851287536E+03  0.19820601551E+03  0.12509000000E+03 0.  0.
         25    1    4    4    0    0 -0.35057628456E+02 -0.26738254723E+02  0.20820043362E+02  0.13425704408E+03  0.12509000000E+03 0.  0.
<mgrwt>
<rscale>  2 0.45230916E+03</rscale>
<asrwt>0</asrwt>
<pdfrwt beam="1">  1       21 0.54622891E-01 0.45230916E+03</pdfrwt>
<pdfrwt beam="2">  1       21 0.20249685E-01 0.45230916E+03</pdfrwt>
<totfact> 0.66032538E+04</totfact>
</mgrwt>
</event>
<event>
 7    0  0.4712189E-002  0.4675704E+03  0.7546771E-02  0.1022608E+00
         21   -1    0    0  502  501  0.00000000000E+00  0.00000000000E+00  0.50900410003E+02  0.50900410003E+02  0.00000000000E+00 0. -1.
         21   -1    0    0  501  502 -0.00000000000E+00 -0.00000000000E+00 -0.10737738653E+04  0.10737738653E+04  0.00000000000E+00 0. -1.
      99926    2    1    2    0    0  0.44408920985E-15 -0.14210854715E-13 -0.10228734553E+04  0.11246742753E+04  0.46757044387E+03 0.  0.
      99925    2    3    3    0    0  0.34301679361E+01  0.11630051147E+03 -0.74377393230E+03  0.79744098412E+03  0.26301118944E+03 0.  0.
         25    1    4    4    0    0 -0.19625612821E+02  0.68852000278E+02 -0.47408356003E+03  0.49550831740E+03  0.12509000000E+03 0.  0.
         25    1    4    4    0    0  0.23055780757E+02  0.47448511191E+02 -0.26969037227E+03  0.30193266672E+03  0.12509000000E+03 0.  0.
         25    1    3    3    0    0 -0.34301679361E+01 -0.11630051147E+03 -0.27909952302E+03  0.32723329120E+03  0.12509000000E+03 0.  0.
<mgrwt>
<rscale>  2 0.46757044E+03</rscale>
<asrwt>0</asrwt>
<pdfrwt beam="1">  1       21 0.74853546E-02 0.46757044E+03</pdfrwt>
<pdfrwt beam="2">  1       21 0.15790792E+00 0.46757044E+03</pdfrwt>
<totfact> 0.31443072E+04</totfact>
</mgrwt>
</event>
<event>
 7    0  0.4712189E-002  0.4489491E+03  0.7546771E-02  0.1028036E+00
         21   -1    0    0  502  501  0.00000000000E+00  0.00000000000E+00  0.29609483981E+04  0.29609483981E+04  0.00000000000E+00 0.  1.
         21   -1    0    0  501  502 -0.00000000000E+00 -0.00000000000E+00 -0.17017794912E+02  0.17017794912E+02  0.00000000000E+00 0.  1.
      99926    2    1    2    0    0  0.00000000000E+00  0.00000000000E+00  0.29439306032E+04  0.29779661930E+04  0.44894905093E+03 0.  0.
      99925    2    3    3    0    0 -0.45292905238E+02 -0.91456423750E+02  0.16371598034E+04  0.16612607757E+04  0.26282963738E+03 0.  0.
         25    1    3    3    0    0  0.45292905238E+02  0.91456423750E+02  0.13067707998E+04  0.13167054173E+04  0.12509000000E+03 0.  0.
         25    1    4    4    0    0  0.14481133865E+02 -0.30736026365E+02  0.68690817234E+03  0.69903129535E+03  0.12509000000E+03 0.  0.
         25    1    4    4    0    0 -0.59774039102E+02 -0.60720397385E+02  0.95025163109E+03  0.96222948038E+03  0.12509000000E+03 0.  0.
<mgrwt>
<rscale>  2 0.44894905E+03</rscale>
<asrwt>0</asrwt>
<pdfrwt beam="1">  1       21 0.43543323E+00 0.44894905E+03</pdfrwt>
<pdfrwt beam="2">  1       21 0.25026189E-02 0.44894905E+03</pdfrwt>
<totfact> 0.35353406E+03</totfact>
</mgrwt>
</event>
<event>
 7    0  0.4712189E-002  0.4549222E+03  0.7546771E-02  0.1026264E+00
         21   -1    0    0  502  501  0.00000000000E+00  0.00000000000E+00  0.47026427640E+03  0.47026427640E+03  0.00000000000E+00 0. -1.
         21   -1    0    0  501  502 -0.00000000000E+00 -0.00000000000E+00 -0.11002018133E+03  0.11002018133E+03  0.00000000000E+00 0. -1.
      99926    2    1    2    0    0  0.71054273576E-14  0.17763568394E-14  0.36024409507E+03  0.58028445772E+03  0.45492223933E+03 0.  0.
      99925    2    3    3    0    0  0.47140752687E+02  0.15975111206E+02  0.35624939464E+03  0.44559622337E+03  0.26299222109E+03 0.  0.
         25    1    3    3    0    0 -0.47140752687E+02 -0.15975111206E+02  0.39947004254E+01  0.13468823435E+03  0.12509000000E+03 0.  0.
         25    1    4    4    0    0  0.55068080110E+02  0.32935898711E+02  0.20225924287E+03  0.24632006881E+03  0.12509000000E+03 0.  0.
         25    1    4    4    0    0 -0.79273274230E+01 -0.16960787505E+02  0.15399015177E+03  0.19927615456E+03  0.12509000000E+03 0.  0.
<mgrwt>
<rscale>  2 0.45492224E+03</rscale>
<asrwt>0</asrwt>
<pdfrwt beam="1">  1       21 0.69156511E-01 0.45492224E+03</pdfrwt>
<pdfrwt beam="2">  1       21 0.16179439E-01 0.45492224E+03</pdfrwt>
<totfact> 0.59945365E+04</totfact>
</mgrwt>
</event>
<event>
 7    0  0.4712189E-002  0.4634594E+03  0.7546771E-02  0.1023783E+00
         21   -1    0    0  502  501  0.00000000000E+00  0.00000000000E+00  0.41889356049E+02  0.41889356049E+02  0.00000000000E+00 0.  1.
         21   -1    0    0  501  502 -0.00000000000E+00 -0.00000000000E+00 -0.12819165798E+04  0.12819165798E+04  0.00000000000E+00 0.  1.
      99926    2    1    2    0    0  0.00000000000E+00  0.00000000000E+00 -0.12400272237E+04  0.13238059358E+04  0.46345942664E+03 0.  0.
      99925    2    3    3    0    0 -0.74883033534E+02  0.57514867630E+02 -0.99038729990E+03  0.10290466639E+04  0.26297262975E+03 0.  0.
         25    1    3    3    0    0  0.74883033534E+02 -0.57514867630E+02 -0.24963992383E+03  0.29475927192E+03  0.12509000000E+03 0.  0.
         25    1    4    4    0    0 -0.36185391780E+01  0.10957963919E+02 -0.38193268722E+03  0.40206125960E+03  0.12509000000E+03 0.  0.
         25    1    4    4    0    0 -0.71264494356E+02  0.46556903712E+02 -0.60845461268E+03  0.62698540432E+03  0.12509000000E+03 0.  0.
<mgrwt>
<rscale>  2 0.46345943E+03</rscale>
<asrwt>0</asrwt>
<pdfrwt beam="1">  1       21 0.61601997E-02 0.46345943E+03</pdfrwt>
<pdfrwt beam="2">  1       21 0.18851713E+00 0.46345943E+03</pdfrwt>
<totfact> 0.26635384E+04</totfact>
</mgrwt>
</event>
<event>
 7    0  0.4712189E-002  0.4637551E+03  0.7546771E-02  0.1023698E+00
         21   -1    0    0  502  501  0.00000000000E+00  0.00000000000E+00  0.42705165541E+02  0.42705165541E+02  0.00000000000E+00 0.  1.
         21   -1    0    0  501  502 -0.00000000000E+00 -0.00000000000E+00 -0.12590327325E+04  0.12590327325E+04  0.00000000000E+00 0.  1.
      99926    2    1    2    0    0  0.00000000000E+00  0.17763568394E-14 -0.12163275670E+04  0.13017378981E+04  0.46375511324E+03 0.  0.
      99925    2    3    3    0    0  0.59761335885E+02  0.88854929027E+01 -0.10546496291E+04  0.10885768487E+04  0.26279906049E+03 0.  0.
         25    1    4    4    0    0  0.33588311329E+01  0.28924483887E+02 -0.58206854630E+03  0.59606980146E+03  0.12509000000E+03 0.  0.
         25    1    3    3    0    0 -0.59761335885E+02 -0.88854929027E+01 -0.16167793786E+03  0.21316104931E+03  0.12509000000E+03 0.  0.
         25    1    4    4    0    0  0.56402504752E+02 -0.20038990984E+02 -0.47258108281E+03  0.49250704729E+03  0.12509000000E+03 0.  0.
<mgrwt>
<rscale>  2 0.46375511E+03</rscale>
<asrwt>0</asrwt>
<pdfrwt beam="1">  1       21 0.62801720E-02 0.46375511E+03</pdfrwt>
<pdfrwt beam="2">  1       21 0.18515185E+00 0.46375511E+03</pdfrwt>
<totfact> 0.27166277E+04</totfact>
</mgrwt>
</event>
<event>
 7    0  0.4712189E-002  0.4558775E+03  0.7546771E-02  0.1025984E+00
         21   -1    0    0  502  501  0.00000000000E+00  0.00000000000E+00  0.16185272833E+04  0.16185272833E+04  0.00000000000E+00 0.  1.
         21   -1    0    0  501  502 -0.00000000000E+00 -0.00000000000E+00 -0.32100829313E+02  0.32100829313E+02  0.00000000000E+00 0.  1.
      99926    2    1    2    0    0 -0.14210854715E-13  0.17763568394E-14  0.15864264540E+04  0.16506281126E+04  0.45587747503E+03 0.  0.
      99925    2    3    3    0    0 -0.87724350469E+02  0.13513651558E+02  0.12564804050E+04  0.12867736310E+04  0.26299275439E+03 0.  0.
         25    1    4    4    0    0 -0.63700612315E+02  0.95079478602E+01  0.49113233863E+03  0.51088810050E+03  0.12509000000E+03 0.  0.
         25    1    4    4    0    0 -0.24023738154E+02  0.40057036982E+01  0.76534806634E+03  0.77588553048E+03  0.12509000000E+03 0.  0.
         25    1    3    3    0    0  0.87724350469E+02 -0.13513651558E+02  0.32994604900E+03  0.36385448162E+03  0.12509000000E+03 0.  0.
<mgrwt>
<rscale>  2 0.45587748E+03</rscale>
<asrwt>0</asrwt>
<pdfrwt beam="1">  1       21 0.23801866E+00 0.45587748E+03</pdfrwt>
<pdfrwt beam="2">  1       21 0.47207113E-02 0.45587748E+03</pdfrwt>
<totfact> 0.20171739E+04</totfact>
</mgrwt>
</event>
<event>
 7    0  0.4712189E-002  0.4511724E+03  0.7546771E-02  0.1027373E+00
         21   -1    0    0  502  501  0.00000000000E+00  0.00000000000E+00  0.89323601621E+03  0.89323601621E+03  0.00000000000E+00 0.  1.
         21   -1    0    0  501  502 -0.00000000000E+00 -0.00000000000E+00 -0.56971654591E+02  0.56971654591E+02  0.00000000000E+00 0.  1.
      99926    2    1    2    0    0  0.00000000000E+00  0.00000000000E+00  0.83626436162E+03  0.95020767081E+03  0.45117240068E+03 0.  0.
      99925    2    3    3    0    0 -0.90101908151E+02  0.29071141397E+02  0.41302213577E+03  0.49882648493E+03  0.26320541848E+03 0.  0.
         25    1    3    3    0    0  0.90101908151E+02 -0.29071141397E+02  0.42324222586E+03  0.45138118588E+03  0.12509000000E+03 0.  0.
         25    1    4    4    0    0 -0.72078990802E+02 -0.51821068204E+01  0.17277540700E+03  0.22521341992E+03  0.12509000000E+03 0.  0.
         25    1    4    4    0    0 -0.18022917350E+02  0.34253248217E+02  0.24024672877E+03  0.27361306501E+03  0.12509000000E+03 0.  0.
<mgrwt>
<rscale>  2 0.45117240E+03</rscale>
<asrwt>0</asrwt>
<pdfrwt beam="1">  1       21 0.13135823E+00 0.45117240E+03</pdfrwt>
<pdfrwt beam="2">  1       21 0.83781851E-02 0.45117240E+03</pdfrwt>
<totfact> 0.42386922E+04</totfact>
</mgrwt>
</event>
<event>
 7    0  0.4712189E-002  0.4587842E+03  0.7546771E-02  0.1025134E+00
         21   -1    0    0  502  501  0.00000000000E+00  0.00000000000E+00  0.28124023628E+03  0.28124023628E+03  0.00000000000E+00 0. -1.
         21   -1    0    0  501  502 -0.00000000000E+00 -0.00000000000E+00 -0.18710241797E+03  0.18710241797E+03  0.00000000000E+00 0. -1.
      99926    2    1    2    0    0  0.00000000000E+00  0.00000000000E+00  0.94137818306E+02  0.46834265426E+03  0.45878416817E+03 0.  0.
      99925    2    3    3    0    0  0.12506592272E+02  0.11189266739E+03  0.27758865261E+02  0.28742815132E+03  0.26299810590E+03 0.  0.
         25    1    3    3    0    0 -0.12506592272E+02 -0.11189266739E+03  0.66378953046E+02  0.18091450294E+03  0.12509000000E+03 0.  0.
         25    1    4    4    0    0 -0.65611581927E+00  0.14427175771E+02  0.24435624822E+02  0.12826995653E+03  0.12509000000E+03 0.  0.
         25    1    4    4    0    0  0.13162708092E+02  0.97465491616E+02  0.33232404391E+01  0.15915819479E+03  0.12509000000E+03 0.  0.
<mgrwt>
<rscale>  2 0.45878417E+03</rscale>
<asrwt>0</asrwt>
<pdfrwt beam="1">  1       21 0.41358858E-01 0.45878417E+03</pdfrwt>
<pdfrwt beam="2">  1       21 0.27515061E-01 0.45878417E+03</pdfrwt>
<totfact> 0.65568202E+04</totfact>
</mgrwt>
</event>
<event>
 7    0  0.4712189E-002  0.4542976E+03  0.7546771E-02  0.1026448E+00
         21   -1    0    0  502  501  0.00000000000E+00  0.00000000000E+00  0.34064836544E+02  0.34064836544E+02  0.00000000000E+00 0. -1.
         21   -1    0    0  501  502 -0.00000000000E+00 -0.00000000000E+00 -0.15146580022E+04  0.15146580022E+04  0.00000000000E+00 0. -1.
      99926    2    1    2    0    0  0.00000000000E+00  0.00000000000E+00 -0.14805931656E+04  0.15487228387E+04  0.45429759966E+03 0.  0.
      99925    2    3    3    0    0 -0.29386141573E+02  0.10596290423E+03 -0.85101225362E+03  0.89748454496E+03  0.26299233875E+03 0.  0.
         25    1    4    4    0    0 -0.11263293490E+01  0.60147418690E+02 -0.54750464373E+03  0.56482548065E+03  0.12509000000E+03 0.  0.
         25    1    4    4    0    0 -0.28259812224E+02  0.45815485538E+02 -0.30350760989E+03  0.33265906431E+03  0.12509000000E+03 0.  0.
         25    1    3    3    0    0  0.29386141573E+02 -0.10596290423E+03 -0.62958091199E+03  0.65123829374E+03  0.12509000000E+03 0.  0.
<mgrwt>
<rscale>  2 0.45429760E+03</rscale>
<asrwt>0</asrwt>
<pdfrwt beam="1">  1       21 0.50095363E-02 0.45429760E+03</pdfrwt>
<pdfrwt beam="2">  1       21 0.22274376E+00 0.45429760E+03</pdfrwt>
<totfact> 0.22733666E+04</totfact>
</mgrwt>
</event>
<event>
 7    0  0.4712189E-002  0.4444956E+03  0.7546771E-02  0.1029376E+00
         21   -1    0    0  502  501  0.00000000000E+00  0.00000000000E+00  0.56725309843E+03  0.56725309843E+03  0.00000000000E+00 0. -1.
         21   -1    0    0  501  502 -0.00000000000E+00 -0.00000000000E+00 -0.87075935184E+02  0.87075935184E+02  0.00000000000E+00 0. -1.
      99926    2    1    2    0    0  0.14210854715E-13 -0.35527136788E-14  0.48017716324E+03  0.65432903361E+03  0.44449564241E+03 0.  0.
      99925    2    3    3    0    0  0.10029489877E+03 -0.21834318694E+02  0.31542313141E+03  0.42340219823E+03  0.26313849100E+03 0.  0.
         25    1    4    4    0    0  0.17886682061E+02 -0.21598007055E+02  0.10848159326E+03  0.16793502160E+03  0.12509000000E+03 0.  0.
         25    1    3    3    0    0 -0.10029489877E+03  0.21834318694E+02  0.16475403183E+03  0.23092683538E+03  0.12509000000E+03 0.  0.
         25    1    4    4    0    0  0.82408216709E+02 -0.23631163907E+00  0.20694153815E+03  0.25546717663E+03  0.12509000000E+03 0.  0.
<mgrwt>
<rscale>  2 0.44449564E+03</rscale>
<asrwt>0</asrwt>
<pdfrwt beam="1">  1       21 0.83419572E-01 0.44449564E+03</pdfrwt>
<pdfrwt beam="2">  1       21 0.12805285E-01 0.44449564E+03</pdfrwt>
<totfact> 0.60294112E+04</totfact>
</mgrwt>
</event>
<event>
 7    0  0.4712189E-002  0.4551317E+03  0.7546771E-02  0.1026203E+00
         21   -1    0    0  502  501  0.00000000000E+00  0.00000000000E+00  0.55969072843E+02  0.55969072843E+02  0.00000000000E+00 0.  1.
         21   -1    0    0  501  502 -0.00000000000E+00 -0.00000000000E+00 -0.92526501020E+03  0.92526501020E+03  0.00000000000E+00 0.  1.
      99926    2    1    2    0    0 -0.14210854715E-13  0.00000000000E+00 -0.86929593736E+03  0.98123408305E+03  0.45513173810E+03 0.  0.
      99925    2    3    3    0    0 -0.97425154013E+02 -0.52035443653E+02 -0.49234469819E+03  0.56899738788E+03  0.26297410053E+03 0.  0.
         25    1    4    4    0    0 -0.88578849063E+02 -0.18538160871E+02 -0.24320137925E+03  0.28806994789E+03  0.12509000000E+03 0.  0.
         25    1    3    3    0    0  0.97425154013E+02  0.52035443653E+02 -0.37695123917E+03  0.41223669517E+03  0.12509000000E+03 0.  0.
         25    1    4    4    0    0 -0.88463049497E+01 -0.33497282782E+02 -0.24914331894E+03  0.28092743999E+03  0.12509000000E+03 0.  0.
<mgrwt>
<rscale>  2 0.45513174E+03</rscale>
<asrwt>0</asrwt>
<pdfrwt beam="1">  1       21 0.82307460E-02 0.45513174E+03</pdfrwt>
<pdfrwt beam="2">  1       21 0.13606838E+00 0.45513174E+03</pdfrwt>
<totfact> 0.39860032E+04</totfact>
</mgrwt>
</event>
<event>
 7    0  0.4712189E-002  0.4582571E+03  0.7546771E-02  0.1025288E+00
         21   -1    0    0  502  501  0.00000000000E+00  0.00000000000E+00  0.11532373013E+04  0.11532373013E+04  0.00000000000E+00 0. -1.
         21   -1    0    0  501  502 -0.00000000000E+00 -0.00000000000E+00 -0.45523928044E+02  0.45523928044E+02  0.00000000000E+00 0. -1.
      99926    2    1    2    0    0  0.71054273576E-14  0.14210854715E-13  0.11077133733E+04  0.11987612294E+04  0.45825709781E+03 0.  0.
      99925    2    3    3    0    0  0.60543866544E+02 -0.78066905603E+02  0.53695093002E+03  0.60615910630E+03  0.26334874098E+03 0.  0.
         25    1    4    4    0    0  0.69521351825E+02 -0.26423674087E+02  0.26941135223E+03  0.30620485581E+03  0.12509000000E+03 0.  0.
         25    1    4    4    0    0 -0.89774852816E+01 -0.51643231516E+02  0.26753957778E+03  0.29995425048E+03  0.12509000000E+03 0.  0.
         25    1    3    3    0    0 -0.60543866544E+02  0.78066905603E+02  0.57076244326E+03  0.59260212306E+03  0.12509000000E+03 0.  0.
<mgrwt>
<rscale>  2 0.45825710E+03</rscale>
<asrwt>0</asrwt>
<pdfrwt beam="1">  1       21 0.16959370E+00 0.45825710E+03</pdfrwt>
<pdfrwt beam="2">  1       21 0.66946960E-02 0.45825710E+03</pdfrwt>
<totfact> 0.31391152E+04</totfact>
</mgrwt>
</event>
<event>
 7    0  0.4712189E-002  0.4643676E+03  0.7546771E-02  0.1023522E+00
         21   -1    0    0  502  501  0.00000000000E+00  0.00000000000E+00  0.93356641955E+02  0.93356641955E+02  0.00000000000E+00 0.  1.
         21   -1    0    0  501  502 -0.00000000000E+00 -0.00000000000E+00 -0.57745568096E+03  0.57745568096E+03  0.00000000000E+00 0.  1.
      99926    2    1    2    0    0  0.00000000000E+00 -0.14210854715E-13 -0.48409903901E+03  0.67081232292E+03  0.46436762701E+03 0.  0.
      99925    2    3    3    0    0  0.66043506494E+02 -0.76685291791E+02 -0.20438376769E+03  0.34811971403E+03  0.26300614455E+03 0.  0.
         25    1    3    3    0    0 -0.66043506494E+02  0.76685291791E+02 -0.27971527131E+03  0.32269260889E+03  0.12509000000E+03 0.  0.
         25    1    4    4    0    0  0.57439518325E+02 -0.44955464914E+02 -0.14790753210E+03  0.20698898097E+03  0.12509000000E+03 0.  0.
         25    1    4    4    0    0  0.86039881687E+01 -0.31729826877E+02 -0.56476235591E+02  0.14113073305E+03  0.12509000000E+03 0.  0.
<mgrwt>
<rscale>  2 0.46436763E+03</rscale>
<asrwt>0</asrwt>
<pdfrwt beam="1">  1       21 0.13728918E-01 0.46436763E+03</pdfrwt>
<pdfrwt beam="2">  1       21 0.84919951E-01 0.46436763E+03</pdfrwt>
<totfact> 0.50669712E+04</totfact>
</mgrwt>
</event>
<event>
 7    0  0.4712189E-002  0.4553222E+03  0.7546771E-02  0.1026147E+00
         21   -1    0    0  502  501  0.00000000000E+00  0.00000000000E+00  0.12497825276E+03  0.12497825276E+03  0.00000000000E+00 0.  1.
         21   -1    0    0  501  502 -0.00000000000E+00 -0.00000000000E+00 -0.41470879105E+03  0.41470879105E+03  0.00000000000E+00 0.  1.
      99926    2    1    2    0    0  0.00000000000E+00 -0.71054273576E-14 -0.28973053830E+03  0.53968704381E+03  0.45532221606E+03 0.  0.
      99925    2    3    3    0    0  0.17771430587E+02  0.48977690800E+02 -0.63456538151E+02  0.27594082264E+03  0.26344253154E+03 0.  0.
         25    1    4    4    0    0 -0.32559080112E+01  0.48791376784E+02 -0.64721946865E+02  0.14908936210E+03  0.12509000000E+03 0.  0.
         25    1    4    4    0    0  0.21027338598E+02  0.18631401545E+00  0.12654087145E+01  0.12685146054E+03  0.12509000000E+03 0.  0.
         25    1    3    3    0    0 -0.17771430587E+02 -0.48977690800E+02 -0.22627400014E+03  0.26374622117E+03  0.12509000000E+03 0.  0.
<mgrwt>
<rscale>  2 0.45532222E+03</rscale>
<asrwt>0</asrwt>
<pdfrwt beam="1">  1       21 0.18379155E-01 0.45532222E+03</pdfrwt>
<pdfrwt beam="2">  1       21 0.60986586E-01 0.45532222E+03</pdfrwt>
<totfact> 0.62393931E+04</totfact>
</mgrwt>
</event>
<event>
 7    0  0.4712189E-002  0.4674253E+03  0.7546771E-02  0.1022649E+00
         21   -1    0    0  502  501  0.00000000000E+00  0.00000000000E+00  0.51681013652E+03  0.51681013652E+03  0.00000000000E+00 0. -1.
         21   -1    0    0  501  502 -0.00000000000E+00 -0.00000000000E+00 -0.10568986205E+03  0.10568986205E+03  0.00000000000E+00 0. -1.
      99926    2    1    2    0    0  0.00000000000E+00  0.00000000000E+00  0.41112027446E+03  0.62249999857E+03  0.46742525407E+03 0.  0.
      99925    2    3    3    0    0 -0.18706359727E+02  0.86693845798E+02  0.13968322616E+03  0.31074475790E+03  0.26303070182E+03 0.  0.
         25    1    4    4    0    0 -0.15721392533E+02  0.77285104439E+02  0.10230683982E+03  0.17981753842E+03  0.12509000000E+03 0.  0.
         25    1    3    3    0    0  0.18706359727E+02 -0.86693845798E+02  0.27143704831E+03  0.31175524067E+03  0.12509000000E+03 0.  0.
         25    1    4    4    0    0 -0.29849671945E+01  0.94087413587E+01  0.37376386340E+02  0.13092721947E+03  0.12509000000E+03 0.  0.
<mgrwt>
<rscale>  2 0.46742525E+03</rscale>
<asrwt>0</asrwt>
<pdfrwt beam="1">  1       21 0.76001490E-01 0.46742525E+03</pdfrwt>
<pdfrwt beam="2">  1       21 0.15542627E-01 0.46742525E+03</pdfrwt>
<totfact> 0.52019312E+04</totfact>
</mgrwt>
</event>
<event>
 7    0  0.4712189E-002  0.5040730E+03  0.7546771E-02  0.1012721E+00
         21   -1    0    0  502  501  0.00000000000E+00  0.00000000000E+00  0.17413925598E+03  0.17413925598E+03  0.00000000000E+00 0. -1.
         21   -1    0    0  501  502 -0.00000000000E+00 -0.00000000000E+00 -0.36477937576E+03  0.36477937576E+03  0.00000000000E+00 0. -1.
      99926    2    1    2    0    0 -0.28421709430E-13  0.00000000000E+00 -0.19064011978E+03  0.53891863174E+03  0.50407304665E+03 0.  0.
      99925    2    3    3    0    0 -0.15252472101E+03 -0.91865944102E+01 -0.14101392729E+03  0.33530514712E+03  0.26305214304E+03 0.  0.
         25    1    4    4    0    0 -0.81364328425E+02 -0.20523564620E+01 -0.11609235672E+03  0.18907487801E+03  0.12509000000E+03 0.  0.
         25    1    3    3    0    0  0.15252472101E+03  0.91865944102E+01 -0.49626192491E+02  0.20361348461E+03  0.12509000000E+03 0.  0.
         25    1    4    4    0    0 -0.71160392584E+02 -0.71342379482E+01 -0.24921570575E+02  0.14623026911E+03  0.12509000000E+03 0.  0.
<mgrwt>
<rscale>  2 0.50407305E+03</rscale>
<asrwt>0</asrwt>
<pdfrwt beam="1">  1       21 0.25608714E-01 0.50407305E+03</pdfrwt>
<pdfrwt beam="2">  1       21 0.53644026E-01 0.50407305E+03</pdfrwt>
<totfact> 0.43185875E+04</totfact>
</mgrwt>
</event>
<event>
 7    0  0.4712189E-002  0.4561019E+03  0.7546771E-02  0.1025918E+00
         21   -1    0    0  502  501  0.00000000000E+00  0.00000000000E+00  0.10491970391E+03  0.10491970391E+03  0.00000000000E+00 0. -1.
         21   -1    0    0  501  502 -0.00000000000E+00 -0.00000000000E+00 -0.49568605539E+03  0.49568605539E+03  0.00000000000E+00 0. -1.
      99926    2    1    2    0    0  0.00000000000E+00  0.00000000000E+00 -0.39076635147E+03  0.60060575930E+03  0.45610189285E+03 0.  0.
      99925    2    3    3    0    0  0.38428060250E+02  0.40474738192E+02 -0.37683271812E+03  0.46292288279E+03  0.26302048916E+03 0.  0.
         25    1    4    4    0    0  0.33290019501E+02 -0.10997479047E+02 -0.22240280362E+03  0.25756491434E+03  0.12509000000E+03 0.  0.
         25    1    4    4    0    0  0.51380407491E+01  0.51472217239E+02 -0.15442991450E+03  0.20535796844E+03  0.12509000000E+03 0.  0.
         25    1    3    3    0    0 -0.38428060250E+02 -0.40474738192E+02 -0.13933633353E+02  0.13768287651E+03  0.12509000000E+03 0.  0.
<mgrwt>
<rscale>  2 0.45610189E+03</rscale>
<asrwt>0</asrwt>
<pdfrwt beam="1">  1       21 0.15429368E-01 0.45610189E+03</pdfrwt>
<pdfrwt beam="2">  1       21 0.72895008E-01 0.45610189E+03</pdfrwt>
<totfact> 0.58133220E+04</totfact>
</mgrwt>
</event>
<event>
 7    0  0.4712189E-002  0.4522758E+03  0.7546771E-02  0.1027046E+00
         21   -1    0    0  502  501  0.00000000000E+00  0.00000000000E+00  0.32875933436E+03  0.32875933436E+03  0.00000000000E+00 0. -1.
         21   -1    0    0  501  502 -0.00000000000E+00 -0.00000000000E+00 -0.15554951947E+03  0.15554951947E+03  0.00000000000E+00 0. -1.
      99926    2    1    2    0    0  0.14210854715E-13  0.00000000000E+00  0.17320981489E+03  0.48430885383E+03  0.45227582947E+03 0.  0.
      99925    2    3    3    0    0  0.92523303192E+02 -0.23049959219E+02  0.16906093830E+03  0.32696660416E+03  0.26312296958E+03 0.  0.
         25    1    4    4    0    0  0.12719980501E+02 -0.36374929421E+02  0.79460540989E+02  0.15312223571E+03  0.12509000000E+03 0.  0.
         25    1    3    3    0    0 -0.92523303192E+02  0.23049959219E+02  0.41488765860E+01  0.15734224967E+03  0.12509000000E+03 0.  0.
         25    1    4    4    0    0  0.79803322691E+02  0.13324970202E+02  0.89600397313E+02  0.17384436845E+03  0.12509000000E+03 0.  0.
<mgrwt>
<rscale>  2 0.45227583E+03</rscale>
<asrwt>0</asrwt>
<pdfrwt beam="1">  1       21 0.48346961E-01 0.45227583E+03</pdfrwt>
<pdfrwt beam="2">  1       21 0.22874929E-01 0.45227583E+03</pdfrwt>
<totfact> 0.67843090E+04</totfact>
</mgrwt>
</event>
<event>
 7    0  0.4712189E-002  0.4514755E+03  0.7546771E-02  0.1027283E+00
         21   -1    0    0  502  501  0.00000000000E+00  0.00000000000E+00  0.11560215000E+04  0.11560215000E+04  0.00000000000E+00 0.  1.
         21   -1    0    0  501  502 -0.00000000000E+00 -0.00000000000E+00 -0.44080082966E+02  0.44080082966E+02  0.00000000000E+00 0.  1.
      99926    2    1    2    0    0 -0.17763568394E-14  0.71054273576E-14  0.11119414171E+04  0.12001015830E+04  0.45147546392E+03 0.  0.
      99925    2    3    3    0    0  0.15132422595E+02 -0.51696085905E+02  0.95628507698E+03  0.99327344221E+03  0.26307699829E+03 0.  0.
         25    1    3    3    0    0 -0.15132422595E+02  0.51696085905E+02  0.15565634007E+03  0.20682814077E+03  0.12509000000E+03 0.  0.
         25    1    4    4    0    0  0.31186751247E+02 -0.53643841921E+02  0.57298933488E+03  0.58975805311E+03  0.12509000000E+03 0.  0.
         25    1    4    4    0    0 -0.16054328651E+02  0.19477560158E+01  0.38329574211E+03  0.40351538910E+03  0.12509000000E+03 0.  0.
<mgrwt>
<rscale>  2 0.45147546E+03</rscale>
<asrwt>0</asrwt>
<pdfrwt beam="1">  1       21 0.17000314E+00 0.45147546E+03</pdfrwt>
<pdfrwt beam="2">  1       21 0.64823659E-02 0.45147546E+03</pdfrwt>
<totfact> 0.33050886E+04</totfact>
</mgrwt>
</event>
<event>
 7    0  0.4712189E-002  0.4562660E+03  0.7546771E-02  0.1025870E+00
         21   -1    0    0  502  501  0.00000000000E+00  0.00000000000E+00  0.58782495220E+02  0.58782495220E+02  0.00000000000E+00 0. -1.
         21   -1    0    0  501  502 -0.00000000000E+00 -0.00000000000E+00 -0.88537708842E+03  0.88537708842E+03  0.00000000000E+00 0. -1.
      99926    2    1    2    0    0  0.00000000000E+00  0.00000000000E+00 -0.82659459320E+03  0.94415958364E+03  0.45626603848E+03 0.  0.
      99925    2    3    3    0    0 -0.94821959567E+02  0.54006333221E+02 -0.44883952017E+03  0.53154076276E+03  0.26300338318E+03 0.  0.
         25    1    4    4    0    0 -0.21370121861E+02 -0.75973862829E+01 -0.19779938985E+03  0.23513083403E+03  0.12509000000E+03 0.  0.
         25    1    3    3    0    0  0.94821959567E+02 -0.54006333221E+02 -0.37775507303E+03  0.41261882088E+03  0.12509000000E+03 0.  0.
         25    1    4    4    0    0 -0.73451837706E+02  0.61603719504E+02 -0.25104013031E+03  0.29640992872E+03  0.12509000000E+03 0.  0.
<mgrwt>
<rscale>  2 0.45626604E+03</rscale>
<asrwt>0</asrwt>
<pdfrwt beam="1">  1       21 0.86444840E-02 0.45626604E+03</pdfrwt>
<pdfrwt beam="2">  1       21 0.13020252E+00 0.45626604E+03</pdfrwt>
<totfact> 0.40971047E+04</totfact>
</mgrwt>
</event>
<event>
 7    0  0.4712189E-002  0.4555436E+03  0.7546771E-02  0.1026082E+00
         21   -1    0    0  502  501  0.00000000000E+00  0.00000000000E+00  0.66527642475E+02  0.66527642475E+02  0.00000000000E+00 0.  1.
         21   -1    0    0  501  502 -0.00000000000E+00 -0.00000000000E+00 -0.77982599755E+03  0.77982599755E+03  0.00000000000E+00 0.  1.
      99926    2    1    2    0    0  0.71054273576E-14  0.00000000000E+00 -0.71329835508E+03  0.84635364003E+03  0.45554356612E+03 0.  0.
      99925    2    3    3    0    0 -0.57557445971E+02 -0.31429335238E+02 -0.62111410136E+03  0.67769390140E+03  0.26303162241E+03 0.  0.
         25    1    4    4    0    0 -0.37941733305E+02  0.20209414585E+02 -0.26368995077E+03  0.29500490471E+03  0.12509000000E+03 0.  0.
         25    1    4    4    0    0 -0.19615712666E+02 -0.51638749823E+02 -0.35742415059E+03  0.38268899669E+03  0.12509000000E+03 0.  0.
         25    1    3    3    0    0  0.57557445971E+02  0.31429335238E+02 -0.92184253719E+02  0.16865973863E+03  0.12509000000E+03 0.  0.
<mgrwt>
<rscale>  2 0.45554357E+03</rscale>
<asrwt>0</asrwt>
<pdfrwt beam="1">  1       21 0.97834769E-02 0.45554357E+03</pdfrwt>
<pdfrwt beam="2">  1       21 0.11468029E+00 0.45554357E+03</pdfrwt>
<totfact> 0.45408991E+04</totfact>
</mgrwt>
</event>
<event>
 7    0  0.4712189E-002  0.4492116E+03  0.7546771E-02  0.1027957E+00
         21   -1    0    0  502  501  0.00000000000E+00  0.00000000000E+00  0.88071543707E+02  0.88071543707E+02  0.00000000000E+00 0.  1.
         21   -1    0    0  501  502 -0.00000000000E+00 -0.00000000000E+00 -0.57280433357E+03  0.57280433357E+03  0.00000000000E+00 0.  1.
      99926    2    1    2    0    0  0.00000000000E+00  0.00000000000E+00 -0.48473278986E+03  0.66087587728E+03  0.44921158444E+03 0.  0.
      99925    2    3    3    0    0 -0.80670720913E+02  0.70632135305E+02 -0.29221411722E+03  0.40748366909E+03  0.26297753997E+03 0.  0.
         25    1    4    4    0    0 -0.36013402565E+02  0.34326932939E+01 -0.17438577512E+03  0.21763881826E+03  0.12509000000E+03 0.  0.
         25    1    4    4    0    0 -0.44657318348E+02  0.67199442011E+02 -0.11782834210E+03  0.18984485084E+03  0.12509000000E+03 0.  0.
         25    1    3    3    0    0  0.80670720913E+02 -0.70632135305E+02 -0.19251867265E+03  0.25339220818E+03  0.12509000000E+03 0.  0.
<mgrwt>
<rscale>  2 0.44921158E+03</rscale>
<asrwt>0</asrwt>
<pdfrwt beam="1">  1       21 0.12951697E-01 0.44921158E+03</pdfrwt>
<pdfrwt beam="2">  1       21 0.84235933E-01 0.44921158E+03</pdfrwt>
<totfact> 0.57665938E+04</totfact>
</mgrwt>
</event>
<event>
 7    0  0.4712189E-002  0.4577784E+03  0.7546771E-02  0.1025428E+00
         21   -1    0    0  502  501  0.00000000000E+00  0.00000000000E+00  0.16944892256E+03  0.16944892256E+03  0.00000000000E+00 0. -1.
         21   -1    0    0  501  502 -0.00000000000E+00 -0.00000000000E+00 -0.30918024847E+03  0.30918024847E+03  0.00000000000E+00 0. -1.
      99926    2    1    2    0    0  0.35527136788E-14  0.35527136788E-14 -0.13973132590E+03  0.47862917103E+03  0.45777837424E+03 0.  0.
      99925    2    3    3    0    0 -0.27108972861E+02  0.22566716722E+02 -0.20303560669E+03  0.33406398442E+03  0.26292800344E+03 0.  0.
         25    1    4    4    0    0  0.61504877870E+01  0.45333291205E+02 -0.11403142596E+03  0.17533855822E+03  0.12509000000E+03 0.  0.
         25    1    4    4    0    0 -0.33259460648E+02 -0.22766574484E+02 -0.89004180729E+02  0.15872542620E+03  0.12509000000E+03 0.  0.
         25    1    3    3    0    0  0.27108972861E+02 -0.22566716722E+02  0.63304280787E+02  0.14456518661E+03  0.12509000000E+03 0.  0.
<mgrwt>
<rscale>  2 0.45777837E+03</rscale>
<asrwt>0</asrwt>
<pdfrwt beam="1">  1       21 0.24918959E-01 0.45777837E+03</pdfrwt>
<pdfrwt beam="2">  1       21 0.45467683E-01 0.45777837E+03</pdfrwt>
<totfact> 0.65347134E+04</totfact>
</mgrwt>
</event>
<event>
 7    0  0.4712189E-002  0.4539711E+03  0.7546771E-02  0.1026544E+00
         21   -1    0    0  502  501  0.00000000000E+00  0.00000000000E+00  0.15235554612E+03  0.15235554612E+03  0.00000000000E+00 0. -1.
         21   -1    0    0  501  502 -0.00000000000E+00 -0.00000000000E+00 -0.33817246016E+03  0.33817246016E+03  0.00000000000E+00 0. -1.
      99926    2    1    2    0    0  0.00000000000E+00  0.00000000000E+00 -0.18581691405E+03  0.49052800628E+03  0.45397114379E+03 0.  0.
      99925    2    3    3    0    0 -0.29382355248E+02 -0.15308566110E+02 -0.23285552600E+03  0.35284062809E+03  0.26301547074E+03 0.  0.
         25    1    4    4    0    0 -0.43887156057E+02  0.17732395217E+02 -0.10151780336E+03  0.16791037135E+03  0.12509000000E+03 0.  0.
         25    1    3    3    0    0  0.29382355248E+02  0.15308566110E+02  0.47038611955E+02  0.13768737818E+03  0.12509000000E+03 0.  0.
         25    1    4    4    0    0  0.14504800809E+02 -0.33040961326E+02 -0.13133772264E+03  0.18493025675E+03  0.12509000000E+03 0.  0.
<mgrwt>
<rscale>  2 0.45397114E+03</rscale>
<asrwt>0</asrwt>
<pdfrwt beam="1">  1       21 0.22405227E-01 0.45397114E+03</pdfrwt>
<pdfrwt beam="2">  1       21 0.49731244E-01 0.45397114E+03</pdfrwt>
<totfact> 0.66482711E+04</totfact>
</mgrwt>
</event>
<event>
 7    0  0.4712189E-002  0.4678124E+03  0.7546771E-02  0.1022539E+00
         21   -1    0    0  502  501  0.00000000000E+00  0.00000000000E+00  0.10069054843E+03  0.10069054843E+03  0.00000000000E+00 0. -1.
         21   -1    0    0  501  502 -0.00000000000E+00 -0.00000000000E+00 -0.54336877696E+03  0.54336877696E+03  0.00000000000E+00 0. -1.
      99926    2    1    2    0    0  0.00000000000E+00 -0.14210854715E-13 -0.44267822853E+03  0.64405932539E+03  0.46781235620E+03 0.  0.
      99925    2    3    3    0    0 -0.36995933149E+02  0.11896073437E+03 -0.28753145600E+03  0.40903084942E+03  0.26289074194E+03 0.  0.
         25    1    3    3    0    0  0.36995933149E+02 -0.11896073437E+03 -0.15514677253E+03  0.23502847597E+03  0.12509000000E+03 0.  0.
         25    1    4    4    0    0 -0.54392264076E+02  0.64189751285E+02 -0.17692909638E+03  0.23244409179E+03  0.12509000000E+03 0.  0.
         25    1    4    4    0    0  0.17396330927E+02  0.54770983085E+02 -0.11060235962E+03  0.17658675763E+03  0.12509000000E+03 0.  0.
<mgrwt>
<rscale>  2 0.46781236E+03</rscale>
<asrwt>0</asrwt>
<pdfrwt beam="1">  1       21 0.14807434E-01 0.46781236E+03</pdfrwt>
<pdfrwt beam="2">  1       21 0.79907172E-01 0.46781236E+03</pdfrwt>
<totfact> 0.50719158E+04</totfact>
</mgrwt>
</event>
<event>
 7    0  0.4712189E-002  0.4588727E+03  0.7546771E-02  0.1025109E+00
         21   -1    0    0  502  501  0.00000000000E+00  0.00000000000E+00  0.44871091376E+02  0.44871091376E+02  0.00000000000E+00 0. -1.
         21   -1    0    0  501  502 -0.00000000000E+00 -0.00000000000E+00 -0.11731615178E+04  0.11731615178E+04  0.00000000000E+00 0. -1.
      99926    2    1    2    0    0  0.00000000000E+00  0.00000000000E+00 -0.11282904264E+04  0.12180326092E+04  0.45887269548E+03 0.  0.
      99925    2    3    3    0    0 -0.90611906880E+02  0.73020996320E+02 -0.73648627315E+03  0.79059771800E+03  0.26285002872E+03 0.  0.
         25    1    4    4    0    0 -0.35863178136E+02 -0.43691548088E+01 -0.35209427789E+03  0.37539731709E+03  0.12509000000E+03 0.  0.
         25    1    4    4    0    0 -0.54748728745E+02  0.77390151129E+02 -0.38439199526E+03  0.41520040091E+03  0.12509000000E+03 0.  0.
         25    1    3    3    0    0  0.90611906880E+02 -0.73020996320E+02 -0.39180415328E+03  0.42743489118E+03  0.12509000000E+03 0.  0.
<mgrwt>
<rscale>  2 0.45887270E+03</rscale>
<asrwt>0</asrwt>
<pdfrwt beam="1">  1       21 0.65986896E-02 0.45887270E+03</pdfrwt>
<pdfrwt beam="2">  1       21 0.17252376E+00 0.45887270E+03</pdfrwt>
<totfact> 0.30654454E+04</totfact>
</mgrwt>
</event>
<event>
 7    0  0.4712189E-002  0.4432297E+03  0.7546771E-02  0.1029760E+00
         21   -1    0    0  502  501  0.00000000000E+00  0.00000000000E+00  0.34918550278E+03  0.34918550278E+03  0.00000000000E+00 0. -1.
         21   -1    0    0  501  502 -0.00000000000E+00 -0.00000000000E+00 -0.14065059273E+03  0.14065059273E+03  0.00000000000E+00 0. -1.
      99926    2    1    2    0    0  0.00000000000E+00  0.00000000000E+00  0.20853491005E+03  0.48983609552E+03  0.44322972798E+03 0.  0.
      99925    2    3    3    0    0  0.54393836993E+02  0.47985696861E+02  0.53775286532E+02  0.27803579859E+03  0.26296541075E+03 0.  0.
         25    1    3    3    0    0 -0.54393836993E+02 -0.47985696861E+02  0.15475962351E+03  0.21180029692E+03  0.12509000000E+03 0.  0.
         25    1    4    4    0    0 -0.87586089227E+01  0.20181694593E+02  0.45582148104E+02  0.13494167019E+03  0.12509000000E+03 0.  0.
         25    1    4    4    0    0  0.63152445915E+02  0.27804002269E+02  0.81931384282E+01  0.14309412841E+03  0.12509000000E+03 0.  0.
<mgrwt>
<rscale>  2 0.44322973E+03</rscale>
<asrwt>0</asrwt>
<pdfrwt beam="1">  1       21 0.51350809E-01 0.44322973E+03</pdfrwt>
<pdfrwt beam="2">  1       21 0.20683911E-01 0.44322973E+03</pdfrwt>
<totfact> 0.72534947E+04</totfact>
</mgrwt>
</event>
<event>
 7    0  0.4712189E-002  0.4573658E+03  0.7546771E-02  0.1025548E+00
         21   -1    0    0  502  501  0.00000000000E+00  0.00000000000E+00  0.26233065215E+03  0.26233065215E+03  0.00000000000E+00 0.  1.
         21   -1    0    0  501  502 -0.00000000000E+00 -0.00000000000E+00 -0.19935095476E+03  0.19935095476E+03  0.00000000000E+00 0.  1.
      99926    2    1    2    0    0  0.00000000000E+00 -0.77715611724E-15  0.62979697386E+02  0.46168160692E+03  0.45736578783E+03 0.  0.
      99925    2    3    3    0    0  0.11131024329E+03 -0.13263075999E+00  0.70290930275E+02  0.29407805660E+03  0.26296596860E+03 0.  0.
         25    1    4    4    0    0  0.16644301938E+02 -0.96919079144E+01  0.47909133930E+02  0.13532833805E+03  0.12509000000E+03 0.  0.
         25    1    3    3    0    0 -0.11131024329E+03  0.13263075999E+00 -0.73112328890E+01  0.16760355032E+03  0.12509000000E+03 0.  0.
         25    1    4    4    0    0  0.94665941351E+02  0.95592771544E+01  0.22381796345E+02  0.15874971855E+03  0.12509000000E+03 0.  0.
<mgrwt>
<rscale>  2 0.45736579E+03</rscale>
<asrwt>0</asrwt>
<pdfrwt beam="1">  1       21 0.38578037E-01 0.45736579E+03</pdfrwt>
<pdfrwt beam="2">  1       21 0.29316317E-01 0.45736579E+03</pdfrwt>
<totfact> 0.66789184E+04</totfact>
</mgrwt>
</event>
<event>
 7    0  0.4712189E-002  0.4556961E+03  0.7546771E-02  0.1026037E+00
         21   -1    0    0  502  501  0.00000000000E+00  0.00000000000E+00  0.10321888892E+03  0.10321888892E+03  0.00000000000E+00 0. -1.
         21   -1    0    0  501  502 -0.00000000000E+00 -0.00000000000E+00 -0.50295774368E+03  0.50295774368E+03  0.00000000000E+00 0. -1.
      99926    2    1    2    0    0  0.00000000000E+00  0.00000000000E+00 -0.39973885476E+03  0.60617663260E+03  0.45569612452E+03 0.  0.
      99925    2    3    3    0    0  0.70978029874E+02 -0.72480640458E+02 -0.18481197661E+03  0.33760188505E+03  0.26368208534E+03 0.  0.
         25    1    4    4    0    0  0.58811307070E+02 -0.42266669011E+02 -0.13880186907E+03  0.20039637748E+03  0.12509000000E+03 0.  0.
         25    1    4    4    0    0  0.12166722804E+02 -0.30213971446E+02 -0.46010107537E+02  0.13720550758E+03  0.12509000000E+03 0.  0.
         25    1    3    3    0    0 -0.70978029874E+02  0.72480640458E+02 -0.21492687816E+03  0.26857474755E+03  0.12509000000E+03 0.  0.
<mgrwt>
<rscale>  2 0.45569612E+03</rscale>
<asrwt>0</asrwt>
<pdfrwt beam="1">  1       21 0.15179248E-01 0.45569612E+03</pdfrwt>
<pdfrwt beam="2">  1       21 0.73964375E-01 0.45569612E+03</pdfrwt>
<totfact> 0.57980175E+04</totfact>
</mgrwt>
</event>
<event>
 7    0  0.4712189E-002  0.4457075E+03  0.7546771E-02  0.1029010E+00
         21   -1    0    0  502  501  0.00000000000E+00  0.00000000000E+00  0.31090152121E+03  0.31090152121E+03  0.00000000000E+00 0.  1.
         21   -1    0    0  501  502 -0.00000000000E+00 -0.00000000000E+00 -0.15974121822E+03  0.15974121822E+03  0.00000000000E+00 0.  1.
      99926    2    1    2    0    0  0.00000000000E+00 -0.14210854715E-13  0.15116030299E+03  0.47064273943E+03  0.44570747243E+03 0.  0.
      99925    2    3    3    0    0  0.46320896570E+02 -0.73414365429E+02  0.35028972471E+02  0.27915047186E+03  0.26298795128E+03 0.  0.
         25    1    4    4    0    0  0.55802156808E+02 -0.32149165722E+02 -0.61174626266E+01  0.14082748670E+03  0.12509000000E+03 0.  0.
         25    1    4    4    0    0 -0.94812602379E+01 -0.41265199707E+02  0.41146435098E+02  0.13832298516E+03  0.12509000000E+03 0.  0.
         25    1    3    3    0    0 -0.46320896570E+02  0.73414365429E+02  0.11613133052E+03  0.19149226757E+03  0.12509000000E+03 0.  0.
<mgrwt>
<rscale>  2 0.44570747E+03</rscale>
<asrwt>0</asrwt>
<pdfrwt beam="1">  1       21 0.45720812E-01 0.44570747E+03</pdfrwt>
<pdfrwt beam="2">  1       21 0.23491356E-01 0.44570747E+03</pdfrwt>
<totfact> 0.72595620E+04</totfact>
</mgrwt>
</event>
<event>
 7    0  0.4712189E-002  0.4616752E+03  0.7546771E-02  0.1024296E+00
         21   -1    0    0  502  501  0.00000000000E+00  0.00000000000E+00  0.71824796808E+02  0.71824796808E+02  0.00000000000E+00 0. -1.
         21   -1    0    0  501  502 -0.00000000000E+00 -0.00000000000E+00 -0.74188848879E+03  0.74188848879E+03  0.00000000000E+00 0. -1.
      99926    2    1    2    0    0  0.00000000000E+00  0.00000000000E+00 -0.67006369198E+03  0.81371328560E+03  0.46167516702E+03 0.  0.
      99925    2    3    3    0    0 -0.91848200478E+02 -0.29525422552E+02 -0.54274322006E+03  0.61081958639E+03  0.26310173259E+03 0.  0.
         25    1    3    3    0    0  0.91848200478E+02  0.29525422552E+02 -0.12732047193E+03  0.20289369921E+03  0.12509000000E+03 0.  0.
         25    1    4    4    0    0 -0.55033612169E+02 -0.14561431385E+01 -0.19286550667E+03  0.23637984386E+03  0.12509000000E+03 0.  0.
         25    1    4    4    0    0 -0.36814588309E+02 -0.28069279414E+02 -0.34987771339E+03  0.37443974253E+03  0.12509000000E+03 0.  0.
<mgrwt>
<rscale>  2 0.46167517E+03</rscale>
<asrwt>0</asrwt>
<pdfrwt beam="1">  1       21 0.10562470E-01 0.46167517E+03</pdfrwt>
<pdfrwt beam="2">  1       21 0.10910125E+00 0.46167517E+03</pdfrwt>
<totfact> 0.44719808E+04</totfact>
</mgrwt>
</event>
<event>
 7    0  0.4712189E-002  0.4594715E+03  0.7546771E-02  0.1024935E+00
         21   -1    0    0  502  501  0.00000000000E+00  0.00000000000E+00  0.81383007455E+02  0.81383007455E+02  0.00000000000E+00 0.  1.
         21   -1    0    0  501  502 -0.00000000000E+00 -0.00000000000E+00 -0.64852018761E+03  0.64852018761E+03  0.00000000000E+00 0.  1.
      99926    2    1    2    0    0  0.14210854715E-13 -0.71054273576E-14 -0.56713718015E+03  0.72990319506E+03  0.45947153672E+03 0.  0.
      99925    2    3    3    0    0 -0.99107851305E+02 -0.61426117075E+02 -0.33419977507E+03  0.44093455172E+03  0.26294154330E+03 0.  0.
         25    1    4    4    0    0 -0.81235141760E+02 -0.47367206437E+02 -0.14746270792E+03  0.21502455401E+03  0.12509000000E+03 0.  0.
         25    1    4    4    0    0 -0.17872709545E+02 -0.14058910638E+02 -0.18673706715E+03  0.22590999770E+03  0.12509000000E+03 0.  0.
         25    1    3    3    0    0  0.99107851305E+02  0.61426117075E+02 -0.23293740508E+03  0.28896864334E+03  0.12509000000E+03 0.  0.
<mgrwt>
<rscale>  2 0.45947154E+03</rscale>
<asrwt>0</asrwt>
<pdfrwt beam="1">  1       21 0.11968089E-01 0.45947154E+03</pdfrwt>
<pdfrwt beam="2">  1       21 0.95370617E-01 0.45947154E+03</pdfrwt>
<totfact> 0.49544123E+04</totfact>
</mgrwt>
</event>
<event>
 7    0  0.4712189E-002  0.4893238E+03  0.7546771E-02  0.1016604E+00
         21   -1    0    0  502  501  0.00000000000E+00  0.00000000000E+00  0.28638496916E+03  0.28638496916E+03  0.00000000000E+00 0. -1.
         21   -1    0    0  501  502 -0.00000000000E+00 -0.00000000000E+00 -0.20901740399E+03  0.20901740399E+03  0.00000000000E+00 0. -1.
      99926    2    1    2    0    0  0.71054273576E-14  0.00000000000E+00  0.77367565168E+02  0.49540237315E+03  0.48932378972E+03 0.  0.
      99925    2    3    3    0    0 -0.38879044367E+02  0.13615151569E+03  0.27094137898E+02  0.29989344521E+03  0.26296990484E+03 0.  0.
         25    1    3    3    0    0  0.38879044367E+02 -0.13615151569E+03  0.50273427270E+02  0.19550892794E+03  0.12509000000E+03 0.  0.
         25    1    4    4    0    0 -0.90049552069E+00  0.10036520630E+03  0.34893768120E+02  0.16413125443E+03  0.12509000000E+03 0.  0.
         25    1    4    4    0    0 -0.37978548846E+02  0.35786309393E+02 -0.77996302221E+01  0.13576219078E+03  0.12509000000E+03 0.  0.
<mgrwt>
<rscale>  2 0.48932379E+03</rscale>
<asrwt>0</asrwt>
<pdfrwt beam="1">  1       21 0.42115436E-01 0.48932379E+03</pdfrwt>
<pdfrwt beam="2">  1       21 0.30737854E-01 0.48932379E+03</pdfrwt>
<totfact> 0.50392580E+04</totfact>
</mgrwt>
</event>
<event>
 7    0  0.4712189E-002  0.4511501E+03  0.7546771E-02  0.1027380E+00
         21   -1    0    0  502  501  0.00000000000E+00  0.00000000000E+00  0.58277631672E+03  0.58277631672E+03  0.00000000000E+00 0.  1.
         21   -1    0    0  501  502 -0.00000000000E+00 -0.00000000000E+00 -0.87313246175E+02  0.87313246175E+02  0.00000000000E+00 0.  1.
      99926    2    1    2    0    0  0.00000000000E+00  0.00000000000E+00  0.49546307054E+03  0.67008956289E+03  0.45115005046E+03 0.  0.
      99925    2    3    3    0    0 -0.66994404543E+02  0.52576809095E+02  0.21144940129E+03  0.34827619537E+03  0.26331138954E+03 0.  0.
         25    1    3    3    0    0  0.66994404543E+02 -0.52576809095E+02  0.28401366925E+03  0.32181336753E+03  0.12509000000E+03 0.  0.
         25    1    4    4    0    0 -0.43250511178E+02  0.60161124863E+02  0.83731122833E+02  0.16777477967E+03  0.12509000000E+03 0.  0.
         25    1    4    4    0    0 -0.23743893365E+02 -0.75843157680E+01  0.12771827845E+03  0.18050141570E+03  0.12509000000E+03 0.  0.
<mgrwt>
<rscale>  2 0.45115005E+03</rscale>
<asrwt>0</asrwt>
<pdfrwt beam="1">  1       21 0.85702397E-01 0.45115005E+03</pdfrwt>
<pdfrwt beam="2">  1       21 0.12840184E-01 0.45115005E+03</pdfrwt>
<totfact> 0.56244440E+04</totfact>
</mgrwt>
</event>
<event>
 7    0  0.4712189E-002  0.4459132E+03  0.7546771E-02  0.1028948E+00
         21   -1    0    0  502  501  0.00000000000E+00  0.00000000000E+00  0.12546401370E+03  0.12546401370E+03  0.00000000000E+00 0.  1.
         21   -1    0    0  501  502 -0.00000000000E+00 -0.00000000000E+00 -0.39620642636E+03  0.39620642636E+03  0.00000000000E+00 0.  1.
      99926    2    1    2    0    0 -0.14210854715E-13  0.00000000000E+00 -0.27074241266E+03  0.52167044006E+03  0.44591321355E+03 0.  0.
      99925    2    3    3    0    0  0.86419376929E+02 -0.45630602897E+02 -0.12998110694E+03  0.30951079753E+03  0.26334651127E+03 0.  0.
         25    1    4    4    0    0  0.75174194346E+02  0.77060287166E+00 -0.81188739828E+02  0.16700560739E+03  0.12509000000E+03 0.  0.
         25    1    4    4    0    0  0.11245182582E+02 -0.46401205769E+02 -0.48792367108E+02  0.14250519014E+03  0.12509000000E+03 0.  0.
         25    1    3    3    0    0 -0.86419376929E+02  0.45630602897E+02 -0.14076130572E+03  0.21215964253E+03  0.12509000000E+03 0.  0.
<mgrwt>
<rscale>  2 0.44591321E+03</rscale>
<asrwt>0</asrwt>
<pdfrwt beam="1">  1       21 0.18450590E-01 0.44591321E+03</pdfrwt>
<pdfrwt beam="2">  1       21 0.58265651E-01 0.44591321E+03</pdfrwt>
<totfact> 0.68580696E+04</totfact>
</mgrwt>
</event>
<event>
 7    0  0.4712189E-002  0.4536214E+03  0.7546771E-02  0.1026648E+00
         21   -1    0    0  502  501  0.00000000000E+00  0.00000000000E+00  0.44329932719E+03  0.44329932719E+03  0.00000000000E+00 0.  1.
         21   -1    0    0  501  502 -0.00000000000E+00 -0.00000000000E+00 -0.11604596672E+03  0.11604596672E+03  0.00000000000E+00 0.  1.
      99926    2    1    2    0    0  0.35527136788E-14  0.71054273576E-14  0.32725336047E+03  0.55934529391E+03  0.45362142353E+03 0.  0.
      99925    2    3    3    0    0  0.17974874861E+02 -0.62304748590E+02  0.31847251883E+03  0.41817309728E+03  0.26313307700E+03 0.  0.
         25    1    3    3    0    0 -0.17974874861E+02  0.62304748590E+02  0.87808416430E+01  0.14117219664E+03  0.12509000000E+03 0.  0.
         25    1    4    4    0    0  0.31088843502E+02 -0.55600049205E+02  0.20618021671E+03  0.24943069483E+03  0.12509000000E+03 0.  0.
         25    1    4    4    0    0 -0.13113968641E+02 -0.67046993853E+01  0.11229230211E+03  0.16874240244E+03  0.12509000000E+03 0.  0.
<mgrwt>
<rscale>  2 0.45362142E+03</rscale>
<asrwt>0</asrwt>
<pdfrwt beam="1">  1       21 0.65191077E-01 0.45362142E+03</pdfrwt>
<pdfrwt beam="2">  1       21 0.17065584E-01 0.45362142E+03</pdfrwt>
<totfact> 0.61925672E+04</totfact>
</mgrwt>
</event>
<event>
 7    0  0.4712189E-002  0.4594543E+03  0.7546771E-02  0.1024940E+00
         21   -1    0    0  502  501  0.00000000000E+00  0.00000000000E+00  0.15282750187E+03  0.15282750187E+03  0.00000000000E+00 0.  1.
         21   -1    0    0  501  502 -0.00000000000E+00 -0.00000000000E+00 -0.34532117259E+03  0.34532117259E+03  0.00000000000E+00 0.  1.
      99926    2    1    2    0    0 -0.14210854715E-13  0.00000000000E+00 -0.19249367071E+03  0.49814867446E+03  0.45945433789E+03 0.  0.
      99925    2    3    3    0    0 -0.93593120131E+02 -0.70513081395E+02 -0.11371342561E+03  0.30950721056E+03  0.26293003526E+03 0.  0.
         25    1    4    4    0    0 -0.77283486105E+01 -0.41043761503E+02 -0.37077021445E+02  0.13699099003E+03  0.12509000000E+03 0.  0.
         25    1    4    4    0    0 -0.85864771520E+02 -0.29469319891E+02 -0.76636404164E+02  0.17251622053E+03  0.12509000000E+03 0.  0.
         25    1    3    3    0    0  0.93593120131E+02  0.70513081395E+02 -0.78780245103E+02  0.18864146390E+03  0.12509000000E+03 0.  0.
<mgrwt>
<rscale>  2 0.45945434E+03</rscale>
<asrwt>0</asrwt>
<pdfrwt beam="1">  1       21 0.22474633E-01 0.45945434E+03</pdfrwt>
<pdfrwt beam="2">  1       21 0.50782524E-01 0.45945434E+03</pdfrwt>
<totfact> 0.63138584E+04</totfact>
</mgrwt>
</event>
<event>
 7    0  0.4712189E-002  0.4414117E+03  0.7546771E-02  0.1030315E+00
         21   -1    0    0  502  501  0.00000000000E+00  0.00000000000E+00  0.95702218398E+02  0.95702218398E+02  0.00000000000E+00 0. -1.
         21   -1    0    0  501  502 -0.00000000000E+00 -0.00000000000E+00 -0.50898589901E+03  0.50898589901E+03  0.00000000000E+00 0. -1.
      99926    2    1    2    0    0 -0.35527136788E-14  0.17763568394E-14 -0.41328368061E+03  0.60468811741E+03  0.44141173373E+03 0.  0.
      99925    2    3    3    0    0 -0.27096262865E+02 -0.12187415707E+02 -0.13257054758E+03  0.29593236974E+03  0.26290355040E+03 0.  0.
         25    1    4    4    0    0 -0.29808731123E+02 -0.42923380903E+02 -0.73278984923E+02  0.15410481761E+03  0.12509000000E+03 0.  0.
         25    1    4    4    0    0  0.27124682578E+01  0.30735965196E+02 -0.59291562661E+02  0.14182755213E+03  0.12509000000E+03 0.  0.
         25    1    3    3    0    0  0.27096262865E+02  0.12187415707E+02 -0.28071313303E+03  0.30875574767E+03  0.12509000000E+03 0.  0.
<mgrwt>
<rscale>  2 0.44141173E+03</rscale>
<asrwt>0</asrwt>
<pdfrwt beam="1">  1       21 0.14073856E-01 0.44141173E+03</pdfrwt>
<pdfrwt beam="2">  1       21 0.74850866E-01 0.44141173E+03</pdfrwt>
<totfact> 0.65102451E+04</totfact>
</mgrwt>
</event>
<event>
 7    0  0.4712189E-002  0.4585482E+03  0.7546771E-02  0.1025203E+00
         21   -1    0    0  502  501  0.00000000000E+00  0.00000000000E+00  0.11924267286E+04  0.11924267286E+04  0.00000000000E+00 0.  1.
         21   -1    0    0  501  502 -0.00000000000E+00 -0.00000000000E+00 -0.44083731189E+02  0.44083731189E+02  0.00000000000E+00 0.  1.
      99926    2    1    2    0    0  0.00000000000E+00 -0.35527136788E-14  0.11483429975E+04  0.12365104598E+04  0.45854822808E+03 0.  0.
      99925    2    3    3    0    0 -0.62213480901E+02 -0.17999453502E+02  0.98143871949E+03  0.10181093526E+04  0.26292621822E+03 0.  0.
         25    1    3    3    0    0  0.62213480901E+02  0.17999453502E+02  0.16690427796E+03  0.21840110722E+03  0.12509000000E+03 0.  0.
         25    1    4    4    0    0 -0.55898501704E+02 -0.25850080492E+02  0.41021960268E+03  0.43326723818E+03  0.12509000000E+03 0.  0.
         25    1    4    4    0    0 -0.63149791971E+01  0.78506269899E+01  0.57121911682E+03  0.58484211444E+03  0.12509000000E+03 0.  0.
<mgrwt>
<rscale>  2 0.45854823E+03</rscale>
<asrwt>0</asrwt>
<pdfrwt beam="1">  1       21 0.17535685E+00 0.45854823E+03</pdfrwt>
<pdfrwt beam="2">  1       21 0.64829024E-02 0.45854823E+03</pdfrwt>
<totfact> 0.30173567E+04</totfact>
</mgrwt>
</event>
<event>
 7    0  0.4712189E-002  0.4484682E+03  0.7546771E-02  0.1028180E+00
         21   -1    0    0  502  501  0.00000000000E+00  0.00000000000E+00  0.14237263395E+03  0.14237263395E+03  0.00000000000E+00 0. -1.
         21   -1    0    0  501  502 -0.00000000000E+00 -0.00000000000E+00 -0.35316423592E+03  0.35316423592E+03  0.00000000000E+00 0. -1.
      99926    2    1    2    0    0  0.00000000000E+00  0.00000000000E+00 -0.21079160197E+03  0.49553686986E+03  0.44846815933E+03 0.  0.
      99925    2    3    3    0    0  0.42139166694E+02 -0.55903145449E+02 -0.44074397555E+02  0.27566644123E+03  0.26296114401E+03 0.  0.
         25    1    3    3    0    0 -0.42139166694E+02  0.55903145449E+02 -0.16671720442E+03  0.21987042864E+03  0.12509000000E+03 0.  0.
         25    1    4    4    0    0  0.11148585863E+02 -0.36443711184E+02  0.16757840316E+02  0.13183614210E+03  0.12509000000E+03 0.  0.
         25    1    4    4    0    0  0.30990580831E+02 -0.19459434265E+02 -0.60832237872E+02  0.14383029913E+03  0.12509000000E+03 0.  0.
<mgrwt>
<rscale>  2 0.44846816E+03</rscale>
<asrwt>0</asrwt>
<pdfrwt beam="1">  1       21 0.20937152E-01 0.44846816E+03</pdfrwt>
<pdfrwt beam="2">  1       21 0.51935917E-01 0.44846816E+03</pdfrwt>
<totfact> 0.69099290E+04</totfact>
</mgrwt>
</event>
<event>
 7    0  0.4712189E-002  0.4579766E+03  0.7546771E-02  0.1025370E+00
         21   -1    0    0  502  501  0.00000000000E+00  0.00000000000E+00  0.10386602761E+03  0.10386602761E+03  0.00000000000E+00 0.  1.
         21   -1    0    0  501  502 -0.00000000000E+00 -0.00000000000E+00 -0.50483916399E+03  0.50483916399E+03  0.00000000000E+00 0.  1.
      99926    2    1    2    0    0  0.00000000000E+00  0.00000000000E+00 -0.40097313637E+03  0.60870519160E+03  0.45797658694E+03 0.  0.
      99925    2    3    3    0    0  0.11370747190E+03  0.84062356628E+01 -0.27849054489E+03  0.39978045089E+03  0.26318695134E+03 0.  0.
         25    1    4    4    0    0  0.50654711435E+02  0.29260614167E+02 -0.18178072794E+03  0.22828452528E+03  0.12509000000E+03 0.  0.
         25    1    3    3    0    0 -0.11370747190E+03 -0.84062356628E+01 -0.12248259148E+03  0.20892474071E+03  0.12509000000E+03 0.  0.
         25    1    4    4    0    0  0.63052760467E+02 -0.20854378505E+02 -0.96709816957E+02  0.17149592561E+03  0.12509000000E+03 0.  0.
<mgrwt>
<rscale>  2 0.45797659E+03</rscale>
<asrwt>0</asrwt>
<pdfrwt beam="1">  1       21 0.15274416E-01 0.45797659E+03</pdfrwt>
<pdfrwt beam="2">  1       21 0.74241054E-01 0.45797659E+03</pdfrwt>
<totfact> 0.56798283E+04</totfact>
</mgrwt>
</event>
<event>
 7    0  0.4712189E-002  0.4566710E+03  0.7546771E-02  0.1025751E+00
         21   -1    0    0  502  501  0.00000000000E+00  0.00000000000E+00  0.87398709161E+02  0.87398709161E+02  0.00000000000E+00 0. -1.
         21   -1    0    0  501  502 -0.00000000000E+00 -0.00000000000E+00 -0.59654326354E+03  0.59654326354E+03  0.00000000000E+00 0. -1.
      99926    2    1    2    0    0  0.00000000000E+00  0.15543122345E-14 -0.50914455438E+03  0.68394197270E+03  0.45667104656E+03 0.  0.
      99925    2    3    3    0    0 -0.92691718409E+02 -0.16221102421E+01 -0.21883714364E+03  0.35451779821E+03  0.26305662492E+03 0.  0.
         25    1    3    3    0    0  0.92691718409E+02  0.16221102421E+01 -0.29030741074E+03  0.32942417448E+03  0.12509000000E+03 0.  0.
         25    1    4    4    0    0 -0.39870719244E+02  0.20073632512E+02 -0.15128366072E+03  0.20131288850E+03  0.12509000000E+03 0.  0.
         25    1    4    4    0    0 -0.52820999164E+02 -0.21695742754E+02 -0.67553482914E+02  0.15320490971E+03  0.12509000000E+03 0.  0.
<mgrwt>
<rscale>  2 0.45667105E+03</rscale>
<asrwt>0</asrwt>
<pdfrwt beam="1">  1       21 0.12852752E-01 0.45667105E+03</pdfrwt>
<pdfrwt beam="2">  1       21 0.87726946E-01 0.45667105E+03</pdfrwt>
<totfact> 0.53081932E+04</totfact>
</mgrwt>
</event>
<event>
 7    0  0.4712189E-002  0.4599382E+03  0.7546771E-02  0.1024799E+00
         21   -1    0    0  502  501  0.00000000000E+00  0.00000000000E+00  0.33146972378E+03  0.33146972378E+03  0.00000000000E+00 0.  1.
         21   -1    0    0  501  502 -0.00000000000E+00 -0.00000000000E+00 -0.15954937629E+03  0.15954937629E+03  0.00000000000E+00 0.  1.
      99926    2    1    2    0    0  0.00000000000E+00  0.71054273576E-14  0.17192034749E+03  0.49101910007E+03  0.45993820319E+03 0.  0.
      99925    2    3    3    0    0 -0.10574326806E+03  0.48813919348E+02  0.89225518534E+02  0.30114972314E+03  0.26299339369E+03 0.  0.
         25    1    4    4    0    0 -0.72651641702E+02 -0.10897696231E+02  0.47942454329E+02  0.15278418718E+03  0.12509000000E+03 0.  0.
         25    1    3    3    0    0  0.10574326806E+03 -0.48813919348E+02  0.82694828958E+02  0.18986937694E+03  0.12509000000E+03 0.  0.
         25    1    4    4    0    0 -0.33091626356E+02  0.59711615578E+02  0.41283064205E+02  0.14836553596E+03  0.12509000000E+03 0.  0.
<mgrwt>
<rscale>  2 0.45993820E+03</rscale>
<asrwt>0</asrwt>
<pdfrwt beam="1">  1       21 0.48745548E-01 0.45993820E+03</pdfrwt>
<pdfrwt beam="2">  1       21 0.23463143E-01 0.45993820E+03</pdfrwt>
<totfact> 0.63384797E+04</totfact>
</mgrwt>
</event>
<event>
 7    0  0.4712189E-002  0.4395336E+03  0.7546771E-02  0.1030890E+00
         21   -1    0    0  502  501  0.00000000000E+00  0.00000000000E+00  0.30093053944E+02  0.30093053944E+02  0.00000000000E+00 0. -1.
         21   -1    0    0  501  502 -0.00000000000E+00 -0.00000000000E+00 -0.16049367188E+04  0.16049367188E+04  0.00000000000E+00 0. -1.
      99926    2    1    2    0    0  0.00000000000E+00  0.00000000000E+00 -0.15748436648E+04  0.16350297727E+04  0.43953360397E+03 0.  0.
      99925    2    3    3    0    0 -0.52915316901E+02  0.81790925652E+02 -0.96819379220E+03  0.10080039660E+04  0.26302659532E+03 0.  0.
         25    1    3    3    0    0  0.52915316901E+02 -0.81790925652E+02 -0.60664987263E+03  0.62702580676E+03  0.12509000000E+03 0.  0.
         25    1    4    4    0    0  0.60053320223E+01  0.30584867480E+02 -0.53848821848E+03  0.55370440460E+03  0.12509000000E+03 0.  0.
         25    1    4    4    0    0 -0.58920648923E+02  0.51206058172E+02 -0.42970557372E+03  0.45429956136E+03  0.12509000000E+03 0.  0.
<mgrwt>
<rscale>  2 0.43953360E+03</rscale>
<asrwt>0</asrwt>
<pdfrwt beam="1">  1       21 0.44254496E-02 0.43953360E+03</pdfrwt>
<pdfrwt beam="2">  1       21 0.23602008E+00 0.43953360E+03</pdfrwt>
<totfact> 0.23327914E+04</totfact>
</mgrwt>
</event>
<event>
 7    0  0.4712189E-002  0.4558009E+03  0.7546771E-02  0.1026006E+00
         21   -1    0    0  502  501  0.00000000000E+00  0.00000000000E+00  0.15250530456E+04  0.15250530456E+04  0.00000000000E+00 0. -1.
         21   -1    0    0  501  502 -0.00000000000E+00 -0.00000000000E+00 -0.34056930444E+02  0.34056930444E+02  0.00000000000E+00 0. -1.
      99926    2    1    2    0    0  0.00000000000E+00  0.14210854715E-13  0.14909961151E+04  0.15591099760E+04  0.45580094557E+03 0.  0.
      99925    2    3    3    0    0 -0.53750514108E+02 -0.98988004953E+02  0.87872549155E+03  0.92412134030E+03  0.26297151786E+03 0.  0.
         25    1    3    3    0    0  0.53750514108E+02  0.98988004953E+02  0.61227062357E+03  0.63498863571E+03  0.12509000000E+03 0.  0.
         25    1    4    4    0    0  0.22211392469E+01 -0.71478954866E+02  0.50332704535E+03  0.52354541076E+03  0.12509000000E+03 0.  0.
         25    1    4    4    0    0 -0.55971653355E+02 -0.27509050087E+02  0.37539844620E+03  0.40057592954E+03  0.12509000000E+03 0.  0.
<mgrwt>
<rscale>  2 0.45580095E+03</rscale>
<asrwt>0</asrwt>
<pdfrwt beam="1">  1       21 0.22427246E+00 0.45580095E+03</pdfrwt>
<pdfrwt beam="2">  1       21 0.50083731E-02 0.45580095E+03</pdfrwt>
<totfact> 0.22228350E+04</totfact>
</mgrwt>
</event>
<event>
 7    0  0.4712189E-002  0.4587625E+03  0.7546771E-02  0.1025141E+00
         21   -1    0    0  502  501  0.00000000000E+00  0.00000000000E+00  0.10929884925E+03  0.10929884925E+03  0.00000000000E+00 0.  1.
         21   -1    0    0  501  502 -0.00000000000E+00 -0.00000000000E+00 -0.48139362120E+03  0.48139362120E+03  0.00000000000E+00 0.  1.
      99926    2    1    2    0    0  0.00000000000E+00  0.00000000000E+00 -0.37209477195E+03  0.59069247045E+03  0.45876254787E+03 0.  0.
      99925    2    3    3    0    0 -0.67663644823E+02  0.36202783402E+02 -0.11959289528E+03  0.29864159101E+03  0.26266961934E+03 0.  0.
         25    1    4    4    0    0 -0.64377314541E+02 -0.18147266092E+01 -0.80716291534E+02  0.16220468452E+03  0.12509000000E+03 0.  0.
         25    1    3    3    0    0  0.67663644823E+02 -0.36202783402E+02 -0.25250187667E+03  0.29205087944E+03  0.12509000000E+03 0.  0.
         25    1    4    4    0    0 -0.32863302818E+01  0.38017510011E+02 -0.38876603746E+02  0.13643690649E+03  0.12509000000E+03 0.  0.
<mgrwt>
<rscale>  2 0.45876255E+03</rscale>
<asrwt>0</asrwt>
<pdfrwt beam="1">  1       21 0.16073361E-01 0.45876255E+03</pdfrwt>
<pdfrwt beam="2">  1       21 0.70793177E-01 0.45876255E+03</pdfrwt>
<totfact> 0.57525041E+04</totfact>
</mgrwt>
</event>
<event>
 7    0  0.4712189E-002  0.4560059E+03  0.7546771E-02  0.1025946E+00
         21   -1    0    0  502  501  0.00000000000E+00  0.00000000000E+00  0.28962367114E+03  0.28962367114E+03  0.00000000000E+00 0. -1.
         21   -1    0    0  501  502 -0.00000000000E+00 -0.00000000000E+00 -0.17949276614E+03  0.17949276614E+03  0.00000000000E+00 0. -1.
      99926    2    1    2    0    0  0.00000000000E+00  0.00000000000E+00  0.11013090500E+03  0.46911643729E+03  0.45600593801E+03 0.  0.
      99925    2    3    3    0    0  0.10431338661E+03 -0.33231117793E+02  0.10228632376E+03  0.30269938476E+03  0.26301869837E+03 0.  0.
         25    1    3    3    0    0 -0.10431338661E+03  0.33231117793E+02  0.78445812353E+01  0.16641705253E+03  0.12509000000E+03 0.  0.
         25    1    4    4    0    0  0.93899761385E+02 -0.29460456583E+02  0.52256244489E+02  0.16752106398E+03  0.12509000000E+03 0.  0.
         25    1    4    4    0    0  0.10413625230E+02 -0.37706612106E+01  0.50030079276E+02  0.13517832078E+03  0.12509000000E+03 0.  0.
<mgrwt>
<rscale>  2 0.45600594E+03</rscale>
<asrwt>0</asrwt>
<pdfrwt beam="1">  1       21 0.42591717E-01 0.45600594E+03</pdfrwt>
<pdfrwt beam="2">  1       21 0.26395995E-01 0.45600594E+03</pdfrwt>
<totfact> 0.66965623E+04</totfact>
</mgrwt>
</event>
<event>
 7    0  0.4712189E-002  0.4220972E+03  0.7546771E-02  0.1036386E+00
         21   -1    0    0  502  501  0.00000000000E+00  0.00000000000E+00  0.57178604567E+02  0.57178604567E+02  0.00000000000E+00 0.  1.
         21   -1    0    0  501  502 -0.00000000000E+00 -0.00000000000E+00 -0.77898906891E+03  0.77898906891E+03  0.00000000000E+00 0.  1.
      99926    2    1    2    0    0  0.00000000000E+00  0.71054273576E-14 -0.72181046434E+03  0.83616767347E+03  0.42209718281E+03 0.  0.
      99925    2    3    3    0    0 -0.38444150005E+02  0.46651478215E+02 -0.37025410845E+03  0.45815485285E+03  0.26298945089E+03 0.  0.
         25    1    4    4    0    0  0.17747287940E+02  0.16135325002E+02 -0.14843658476E+03  0.19559203137E+03  0.12509000000E+03 0.  0.
         25    1    3    3    0    0  0.38444150005E+02 -0.46651478215E+02 -0.35155635589E+03  0.37801282062E+03  0.12509000000E+03 0.  0.
         25    1    4    4    0    0 -0.56191437945E+02  0.30516153213E+02 -0.22181752370E+03  0.26256282148E+03  0.12509000000E+03 0.  0.
<mgrwt>
<rscale>  2 0.42209718E+03</rscale>
<asrwt>0</asrwt>
<pdfrwt beam="1">  1       21 0.84086187E-02 0.42209718E+03</pdfrwt>
<pdfrwt beam="2">  1       21 0.11455721E+00 0.42209718E+03</pdfrwt>
<totfact> 0.60149495E+04</totfact>
</mgrwt>
</event>
<event>
 7    0  0.4712189E-002  0.4631918E+03  0.7546771E-02  0.1023860E+00
         21   -1    0    0  502  501  0.00000000000E+00  0.00000000000E+00  0.83689095540E+03  0.83689095540E+03  0.00000000000E+00 0. -1.
         21   -1    0    0  501  502 -0.00000000000E+00 -0.00000000000E+00 -0.64090385781E+02  0.64090385781E+02  0.00000000000E+00 0. -1.
      99926    2    1    2    0    0  0.00000000000E+00  0.17763568394E-14  0.77280056962E+03  0.90098134118E+03  0.46319181421E+03 0.  0.
      99925    2    3    3    0    0 -0.10826473510E+03 -0.14747192012E+02  0.38297527700E+03  0.47724793513E+03  0.26297679794E+03 0.  0.
         25    1    4    4    0    0 -0.25291200264E+02 -0.22595440208E+02  0.22155937201E+03  0.25668319414E+03  0.12509000000E+03 0.  0.
         25    1    3    3    0    0  0.10826473510E+03  0.14747192012E+02  0.38982529261E+03  0.42373340605E+03  0.12509000000E+03 0.  0.
         25    1    4    4    0    0 -0.82973534837E+02  0.78482481961E+01  0.16141590499E+03  0.22056474099E+03  0.12509000000E+03 0.  0.
<mgrwt>
<rscale>  2 0.46319181E+03</rscale>
<asrwt>0</asrwt>
<pdfrwt beam="1">  1       21 0.12307219E+00 0.46319181E+03</pdfrwt>
<pdfrwt beam="2">  1       21 0.94250572E-02 0.46319181E+03</pdfrwt>
<totfact> 0.40528677E+04</totfact>
</mgrwt>
</event>
<event>
 7    0  0.4712189E-002  0.4551224E+03  0.7546771E-02  0.1026205E+00
         21   -1    0    0  502  501  0.00000000000E+00  0.00000000000E+00  0.69043435419E+03  0.69043435419E+03  0.00000000000E+00 0.  1.
         21   -1    0    0  501  502 -0.00000000000E+00 -0.00000000000E+00 -0.75002221542E+02  0.75002221542E+02  0.00000000000E+00 0.  1.
      99926    2    1    2    0    0  0.71054273576E-14  0.00000000000E+00  0.61543213265E+03  0.76543657573E+03  0.45512244679E+03 0.  0.
      99925    2    3    3    0    0  0.47744412399E+02  0.98784286478E+02  0.43570551638E+03  0.52051408010E+03  0.26278840616E+03 0.  0.
         25    1    4    4    0    0  0.39887528936E+02  0.30077459666E+02  0.15380798776E+03  0.20445066335E+03  0.12509000000E+03 0.  0.
         25    1    3    3    0    0 -0.47744412399E+02 -0.98784286478E+02  0.17972661627E+03  0.24492249563E+03  0.12509000000E+03 0.  0.
         25    1    4    4    0    0  0.78568834626E+01  0.68706826812E+02  0.28189752862E+03  0.31606341675E+03  0.12509000000E+03 0.  0.
<mgrwt>
<rscale>  2 0.45512245E+03</rscale>
<asrwt>0</asrwt>
<pdfrwt beam="1">  1       21 0.10153446E+00 0.45512245E+03</pdfrwt>
<pdfrwt beam="2">  1       21 0.11029739E-01 0.45512245E+03</pdfrwt>
<totfact> 0.49434317E+04</totfact>
</mgrwt>
</event>
<event>
 7    0  0.4712189E-002  0.4554743E+03  0.7546771E-02  0.1026102E+00
         21   -1    0    0  502  501  0.00000000000E+00  0.00000000000E+00  0.23745205719E+03  0.23745205719E+03  0.00000000000E+00 0.  1.
         21   -1    0    0  501  502 -0.00000000000E+00 -0.00000000000E+00 -0.21841973597E+03  0.21841973597E+03  0.00000000000E+00 0.  1.
      99926    2    1    2    0    0  0.00000000000E+00  0.00000000000E+00  0.19032321219E+02  0.45587179316E+03  0.45547432699E+03 0.  0.
      99925    2    3    3    0    0 -0.44808471943E+02  0.10428647334E+03  0.14816569734E+02  0.28690804456E+03  0.26308406948E+03 0.  0.
         25    1    3    3    0    0  0.44808471943E+02 -0.10428647334E+03  0.42157514848E+01  0.16896374860E+03  0.12509000000E+03 0.  0.
         25    1    4    4    0    0 -0.16948997909E+02  0.58309432835E+02 -0.32447262195E+02  0.14278512322E+03  0.12509000000E+03 0.  0.
         25    1    4    4    0    0 -0.27859474034E+02  0.45977040507E+02  0.47263831929E+02  0.14412292134E+03  0.12509000000E+03 0.  0.
<mgrwt>
<rscale>  2 0.45547433E+03</rscale>
<asrwt>0</asrwt>
<pdfrwt beam="1">  1       21 0.34919420E-01 0.45547433E+03</pdfrwt>
<pdfrwt beam="2">  1       21 0.32120549E-01 0.45547433E+03</pdfrwt>
<totfact> 0.68223429E+04</totfact>
</mgrwt>
</event>
<event>
 7    0  0.4712189E-002  0.4574318E+03  0.7546771E-02  0.1025529E+00
         21   -1    0    0  502  501  0.00000000000E+00  0.00000000000E+00  0.43974984863E+02  0.43974984863E+02  0.00000000000E+00 0.  1.
         21   -1    0    0  501  502 -0.00000000000E+00 -0.00000000000E+00 -0.11895618538E+04  0.11895618538E+04  0.00000000000E+00 0.  1.
      99926    2    1    2    0    0  0.71054273576E-14  0.00000000000E+00 -0.11455868690E+04  0.12335368387E+04  0.45743180701E+03 0.  0.
      99925    2    3    3    0    0 -0.36821832771E+02 -0.10237564664E+03 -0.61599364569E+03  0.67860160766E+03  0.26308810312E+03 0.  0.
         25    1    4    4    0    0 -0.17811774987E+02 -0.81582105352E+02 -0.40096780845E+03  0.42824711413E+03  0.12509000000E+03 0.  0.
         25    1    4    4    0    0 -0.19010057785E+02 -0.20793541286E+02 -0.21502583723E+03  0.25035449354E+03  0.12509000000E+03 0.  0.
         25    1    3    3    0    0  0.36821832771E+02  0.10237564664E+03 -0.52959322329E+03  0.55493523104E+03  0.12509000000E+03 0.  0.
<mgrwt>
<rscale>  2 0.45743181E+03</rscale>
<asrwt>0</asrwt>
<pdfrwt beam="1">  1       21 0.64669100E-02 0.45743181E+03</pdfrwt>
<pdfrwt beam="2">  1       21 0.17493556E+00 0.45743181E+03</pdfrwt>
<totfact> 0.30525608E+04</totfact>
</mgrwt>
</event>
<event>
 7    0  0.4712189E-002  0.4526068E+03  0.7546771E-02  0.1026948E+00
         21   -1    0    0  502  501  0.00000000000E+00  0.00000000000E+00  0.34012756602E+03  0.34012756602E+03  0.00000000000E+00 0. -1.
         21   -1    0    0  501  502 -0.00000000000E+00 -0.00000000000E+00 -0.15057063875E+03  0.15057063875E+03  0.00000000000E+00 0. -1.
      99926    2    1    2    0    0  0.17763568394E-14  0.00000000000E+00  0.18955692728E+03  0.49069820477E+03  0.45260678241E+03 0.  0.
      99925    2    3    3    0    0  0.11002075557E+02  0.11009044662E+03  0.11088060698E+03  0.30609478232E+03  0.26298014118E+03 0.  0.
         25    1    4    4    0    0  0.27871178059E+02  0.32234574527E+02  0.80422348803E+02  0.15469690575E+03  0.12509000000E+03 0.  0.
         25    1    3    3    0    0 -0.11002075557E+02 -0.11009044662E+03  0.78676320295E+02  0.18460342245E+03  0.12509000000E+03 0.  0.
         25    1    4    4    0    0 -0.16869102501E+02  0.77855872096E+02  0.30458258177E+02  0.15139787657E+03  0.12509000000E+03 0.  0.
<mgrwt>
<rscale>  2 0.45260678E+03</rscale>
<asrwt>0</asrwt>
<pdfrwt beam="1">  1       21 0.50018760E-01 0.45260678E+03</pdfrwt>
<pdfrwt beam="2">  1       21 0.22142741E-01 0.45260678E+03</pdfrwt>
<totfact> 0.67196830E+04</totfact>
</mgrwt>
</event>
<event>
 7    0  0.4712189E-002  0.4506198E+03  0.7546771E-02  0.1027537E+00
         21   -1    0    0  502  501  0.00000000000E+00  0.00000000000E+00  0.21648132237E+03  0.21648132237E+03  0.00000000000E+00 0.  1.
         21   -1    0    0  501  502 -0.00000000000E+00 -0.00000000000E+00 -0.23449852250E+03  0.23449852250E+03  0.00000000000E+00 0.  1.
      99926    2    1    2    0    0  0.00000000000E+00  0.00000000000E+00 -0.18017200131E+02  0.45097984487E+03  0.45061979647E+03 0.  0.
      99925    2    3    3    0    0 -0.52695870112E+02  0.85349131286E+02  0.31268934091E+02  0.28323611156E+03  0.26302779266E+03 0.  0.
         25    1    4    4    0    0  0.84202153856E+01  0.23132157807E+02  0.28912022690E+02  0.13072646981E+03  0.12509000000E+03 0.  0.
         25    1    4    4    0    0 -0.61116085498E+02  0.62216973478E+02  0.23569114001E+01  0.15250964175E+03  0.12509000000E+03 0.  0.
         25    1    3    3    0    0  0.52695870112E+02 -0.85349131286E+02 -0.49286134221E+02  0.16774373331E+03  0.12509000000E+03 0.  0.
<mgrwt>
<rscale>  2 0.45061980E+03</rscale>
<asrwt>0</asrwt>
<pdfrwt beam="1">  1       21 0.31835489E-01 0.45061980E+03</pdfrwt>
<pdfrwt beam="2">  1       21 0.34485077E-01 0.45061980E+03</pdfrwt>
<totfact> 0.71300846E+04</totfact>
</mgrwt>
</event>
<event>
 7    0  0.4712189E-002  0.4525241E+03  0.7546771E-02  0.1026972E+00
         21   -1    0    0  502  501  0.00000000000E+00  0.00000000000E+00  0.29643529239E+03  0.29643529239E+03  0.00000000000E+00 0.  1.
         21   -1    0    0  501  502 -0.00000000000E+00 -0.00000000000E+00 -0.17270047458E+03  0.17270047458E+03  0.00000000000E+00 0.  1.
      99926    2    1    2    0    0  0.00000000000E+00  0.00000000000E+00  0.12373481781E+03  0.46913576697E+03  0.45252410180E+03 0.  0.
      99925    2    3    3    0    0 -0.10688325767E+03  0.27936842151E+02  0.68739197933E+02  0.29341859585E+03  0.26299219977E+03 0.  0.
         25    1    4    4    0    0 -0.36640515038E+02  0.15569877782E+02 -0.55498659302E+01  0.13138971630E+03  0.12509000000E+03 0.  0.
         25    1    3    3    0    0  0.10688325767E+03 -0.27936842151E+02  0.54995619874E+02  0.17571717112E+03  0.12509000000E+03 0.  0.
         25    1    4    4    0    0 -0.70242742635E+02  0.12366964369E+02  0.74289063863E+02  0.16202887956E+03  0.12509000000E+03 0.  0.
<mgrwt>
<rscale>  2 0.45252410E+03</rscale>
<asrwt>0</asrwt>
<pdfrwt beam="1">  1       21 0.43593426E-01 0.45252410E+03</pdfrwt>
<pdfrwt beam="2">  1       21 0.25397129E-01 0.45252410E+03</pdfrwt>
<totfact> 0.68842350E+04</totfact>
</mgrwt>
</event>
<event>
 7    0  0.4712189E-002  0.4573966E+03  0.7546771E-02  0.1025539E+00
         21   -1    0    0  502  501  0.00000000000E+00  0.00000000000E+00  0.58723010297E+03  0.58723010297E+03  0.00000000000E+00 0. -1.
         21   -1    0    0  501  502 -0.00000000000E+00 -0.00000000000E+00 -0.89067134426E+02  0.89067134426E+02  0.00000000000E+00 0. -1.
      99926    2    1    2    0    0 -0.17763568394E-14  0.00000000000E+00  0.49816296854E+03  0.67629723739E+03  0.45739655670E+03 0.  0.
      99925    2    3    3    0    0 -0.15316982813E+02  0.10164445460E+03  0.39012927485E+03  0.48165656285E+03  0.26310832052E+03 0.  0.
         25    1    4    4    0    0 -0.28771692730E+02  0.42707242165E+02  0.13477605937E+03  0.19095500286E+03  0.12509000000E+03 0.  0.
         25    1    4    4    0    0  0.13454709916E+02  0.58937212436E+02  0.25535321548E+03  0.29070156000E+03  0.12509000000E+03 0.  0.
         25    1    3    3    0    0  0.15316982813E+02 -0.10164445460E+03  0.10803369369E+03  0.19464067454E+03  0.12509000000E+03 0.  0.
<mgrwt>
<rscale>  2 0.45739656E+03</rscale>
<asrwt>0</asrwt>
<pdfrwt beam="1">  1       21 0.86357366E-01 0.45739656E+03</pdfrwt>
<pdfrwt beam="2">  1       21 0.13098108E-01 0.45739656E+03</pdfrwt>
<totfact> 0.53197385E+04</totfact>
</mgrwt>
</event>
<event>
 7    0  0.4712189E-002  0.4279867E+03  0.7546771E-02  0.1034498E+00
         21   -1    0    0  502  501  0.00000000000E+00  0.00000000000E+00  0.57968927880E+03  0.57968927880E+03  0.00000000000E+00 0. -1.
         21   -1    0    0  501  502 -0.00000000000E+00 -0.00000000000E+00 -0.78996045451E+02  0.78996045451E+02  0.00000000000E+00 0. -1.
      99926    2    1    2    0    0 -0.71054273576E-14 -0.17763568394E-14  0.50069323335E+03  0.65868532425E+03  0.42798673164E+03 0.  0.
      99925    2    3    3    0    0  0.58148726048E+02  0.62313472913E+01  0.41918177575E+03  0.49833654861E+03  0.26307004871E+03 0.  0.
         25    1    4    4    0    0  0.54842829875E+02  0.25447269776E+02  0.17654525345E+03  0.22465759311E+03  0.12509000000E+03 0.  0.
         25    1    3    3    0    0 -0.58148726048E+02 -0.62313472913E+01  0.81511457593E+02  0.16034877564E+03  0.12509000000E+03 0.  0.
         25    1    4    4    0    0  0.33058961729E+01 -0.19215922485E+02  0.24263652231E+03  0.27367895550E+03  0.12509000000E+03 0.  0.
<mgrwt>
<rscale>  2 0.42798673E+03</rscale>
<asrwt>0</asrwt>
<pdfrwt beam="1">  1       21 0.85248421E-01 0.42798673E+03</pdfrwt>
<pdfrwt beam="2">  1       21 0.11617066E-01 0.42798673E+03</pdfrwt>
<totfact> 0.68701124E+04</totfact>
</mgrwt>
</event>
<event>
 7    0  0.4712189E-002  0.4550526E+03  0.7546771E-02  0.1026226E+00
         21   -1    0    0  502  501  0.00000000000E+00  0.00000000000E+00  0.23168211499E+03  0.23168211499E+03  0.00000000000E+00 0. -1.
         21   -1    0    0  501  502 -0.00000000000E+00 -0.00000000000E+00 -0.22344500451E+03  0.22344500451E+03  0.00000000000E+00 0. -1.
      99926    2    1    2    0    0  0.00000000000E+00  0.00000000000E+00  0.82371104735E+01  0.45512711950E+03  0.45505257379E+03 0.  0.
      99925    2    3    3    0    0 -0.34202270243E+02 -0.86472970746E+02  0.69712347490E+02  0.28757389564E+03  0.26304289403E+03 0.  0.
         25    1    3    3    0    0  0.34202270243E+02  0.86472970746E+02 -0.61475237016E+02  0.16755322386E+03  0.12509000000E+03 0.  0.
         25    1    4    4    0    0 -0.41431823859E+02 -0.11581295602E+02  0.43609781919E+02  0.13928403934E+03  0.12509000000E+03 0.  0.
         25    1    4    4    0    0  0.72295536152E+01 -0.74891675144E+02  0.26102565571E+02  0.14828985630E+03  0.12509000000E+03 0.  0.
<mgrwt>
<rscale>  2 0.45505257E+03</rscale>
<asrwt>0</asrwt>
<pdfrwt beam="1">  1       21 0.34070899E-01 0.45505257E+03</pdfrwt>
<pdfrwt beam="2">  1       21 0.32859559E-01 0.45505257E+03</pdfrwt>
<totfact> 0.68507740E+04</totfact>
</mgrwt>
</event>
<event>
 7    0  0.4712189E-002  0.4554600E+03  0.7546771E-02  0.1026106E+00
         21   -1    0    0  502  501  0.00000000000E+00  0.00000000000E+00  0.51873501270E+03  0.51873501270E+03  0.00000000000E+00 0. -1.
         21   -1    0    0  501  502 -0.00000000000E+00 -0.00000000000E+00 -0.99975792864E+02  0.99975792864E+02  0.00000000000E+00 0. -1.
      99926    2    1    2    0    0  0.00000000000E+00  0.00000000000E+00  0.41875921984E+03  0.61871080557E+03  0.45545996171E+03 0.  0.
      99925    2    3    3    0    0  0.43257655785E+02 -0.79886737894E+02  0.35607319339E+03  0.45188706119E+03  0.26298418459E+03 0.  0.
         25    1    3    3    0    0 -0.43257655785E+02  0.79886737894E+02  0.62686026448E+02  0.16682374437E+03  0.12509000000E+03 0.  0.
         25    1    4    4    0    0 -0.11167647516E+02 -0.59461633774E+02  0.20085384704E+03  0.24423385968E+03  0.12509000000E+03 0.  0.
         25    1    4    4    0    0  0.54425303301E+02 -0.20425104120E+02  0.15521934635E+03  0.20765320152E+03  0.12509000000E+03 0.  0.
<mgrwt>
<rscale>  2 0.45545996E+03</rscale>
<asrwt>0</asrwt>
<pdfrwt beam="1">  1       21 0.76284560E-01 0.45545996E+03</pdfrwt>
<pdfrwt beam="2">  1       21 0.14702323E-01 0.45545996E+03</pdfrwt>
<totfact> 0.57332572E+04</totfact>
</mgrwt>
</event>
<event>
 7    0  0.4712189E-002  0.4539437E+03  0.7546771E-02  0.1026552E+00
         21   -1    0    0  502  501  0.00000000000E+00  0.00000000000E+00  0.62554023591E+02  0.62554023591E+02  0.00000000000E+00 0. -1.
         21   -1    0    0  501  502 -0.00000000000E+00 -0.00000000000E+00 -0.82354772168E+03  0.82354772168E+03  0.00000000000E+00 0. -1.
      99926    2    1    2    0    0 -0.14210854715E-13  0.00000000000E+00 -0.76099369809E+03  0.88610174527E+03  0.45394371286E+03 0.  0.
      99925    2    3    3    0    0 -0.89521644175E+02 -0.67461405302E+02 -0.49081894025E+03  0.56797115282E+03  0.26291221414E+03 0.  0.
         25    1    3    3    0    0  0.89521644175E+02  0.67461405302E+02 -0.27017475784E+03  0.31813059245E+03  0.12509000000E+03 0.  0.
         25    1    4    4    0    0 -0.62195253291E+01 -0.32104578894E+02 -0.18958429582E+03  0.22947570635E+03  0.12509000000E+03 0.  0.
         25    1    4    4    0    0 -0.83302118846E+02 -0.35356826408E+02 -0.30123464443E+03  0.33849544647E+03  0.12509000000E+03 0.  0.
<mgrwt>
<rscale>  2 0.45394371E+03</rscale>
<asrwt>0</asrwt>
<pdfrwt beam="1">  1       21 0.91991213E-02 0.45394371E+03</pdfrwt>
<pdfrwt beam="2">  1       21 0.12110996E+00 0.45394371E+03</pdfrwt>
<totfact> 0.44204593E+04</totfact>
</mgrwt>
</event>
<event>
 7    0  0.4712189E-002  0.4542101E+03  0.7546771E-02  0.1026474E+00
         21   -1    0    0  502  501  0.00000000000E+00  0.00000000000E+00  0.14177526090E+03  0.14177526090E+03  0.00000000000E+00 0. -1.
         21   -1    0    0  501  502 -0.00000000000E+00 -0.00000000000E+00 -0.36379200866E+03  0.36379200866E+03  0.00000000000E+00 0. -1.
      99926    2    1    2    0    0  0.00000000000E+00  0.00000000000E+00 -0.22201674776E+03  0.50556726956E+03  0.45421011411E+03 0.  0.
      99925    2    3    3    0    0  0.39698260435E+02  0.57885357257E+02 -0.41997788105E+02  0.27539124908E+03  0.26296360851E+03 0.  0.
         25    1    4    4    0    0 -0.24594424994E+01  0.16994042507E+02  0.12417588473E+02  0.12687218348E+03  0.12509000000E+03 0.  0.
         25    1    4    4    0    0  0.42157702935E+02  0.40891314750E+02 -0.54415376578E+02  0.14851906560E+03  0.12509000000E+03 0.  0.
         25    1    3    3    0    0 -0.39698260435E+02 -0.57885357257E+02 -0.18001895966E+03  0.23017602048E+03  0.12509000000E+03 0.  0.
<mgrwt>
<rscale>  2 0.45421011E+03</rscale>
<asrwt>0</asrwt>
<pdfrwt beam="1">  1       21 0.20849303E-01 0.45421011E+03</pdfrwt>
<pdfrwt beam="2">  1       21 0.53498825E-01 0.45421011E+03</pdfrwt>
<totfact> 0.65289656E+04</totfact>
</mgrwt>
</event>
<event>
 7    0  0.4712189E-002  0.4519193E+03  0.7546771E-02  0.1027151E+00
         21   -1    0    0  502  501  0.00000000000E+00  0.00000000000E+00  0.72315751841E+03  0.72315751841E+03  0.00000000000E+00 0. -1.
         21   -1    0    0  501  502 -0.00000000000E+00 -0.00000000000E+00 -0.70603929278E+02  0.70603929278E+02  0.00000000000E+00 0. -1.
      99926    2    1    2    0    0  0.00000000000E+00 -0.14210854715E-13  0.65255358913E+03  0.79376144768E+03  0.45191929495E+03 0.  0.
      99925    2    3    3    0    0  0.44848710872E+02  0.98852644159E+02  0.44633314343E+03  0.52926639584E+03  0.26291898129E+03 0.  0.
         25    1    4    4    0    0  0.58463844840E+02  0.42343817373E+02  0.19623753939E+03  0.24365487885E+03  0.12509000000E+03 0.  0.
         25    1    4    4    0    0 -0.13615133968E+02  0.56508826785E+02  0.25009560404E+03  0.28561151699E+03  0.12509000000E+03 0.  0.
         25    1    3    3    0    0 -0.44848710872E+02 -0.98852644159E+02  0.20622044570E+03  0.26449505184E+03  0.12509000000E+03 0.  0.
<mgrwt>
<rscale>  2 0.45191929E+03</rscale>
<asrwt>0</asrwt>
<pdfrwt beam="1">  1       21 0.10634669E+00 0.45191929E+03</pdfrwt>
<pdfrwt beam="2">  1       21 0.10382931E-01 0.45191929E+03</pdfrwt>
<totfact> 0.49248019E+04</totfact>
</mgrwt>
</event>
<event>
 7    0  0.4712189E-002  0.4597712E+03  0.7546771E-02  0.1024848E+00
         21   -1    0    0  502  501  0.00000000000E+00  0.00000000000E+00  0.42929760770E+03  0.42929760770E+03  0.00000000000E+00 0. -1.
         21   -1    0    0  501  502 -0.00000000000E+00 -0.00000000000E+00 -0.12310196454E+03  0.12310196454E+03  0.00000000000E+00 0. -1.
      99926    2    1    2    0    0  0.44408920985E-15 -0.14210854715E-13  0.30619564316E+03  0.55239957224E+03  0.45977115559E+03 0.  0.
      99925    2    3    3    0    0 -0.17297836031E+01  0.11529615922E+03  0.16378876456E+03  0.33053604739E+03  0.26292798015E+03 0.  0.
         25    1    4    4    0    0  0.13088401515E+02  0.30865242191E+02  0.42327967199E+02  0.13624659385E+03  0.12509000000E+03 0.  0.
         25    1    3    3    0    0  0.17297836031E+01 -0.11529615922E+03  0.14240687860E+03  0.22186352484E+03  0.12509000000E+03 0.  0.
         25    1    4    4    0    0 -0.14818185118E+02  0.84430917032E+02  0.12146079736E+03  0.19428945354E+03  0.12509000000E+03 0.  0.
<mgrwt>
<rscale>  2 0.45977116E+03</rscale>
<asrwt>0</asrwt>
<pdfrwt beam="1">  1       21 0.63132001E-01 0.45977116E+03</pdfrwt>
<pdfrwt beam="2">  1       21 0.18103230E-01 0.45977116E+03</pdfrwt>
<totfact> 0.59432837E+04</totfact>
</mgrwt>
</event>
<event>
 7    0  0.4712189E-002  0.4697422E+03  0.7546771E-02  0.1021993E+00
         21   -1    0    0  502  501  0.00000000000E+00  0.00000000000E+00  0.32109417422E+04  0.32109417422E+04  0.00000000000E+00 0.  1.
         21   -1    0    0  501  502 -0.00000000000E+00 -0.00000000000E+00 -0.17180138338E+02  0.17180138338E+02  0.00000000000E+00 0.  1.
      99926    2    1    2    0    0 -0.14210854715E-13 -0.17763568394E-14  0.31937616039E+04  0.32281218806E+04  0.46974215620E+03 0.  0.
      99925    2    3    3    0    0 -0.11335609402E+03 -0.33604590474E+01  0.23695730755E+04  0.23868162671E+04  0.26297231083E+03 0.  0.
         25    1    4    4    0    0 -0.65035806325E+02 -0.33902329850E+02  0.14101351099E+04  0.14175710071E+04  0.12509000000E+03 0.  0.
         25    1    4    4    0    0 -0.48320287695E+02  0.30541870803E+02  0.95943796560E+03  0.96924525999E+03  0.12509000000E+03 0.  0.
         25    1    3    3    0    0  0.11335609402E+03  0.33604590474E+01  0.82418852842E+03  0.84130561344E+03  0.12509000000E+03 0.  0.
<mgrwt>
<rscale>  2 0.46974216E+03</rscale>
<asrwt>0</asrwt>
<pdfrwt beam="1">  1       21 0.47219690E+00 0.46974216E+03</pdfrwt>
<pdfrwt beam="2">  1       21 0.25264932E-02 0.46974216E+03</pdfrwt>
<totfact> 0.19338905E+03</totfact>
</mgrwt>
</event>
<event>
 7    0  0.4712189E-002  0.4548629E+03  0.7546771E-02  0.1026282E+00
         21   -1    0    0  502  501  0.00000000000E+00  0.00000000000E+00  0.44075576960E+02  0.44075576960E+02  0.00000000000E+00 0. -1.
         21   -1    0    0  501  502 -0.00000000000E+00 -0.00000000000E+00 -0.11735537648E+04  0.11735537648E+04  0.00000000000E+00 0. -1.
      99926    2    1    2    0    0 -0.35527136788E-14  0.00000000000E+00 -0.11294781879E+04  0.12176293418E+04  0.45486287727E+03 0.  0.
      99925    2    3    3    0    0  0.29460416413E+02  0.24906582652E+01 -0.10029450334E+04  0.10372623083E+04  0.26294531091E+03 0.  0.
         25    1    4    4    0    0  0.52532085836E+02 -0.10688399215E+02 -0.48129980662E+03  0.50017084469E+03  0.12509000000E+03 0.  0.
         25    1    4    4    0    0 -0.23071669423E+02  0.13179057480E+02 -0.52164522682E+03  0.53709146358E+03  0.12509000000E+03 0.  0.
         25    1    3    3    0    0 -0.29460416413E+02 -0.24906582652E+01 -0.12653315444E+03  0.18036703354E+03  0.12509000000E+03 0.  0.
<mgrwt>
<rscale>  2 0.45486288E+03</rscale>
<asrwt>0</asrwt>
<pdfrwt beam="1">  1       21 0.64817027E-02 0.45486288E+03</pdfrwt>
<pdfrwt beam="2">  1       21 0.17258143E+00 0.45486288E+03</pdfrwt>
<totfact> 0.31635902E+04</totfact>
</mgrwt>
</event>
<event>
 7    0  0.4712189E-002  0.4564005E+03  0.7546771E-02  0.1025830E+00
         21   -1    0    0  502  501  0.00000000000E+00  0.00000000000E+00  0.31832578719E+03  0.31832578719E+03  0.00000000000E+00 0.  1.
         21   -1    0    0  501  502 -0.00000000000E+00 -0.00000000000E+00 -0.16359140863E+03  0.16359140863E+03  0.00000000000E+00 0.  1.
      99926    2    1    2    0    0  0.71054273576E-14 -0.88817841970E-15  0.15473437856E+03  0.48191719582E+03  0.45640054307E+03 0.  0.
      99925    2    3    3    0    0 -0.44274606512E+02 -0.63939662380E+01  0.20843991463E+03  0.33862408262E+03  0.26309304007E+03 0.  0.
         25    1    4    4    0    0 -0.56872216423E+02 -0.22969618994E+02  0.12167779866E+03  0.18497309854E+03  0.12509000000E+03 0.  0.
         25    1    3    3    0    0  0.44274606512E+02  0.63939662380E+01 -0.53705536071E+02  0.14329311320E+03  0.12509000000E+03 0.  0.
         25    1    4    4    0    0  0.12597609911E+02  0.16575652756E+02  0.86762115970E+02  0.15365098408E+03  0.12509000000E+03 0.  0.
<mgrwt>
<rscale>  2 0.45640054E+03</rscale>
<asrwt>0</asrwt>
<pdfrwt beam="1">  1       21 0.46812616E-01 0.45640054E+03</pdfrwt>
<pdfrwt beam="2">  1       21 0.24057560E-01 0.45640054E+03</pdfrwt>
<totfact> 0.65825962E+04</totfact>
</mgrwt>
</event>
<event>
 7    0  0.4712189E-002  0.4537397E+03  0.7546771E-02  0.1026613E+00
         21   -1    0    0  502  501  0.00000000000E+00  0.00000000000E+00  0.84124473616E+03  0.84124473616E+03  0.00000000000E+00 0. -1.
         21   -1    0    0  501  502 -0.00000000000E+00 -0.00000000000E+00 -0.61183071705E+02  0.61183071705E+02  0.00000000000E+00 0. -1.
      99926    2    1    2    0    0 -0.14210854715E-13  0.00000000000E+00  0.78006166446E+03  0.90242780787E+03  0.45373973604E+03 0.  0.
      99925    2    3    3    0    0 -0.70576116404E+02  0.45477071220E+02  0.34417026027E+03  0.44123589927E+03  0.26303383534E+03 0.  0.
         25    1    4    4    0    0 -0.85972239980E+01 -0.34124840843E+01  0.12719218879E+03  0.17863627374E+03  0.12509000000E+03 0.  0.
         25    1    3    3    0    0  0.70576116404E+02 -0.45477071220E+02  0.43589140419E+03  0.46119190860E+03  0.12509000000E+03 0.  0.
         25    1    4    4    0    0 -0.61978892406E+02  0.48889555304E+02  0.21697807148E+03  0.26259962552E+03  0.12509000000E+03 0.  0.
<mgrwt>
<rscale>  2 0.45373974E+03</rscale>
<asrwt>0</asrwt>
<pdfrwt beam="1">  1       21 0.12371245E+00 0.45373974E+03</pdfrwt>
<pdfrwt beam="2">  1       21 0.89975110E-02 0.45373974E+03</pdfrwt>
<totfact> 0.43557076E+04</totfact>
</mgrwt>
</event>
<event>
 7    0  0.4712189E-002  0.4506959E+03  0.7546771E-02  0.1027515E+00
         21   -1    0    0  502  501  0.00000000000E+00  0.00000000000E+00  0.29609947614E+03  0.29609947614E+03  0.00000000000E+00 0.  1.
         21   -1    0    0  501  502 -0.00000000000E+00 -0.00000000000E+00 -0.17150211961E+03  0.17150211961E+03  0.00000000000E+00 0.  1.
      99926    2    1    2    0    0  0.00000000000E+00  0.00000000000E+00  0.12459735652E+03  0.46760159575E+03  0.45069585209E+03 0.  0.
      99925    2    3    3    0    0  0.79635478977E+02  0.16923625046E+02  0.33482944886E+01  0.27530738954E+03  0.26297286754E+03 0.  0.
         25    1    4    4    0    0 -0.16669743340E+01  0.29236412138E+01 -0.49438427599E+01  0.12523288770E+03  0.12509000000E+03 0.  0.
         25    1    4    4    0    0  0.81302453311E+02  0.13999983832E+02  0.82921372486E+01  0.15007450184E+03  0.12509000000E+03 0.  0.
         25    1    3    3    0    0 -0.79635478977E+02 -0.16923625046E+02  0.12124906203E+03  0.19229420621E+03  0.12509000000E+03 0.  0.
<mgrwt>
<rscale>  2 0.45069585E+03</rscale>
<asrwt>0</asrwt>
<pdfrwt beam="1">  1       21 0.43544041E-01 0.45069585E+03</pdfrwt>
<pdfrwt beam="2">  1       21 0.25220900E-01 0.45069585E+03</pdfrwt>
<totfact> 0.69973475E+04</totfact>
</mgrwt>
</event>
<event>
 7    0  0.4712189E-002  0.4542410E+03  0.7546771E-02  0.1026465E+00
         21   -1    0    0  502  501  0.00000000000E+00  0.00000000000E+00  0.23273636680E+03  0.23273636680E+03  0.00000000000E+00 0. -1.
         21   -1    0    0  501  502 -0.00000000000E+00 -0.00000000000E+00 -0.22164017727E+03  0.22164017727E+03  0.00000000000E+00 0. -1.
      99926    2    1    2    0    0 -0.71054273576E-14  0.00000000000E+00  0.11096189536E+02  0.45437654407E+03  0.45424103555E+03 0.  0.
      99925    2    3    3    0    0  0.59984742640E+02  0.34523926777E+01  0.10201012020E+03  0.28847615452E+03  0.26306337399E+03 0.  0.
         25    1    4    4    0    0  0.34220415864E+01  0.94679433932E+00  0.82261090060E+02  0.14975647507E+03  0.12509000000E+03 0.  0.
         25    1    4    4    0    0  0.56562701054E+02  0.25055983384E+01  0.19749030138E+02  0.13871967944E+03  0.12509000000E+03 0.  0.
         25    1    3    3    0    0 -0.59984742640E+02 -0.34523926777E+01 -0.90913930663E+02  0.16590038955E+03  0.12509000000E+03 0.  0.
<mgrwt>
<rscale>  2 0.45424104E+03</rscale>
<asrwt>0</asrwt>
<pdfrwt beam="1">  1       21 0.34225936E-01 0.45424104E+03</pdfrwt>
<pdfrwt beam="2">  1       21 0.32594144E-01 0.45424104E+03</pdfrwt>
<totfact> 0.69008447E+04</totfact>
</mgrwt>
</event>
<event>
 7    0  0.4712189E-002  0.4568299E+03  0.7546771E-02  0.1025705E+00
         21   -1    0    0  502  501  0.00000000000E+00  0.00000000000E+00  0.27690810599E+03  0.27690810599E+03  0.00000000000E+00 0.  1.
         21   -1    0    0  501  502 -0.00000000000E+00 -0.00000000000E+00 -0.18841410970E+03  0.18841410970E+03  0.00000000000E+00 0.  1.
      99926    2    1    2    0    0  0.00000000000E+00  0.00000000000E+00  0.88493996287E+02  0.46532221569E+03  0.45682992135E+03 0.  0.
      99925    2    3    3    0    0  0.28650578038E+02  0.46649442194E+02  0.15834933922E+03  0.31194587099E+03  0.26313245166E+03 0.  0.
         25    1    4    4    0    0  0.48843672836E+02  0.23621283501E+02  0.55825911004E+02  0.14733536524E+03  0.12509000000E+03 0.  0.
         25    1    4    4    0    0 -0.20193094799E+02  0.23028158693E+02  0.10252342821E+03  0.16461050575E+03  0.12509000000E+03 0.  0.
         25    1    3    3    0    0 -0.28650578038E+02 -0.46649442194E+02 -0.69855342929E+02  0.15337634470E+03  0.12509000000E+03 0.  0.
<mgrwt>
<rscale>  2 0.45682992E+03</rscale>
<asrwt>0</asrwt>
<pdfrwt beam="1">  1       21 0.40721780E-01 0.45682992E+03</pdfrwt>
<pdfrwt beam="2">  1       21 0.27707957E-01 0.45682992E+03</pdfrwt>
<totfact> 0.66809144E+04</totfact>
</mgrwt>
</event>
<event>
 7    0  0.4712189E-002  0.4548582E+03  0.7546771E-02  0.1026283E+00
         21   -1    0    0  502  501  0.00000000000E+00  0.00000000000E+00  0.72043673034E+03  0.72043673034E+03  0.00000000000E+00 0. -1.
         21   -1    0    0  501  502 -0.00000000000E+00 -0.00000000000E+00 -0.71795318326E+02  0.71795318326E+02  0.00000000000E+00 0. -1.
      99926    2    1    2    0    0  0.14210854715E-13  0.00000000000E+00  0.64864141202E+03  0.79223204867E+03  0.45485815102E+03 0.  0.
      99925    2    3    3    0    0 -0.69331582049E+02  0.35066923622E+02  0.55138196808E+03  0.61575693729E+03  0.26286493432E+03 0.  0.
         25    1    3    3    0    0  0.69331582049E+02 -0.35066923622E+02  0.97259443937E+02  0.17647511138E+03  0.12509000000E+03 0.  0.
         25    1    4    4    0    0 -0.20764163817E+01  0.26370185675E+02  0.31346067265E+03  0.33853330648E+03  0.12509000000E+03 0.  0.
         25    1    4    4    0    0 -0.67255165667E+02  0.86967379472E+01  0.23792129543E+03  0.27722363081E+03  0.12509000000E+03 0.  0.
<mgrwt>
<rscale>  2 0.45485815E+03</rscale>
<asrwt>0</asrwt>
<pdfrwt beam="1">  1       21 0.10594657E+00 0.45485815E+03</pdfrwt>
<pdfrwt beam="2">  1       21 0.10558135E-01 0.45485815E+03</pdfrwt>
<totfact> 0.48196479E+04</totfact>
</mgrwt>
</event>
<event>
 7    0  0.4712189E-002  0.4456032E+03  0.7546771E-02  0.1029041E+00
         21   -1    0    0  502  501  0.00000000000E+00  0.00000000000E+00  0.30357103716E+02  0.30357103716E+02  0.00000000000E+00 0. -1.
         21   -1    0    0  501  502 -0.00000000000E+00 -0.00000000000E+00 -0.16352206004E+04  0.16352206004E+04  0.00000000000E+00 0. -1.
      99926    2    1    2    0    0  0.00000000000E+00 -0.20539125956E-14 -0.16048634967E+04  0.16655777042E+04  0.44560323772E+03 0.  0.
      99925    2    3    3    0    0  0.84018893625E+02 -0.13476327417E+00 -0.78895747329E+03  0.83587333522E+03  0.26300407836E+03 0.  0.
         25    1    3    3    0    0 -0.84018893625E+02  0.13476327417E+00 -0.81590602344E+03  0.82970436894E+03  0.12509000000E+03 0.  0.
         25    1    4    4    0    0  0.53209205125E+02  0.21260954939E+02 -0.50351819801E+03  0.52197828647E+03  0.12509000000E+03 0.  0.
         25    1    4    4    0    0  0.30809688499E+02 -0.21395718213E+02 -0.28543927527E+03  0.31389504875E+03  0.12509000000E+03 0.  0.
<mgrwt>
<rscale>  2 0.44560324E+03</rscale>
<asrwt>0</asrwt>
<pdfrwt beam="1">  1       21 0.44642800E-02 0.44560324E+03</pdfrwt>
<pdfrwt beam="2">  1       21 0.24047362E+00 0.44560324E+03</pdfrwt>
<totfact> 0.21515140E+04</totfact>
</mgrwt>
</event>
<event>
 7    0  0.4712189E-002  0.4563469E+03  0.7546771E-02  0.1025846E+00
         21   -1    0    0  502  501  0.00000000000E+00  0.00000000000E+00  0.12237451144E+04  0.12237451144E+04  0.00000000000E+00 0.  1.
         21   -1    0    0  501  502 -0.00000000000E+00 -0.00000000000E+00 -0.42544098900E+02  0.42544098900E+02  0.00000000000E+00 0.  1.
      99926    2    1    2    0    0  0.00000000000E+00  0.00000000000E+00  0.11812010155E+04  0.12662892133E+04  0.45634694334E+03 0.  0.
      99925    2    3    3    0    0  0.42955892961E+02 -0.89268864009E+02  0.58484995991E+03  0.64895929468E+03  0.26321958840E+03 0.  0.
         25    1    3    3    0    0 -0.42955892961E+02  0.89268864009E+02  0.59635105557E+03  0.61732991860E+03  0.12509000000E+03 0.  0.
         25    1    4    4    0    0 -0.10157160338E+02 -0.55861534448E+02  0.23575138031E+03  0.27285509040E+03  0.12509000000E+03 0.  0.
         25    1    4    4    0    0  0.53113053300E+02 -0.33407329561E+02  0.34909857960E+03  0.37610420428E+03  0.12509000000E+03 0.  0.
<mgrwt>
<rscale>  2 0.45634694E+03</rscale>
<asrwt>0</asrwt>
<pdfrwt beam="1">  1       21 0.17996249E+00 0.45634694E+03</pdfrwt>
<pdfrwt beam="2">  1       21 0.62564859E-02 0.45634694E+03</pdfrwt>
<totfact> 0.29796066E+04</totfact>
</mgrwt>
</event>
<event>
 7    0  0.4712189E-002  0.4530926E+03  0.7546771E-02  0.1026804E+00
         21   -1    0    0  502  501  0.00000000000E+00  0.00000000000E+00  0.14806838634E+04  0.14806838634E+04  0.00000000000E+00 0.  1.
         21   -1    0    0  501  502 -0.00000000000E+00 -0.00000000000E+00 -0.34661840275E+02  0.34661840275E+02  0.00000000000E+00 0.  1.
      99926    2    1    2    0    0 -0.35527136788E-14  0.00000000000E+00  0.14460220231E+04  0.15153457037E+04  0.45309260674E+03 0.  0.
      99925    2    3    3    0    0 -0.24335292773E+02  0.10033372716E+03  0.77158705247E+03  0.82168216779E+03  0.26297517381E+03 0.  0.
         25    1    3    3    0    0  0.24335292773E+02 -0.10033372716E+03  0.67443497065E+03  0.69366353588E+03  0.12509000000E+03 0.  0.
         25    1    4    4    0    0 -0.27184359346E+02  0.55373606708E+02  0.50315184480E+03  0.52212499724E+03  0.12509000000E+03 0.  0.
         25    1    4    4    0    0  0.28490665723E+01  0.44960120449E+02  0.26843520766E+03  0.29955717055E+03  0.12509000000E+03 0.  0.
<mgrwt>
<rscale>  2 0.45309261E+03</rscale>
<asrwt>0</asrwt>
<pdfrwt beam="1">  1       21 0.21774759E+00 0.45309261E+03</pdfrwt>
<pdfrwt beam="2">  1       21 0.50973304E-02 0.45309261E+03</pdfrwt>
<totfact> 0.23755505E+04</totfact>
</mgrwt>
</event>
<event>
 7    0  0.4712189E-002  0.4533650E+03  0.7546771E-02  0.1026723E+00
         21   -1    0    0  502  501  0.00000000000E+00  0.00000000000E+00  0.20948076932E+04  0.20948076932E+04  0.00000000000E+00 0. -1.
         21   -1    0    0  501  502 -0.00000000000E+00 -0.00000000000E+00 -0.24529678484E+02  0.24529678484E+02  0.00000000000E+00 0. -1.
      99926    2    1    2    0    0  0.00000000000E+00  0.00000000000E+00  0.20702780147E+04  0.21193373717E+04  0.45336501497E+03 0.  0.
      99925    2    3    3    0    0 -0.21026908696E+02 -0.10761803238E+03  0.12044596482E+04  0.12376839683E+04  0.26289691799E+03 0.  0.
         25    1    4    4    0    0  0.23946683281E+02 -0.59797605131E+02  0.51328497199E+03  0.53222003701E+03  0.12509000000E+03 0.  0.
         25    1    3    3    0    0  0.21026908696E+02  0.10761803238E+03  0.86581836654E+03  0.88165340340E+03  0.12509000000E+03 0.  0.
         25    1    4    4    0    0 -0.44973591977E+02 -0.47820427250E+02  0.69117467618E+03  0.70546393128E+03  0.12509000000E+03 0.  0.
<mgrwt>
<rscale>  2 0.45336501E+03</rscale>
<asrwt>0</asrwt>
<pdfrwt beam="1">  1       21 0.30805983E+00 0.45336501E+03</pdfrwt>
<pdfrwt beam="2">  1       21 0.36073071E-02 0.45336501E+03</pdfrwt>
<totfact> 0.12009242E+04</totfact>
</mgrwt>
</event>
<event>
 7    0  0.4712189E-002  0.4461021E+03  0.7546771E-02  0.1028891E+00
         21   -1    0    0  502  501  0.00000000000E+00  0.00000000000E+00  0.25985389222E+03  0.25985389222E+03  0.00000000000E+00 0.  1.
         21   -1    0    0  501  502 -0.00000000000E+00 -0.00000000000E+00 -0.19146055727E+03  0.19146055727E+03  0.00000000000E+00 0.  1.
      99926    2    1    2    0    0 -0.71054273576E-14  0.00000000000E+00  0.68393334948E+02  0.45131444950E+03  0.44610210049E+03 0.  0.
      99925    2    3    3    0    0  0.38748795621E+02  0.93347001806E+02  0.16106327941E+02  0.28220924227E+03  0.26299716865E+03 0.  0.
         25    1    4    4    0    0  0.16890530136E+02  0.55801738340E+02  0.47794105067E+02  0.14605104789E+03  0.12509000000E+03 0.  0.
         25    1    4    4    0    0  0.21858265484E+02  0.37545263466E+02 -0.31687777126E+02  0.13615819438E+03  0.12509000000E+03 0.  0.
         25    1    3    3    0    0 -0.38748795621E+02 -0.93347001806E+02  0.52287007007E+02  0.16910520722E+03  0.12509000000E+03 0.  0.
<mgrwt>
<rscale>  2 0.44610210E+03</rscale>
<asrwt>0</asrwt>
<pdfrwt beam="1">  1       21 0.38213808E-01 0.44610210E+03</pdfrwt>
<pdfrwt beam="2">  1       21 0.28155964E-01 0.44610210E+03</pdfrwt>
<totfact> 0.73926200E+04</totfact>
</mgrwt>
</event>
<event>
 7    0  0.4712189E-002  0.4561804E+03  0.7546771E-02  0.1025895E+00
         21   -1    0    0  502  501  0.00000000000E+00  0.00000000000E+00  0.81075018949E+03  0.81075018949E+03  0.00000000000E+00 0. -1.
         21   -1    0    0  501  502 -0.00000000000E+00 -0.00000000000E+00 -0.64169132876E+02  0.64169132876E+02  0.00000000000E+00 0. -1.
      99926    2    1    2    0    0  0.00000000000E+00 -0.14210854715E-13  0.74658105662E+03  0.87491932237E+03  0.45618038817E+03 0.  0.
      99925    2    3    3    0    0  0.42709069274E+02 -0.98436389149E+02  0.54444335882E+03  0.61411107043E+03  0.26305902106E+03 0.  0.
         25    1    4    4    0    0  0.33860705351E+01 -0.86695447505E+02  0.30393666318E+03  0.33993024198E+03  0.12509000000E+03 0.  0.
         25    1    4    4    0    0  0.39322998739E+02 -0.11740941644E+02  0.24050669564E+03  0.27418082845E+03  0.12509000000E+03 0.  0.
         25    1    3    3    0    0 -0.42709069274E+02  0.98436389149E+02  0.20213769780E+03  0.26080825194E+03  0.12509000000E+03 0.  0.
<mgrwt>
<rscale>  2 0.45618039E+03</rscale>
<asrwt>0</asrwt>
<pdfrwt beam="1">  1       21 0.11922796E+00 0.45618039E+03</pdfrwt>
<pdfrwt beam="2">  1       21 0.94366377E-02 0.45618039E+03</pdfrwt>
<totfact> 0.43928339E+04</totfact>
</mgrwt>
</event>
<event>
 7    0  0.4712189E-002  0.4574016E+03  0.7546771E-02  0.1025538E+00
         21   -1    0    0  502  501  0.00000000000E+00  0.00000000000E+00  0.64090950562E+03  0.64090950562E+03  0.00000000000E+00 0. -1.
         21   -1    0    0  501  502 -0.00000000000E+00 -0.00000000000E+00 -0.81609123736E+02  0.81609123736E+02  0.00000000000E+00 0. -1.
      99926    2    1    2    0    0  0.00000000000E+00  0.71054273576E-14  0.55930038188E+03  0.72251862935E+03  0.45740163160E+03 0.  0.
      99925    2    3    3    0    0  0.72304641398E+02 -0.18725108618E+02  0.21291071022E+03  0.34673690602E+03  0.26328106770E+03 0.  0.
         25    1    3    3    0    0 -0.72304641398E+02  0.18725108618E+02  0.34638967166E+03  0.37578172334E+03  0.12509000000E+03 0.  0.
         25    1    4    4    0    0  0.28733300090E+02  0.20957015217E+02  0.13740011827E+03  0.18918535784E+03  0.12509000000E+03 0.  0.
         25    1    4    4    0    0  0.43571341309E+02 -0.39682123835E+02  0.75510591946E+02  0.15755154817E+03  0.12509000000E+03 0.  0.
<mgrwt>
<rscale>  2 0.45740163E+03</rscale>
<asrwt>0</asrwt>
<pdfrwt beam="1">  1       21 0.94251395E-01 0.45740163E+03</pdfrwt>
<pdfrwt beam="2">  1       21 0.12001342E-01 0.45740163E+03</pdfrwt>
<totfact> 0.50732282E+04</totfact>
</mgrwt>
</event>
<event>
 7    0  0.4712189E-002  0.4584840E+03  0.7546771E-02  0.1025222E+00
         21   -1    0    0  502  501  0.00000000000E+00  0.00000000000E+00  0.22861720960E+02  0.22861720960E+02  0.00000000000E+00 0.  1.
         21   -1    0    0  501  502 -0.00000000000E+00 -0.00000000000E+00 -0.22986852197E+04  0.22986852197E+04  0.00000000000E+00 0.  1.
      99926    2    1    2    0    0  0.00000000000E+00  0.71054273576E-14 -0.22758234987E+04  0.23215469406E+04  0.45848402401E+03 0.  0.
      99925    2    3    3    0    0 -0.74002931324E+02  0.21471934645E+02 -0.98575229164E+03  0.10231368724E+04  0.26299049680E+03 0.  0.
         25    1    3    3    0    0  0.74002931324E+02 -0.21471934645E+02 -0.12900712071E+04  0.12984100682E+04  0.12509000000E+03 0.  0.
         25    1    4    4    0    0 -0.62609589112E+02  0.36331195382E+02 -0.60076064844E+03  0.61790030039E+03  0.12509000000E+03 0.  0.
         25    1    4    4    0    0 -0.11393342212E+02 -0.14859260737E+02 -0.38499164320E+03  0.40523657203E+03  0.12509000000E+03 0.  0.
<mgrwt>
<rscale>  2 0.45848402E+03</rscale>
<asrwt>0</asrwt>
<pdfrwt beam="1">  1       21 0.33620179E-02 0.45848402E+03</pdfrwt>
<pdfrwt beam="2">  1       21 0.33804193E+00 0.45848402E+03</pdfrwt>
<totfact> 0.88914827E+03</totfact>
</mgrwt>
</event>
<event>
 7    0  0.4712189E-002  0.4535077E+03  0.7546771E-02  0.1026681E+00
         21   -1    0    0  502  501  0.00000000000E+00  0.00000000000E+00  0.10830907369E+03  0.10830907369E+03  0.00000000000E+00 0.  1.
         21   -1    0    0  501  502 -0.00000000000E+00 -0.00000000000E+00 -0.47472752392E+03  0.47472752392E+03  0.00000000000E+00 0.  1.
      99926    2    1    2    0    0  0.14210854715E-13 -0.26645352591E-14 -0.36641845023E+03  0.58303659761E+03  0.45350765537E+03 0.  0.
      99925    2    3    3    0    0 -0.86641168351E+02  0.65205806454E+01 -0.32113824101E+03  0.42414350313E+03  0.26309452937E+03 0.  0.
         25    1    4    4    0    0 -0.62427819904E+01  0.16856330275E+02 -0.17044697565E+03  0.21218573893E+03  0.12509000000E+03 0.  0.
         25    1    3    3    0    0  0.86641168351E+02 -0.65205806454E+01 -0.45280209217E+02  0.15889309448E+03  0.12509000000E+03 0.  0.
         25    1    4    4    0    0 -0.80398386361E+02 -0.10335749629E+02 -0.15069126536E+03  0.21195776420E+03  0.12509000000E+03 0.  0.
<mgrwt>
<rscale>  2 0.45350766E+03</rscale>
<asrwt>0</asrwt>
<pdfrwt beam="1">  1       21 0.15927806E-01 0.45350766E+03</pdfrwt>
<pdfrwt beam="2">  1       21 0.69812869E-01 0.45350766E+03</pdfrwt>
<totfact> 0.60444664E+04</totfact>
</mgrwt>
</event>
<event>
 7    0  0.4712189E-002  0.4517224E+03  0.7546771E-02  0.1027210E+00
         21   -1    0    0  502  501  0.00000000000E+00  0.00000000000E+00  0.95054814898E+03  0.95054814898E+03  0.00000000000E+00 0. -1.
         21   -1    0    0  501  502 -0.00000000000E+00 -0.00000000000E+00 -0.53667220580E+02  0.53667220580E+02  0.00000000000E+00 0. -1.
      99926    2    1    2    0    0  0.00000000000E+00  0.00000000000E+00  0.89688092840E+03  0.10042153696E+04  0.45172238016E+03 0.  0.
      99925    2    3    3    0    0 -0.98515955318E+02  0.35286551510E+02  0.48918959929E+03  0.56511371606E+03  0.26286215753E+03 0.  0.
         25    1    4    4    0    0 -0.26627017768E+02  0.24200494333E+02  0.16549820042E+03  0.21055123947E+03  0.12509000000E+03 0.  0.
         25    1    3    3    0    0  0.98515955318E+02 -0.35286551510E+02  0.40769132911E+03  0.43910165350E+03  0.12509000000E+03 0.  0.
         25    1    4    4    0    0 -0.71888937551E+02  0.11086057177E+02  0.32369139887E+03  0.35456247659E+03  0.12509000000E+03 0.  0.
<mgrwt>
<rscale>  2 0.45172238E+03</rscale>
<asrwt>0</asrwt>
<pdfrwt beam="1">  1       21 0.13978648E+00 0.45172238E+03</pdfrwt>
<pdfrwt beam="2">  1       21 0.78922389E-02 0.45172238E+03</pdfrwt>
<totfact> 0.40017758E+04</totfact>
</mgrwt>
</event>
<event>
 7    0  0.4712189E-002  0.4614939E+03  0.7546771E-02  0.1024349E+00
         21   -1    0    0  502  501  0.00000000000E+00  0.00000000000E+00  0.18931849291E+03  0.18931849291E+03  0.00000000000E+00 0. -1.
         21   -1    0    0  501  502 -0.00000000000E+00 -0.00000000000E+00 -0.28124117286E+03  0.28124117286E+03  0.00000000000E+00 0. -1.
      99926    2    1    2    0    0  0.00000000000E+00  0.00000000000E+00 -0.91922679956E+02  0.47055966577E+03  0.46149390024E+03 0.  0.
      99925    2    3    3    0    0 -0.28359929157E+02 -0.22756954284E+02 -0.17329515116E+03  0.31696555221E+03  0.26289501197E+03 0.  0.
         25    1    4    4    0    0 -0.45673093616E+02 -0.89838009004E+01 -0.58417652165E+02  0.14569444170E+03  0.12509000000E+03 0.  0.
         25    1    4    4    0    0  0.17313164459E+02 -0.13773153384E+02 -0.11487749900E+03  0.17127111050E+03  0.12509000000E+03 0.  0.
         25    1    3    3    0    0  0.28359929157E+02  0.22756954284E+02  0.81372471205E+02  0.15359411356E+03  0.12509000000E+03 0.  0.
<mgrwt>
<rscale>  2 0.46149390E+03</rscale>
<asrwt>0</asrwt>
<pdfrwt beam="1">  1       21 0.27840955E-01 0.46149390E+03</pdfrwt>
<pdfrwt beam="2">  1       21 0.41358996E-01 0.46149390E+03</pdfrwt>
<totfact> 0.64029831E+04</totfact>
</mgrwt>
</event>
<event>
 7    0  0.4712189E-002  0.4499550E+03  0.7546771E-02  0.1027735E+00
         21   -1    0    0  502  501  0.00000000000E+00  0.00000000000E+00  0.25175600565E+02  0.25175600565E+02  0.00000000000E+00 0.  1.
         21   -1    0    0  501  502 -0.00000000000E+00 -0.00000000000E+00 -0.20104733298E+04  0.20104733298E+04  0.00000000000E+00 0.  1.
      99926    2    1    2    0    0  0.00000000000E+00  0.00000000000E+00 -0.19852977292E+04  0.20356489303E+04  0.44995499107E+03 0.  0.
      99925    2    3    3    0    0 -0.77613352393E+02  0.13878522625E+02 -0.15928559273E+04  0.16162749662E+04  0.26256106942E+03 0.  0.
         25    1    3    3    0    0  0.77613352393E+02 -0.13878522625E+02 -0.39244180187E+03  0.41937396416E+03  0.12509000000E+03 0.  0.
         25    1    4    4    0    0 -0.69047296833E+02  0.18994960243E+02 -0.70394329920E+03  0.71854854693E+03  0.12509000000E+03 0.  0.
         25    1    4    4    0    0 -0.85660555599E+01 -0.51164376183E+01 -0.88891262815E+03  0.89772641925E+03  0.12509000000E+03 0.  0.
<mgrwt>
<rscale>  2 0.44995499E+03</rscale>
<asrwt>0</asrwt>
<pdfrwt beam="1">  1       21 0.37022937E-02 0.44995499E+03</pdfrwt>
<pdfrwt beam="2">  1       21 0.29565788E+00 0.44995499E+03</pdfrwt>
<totfact> 0.13663707E+04</totfact>
</mgrwt>
</event>
<event>
 7    0  0.4712189E-002  0.4560098E+03  0.7546771E-02  0.1025945E+00
         21   -1    0    0  502  501  0.00000000000E+00  0.00000000000E+00  0.17746716413E+03  0.17746716413E+03  0.00000000000E+00 0.  1.
         21   -1    0    0  501  502 -0.00000000000E+00 -0.00000000000E+00 -0.29293443543E+03  0.29293443543E+03  0.00000000000E+00 0.  1.
      99926    2    1    2    0    0 -0.35527136788E-14  0.00000000000E+00 -0.11546727129E+03  0.47040159956E+03  0.45600983995E+03 0.  0.
      99925    2    3    3    0    0  0.27773750126E+02  0.29798956214E+02 -0.18262079066E+03  0.32269763126E+03  0.26291452804E+03 0.  0.
         25    1    4    4    0    0 -0.80741837060E+01 -0.17484202832E+02 -0.10147262753E+03  0.16221927145E+03  0.12509000000E+03 0.  0.
         25    1    3    3    0    0 -0.27773750126E+02 -0.29798956214E+02  0.67153519367E+02  0.14770396830E+03  0.12509000000E+03 0.  0.
         25    1    4    4    0    0  0.35847933832E+02  0.47283159046E+02 -0.81148163125E+02  0.16047835981E+03  0.12509000000E+03 0.  0.
<mgrwt>
<rscale>  2 0.45600984E+03</rscale>
<asrwt>0</asrwt>
<pdfrwt beam="1">  1       21 0.26098112E-01 0.45600984E+03</pdfrwt>
<pdfrwt beam="2">  1       21 0.43078593E-01 0.45600984E+03</pdfrwt>
<totfact> 0.66868580E+04</totfact>
</mgrwt>
</event>
<event>
 7    0  0.4712189E-002  0.4281063E+03  0.7546771E-02  0.1034460E+00
         21   -1    0    0  502  501  0.00000000000E+00  0.00000000000E+00  0.10290053102E+04  0.10290053102E+04  0.00000000000E+00 0. -1.
         21   -1    0    0  501  502 -0.00000000000E+00 -0.00000000000E+00 -0.44527224515E+02  0.44527224515E+02  0.00000000000E+00 0. -1.
      99926    2    1    2    0    0  0.00000000000E+00  0.17763568394E-14  0.98447808570E+03  0.10735325347E+04  0.42810629743E+03 0.  0.
      99925    2    3    3    0    0  0.19527601938E+02 -0.11499121819E+02  0.84188913241E+03  0.88250197503E+03  0.26366430858E+03 0.  0.
         25    1    4    4    0    0  0.29674234549E+02 -0.33756566770E+02  0.35067323999E+03  0.37501905997E+03  0.12509000000E+03 0.  0.
         25    1    4    4    0    0 -0.10146632611E+02  0.22257444952E+02  0.49121589241E+03  0.50748291505E+03  0.12509000000E+03 0.  0.
         25    1    3    3    0    0 -0.19527601938E+02  0.11499121819E+02  0.14258895329E+03  0.19103055970E+03  0.12509000000E+03 0.  0.
<mgrwt>
<rscale>  2 0.42810630E+03</rscale>
<asrwt>0</asrwt>
<pdfrwt beam="1">  1       21 0.15132430E+00 0.42810630E+03</pdfrwt>
<pdfrwt beam="2">  1       21 0.65481219E-02 0.42810630E+03</pdfrwt>
<totfact> 0.45189946E+04</totfact>
</mgrwt>
</event>
<event>
 7    0  0.4712189E-002  0.4574186E+03  0.7546771E-02  0.1025533E+00
         21   -1    0    0  502  501  0.00000000000E+00  0.00000000000E+00  0.26595301612E+03  0.26595301612E+03  0.00000000000E+00 0. -1.
         21   -1    0    0  501  502 -0.00000000000E+00 -0.00000000000E+00 -0.19668117433E+03  0.19668117433E+03  0.00000000000E+00 0. -1.
      99926    2    1    2    0    0 -0.71054273576E-14 -0.14210854715E-13  0.69271841788E+02  0.46263419045E+03  0.45741863332E+03 0.  0.
      99925    2    3    3    0    0  0.46550631354E+02  0.93436573126E+02 -0.61355773065E+01  0.28310385476E+03  0.26308324309E+03 0.  0.
         25    1    4    4    0    0  0.62220710213E+02  0.55113511439E+02 -0.15625942300E+02  0.15099865594E+03  0.12509000000E+03 0.  0.
         25    1    3    3    0    0 -0.46550631354E+02 -0.93436573126E+02  0.75407419094E+02  0.17953033569E+03  0.12509000000E+03 0.  0.
         25    1    4    4    0    0 -0.15670078859E+02  0.38323061687E+02  0.94903649938E+01  0.13210519882E+03  0.12509000000E+03 0.  0.
<mgrwt>
<rscale>  2 0.45741863E+03</rscale>
<asrwt>0</asrwt>
<pdfrwt beam="1">  1       21 0.39110738E-01 0.45741863E+03</pdfrwt>
<pdfrwt beam="2">  1       21 0.28923702E-01 0.45741863E+03</pdfrwt>
<totfact> 0.66693340E+04</totfact>
</mgrwt>
</event>
<event>
 7    0  0.4712189E-002  0.4568737E+03  0.7546771E-02  0.1025692E+00
         21   -1    0    0  502  501  0.00000000000E+00  0.00000000000E+00  0.26342483273E+03  0.26342483273E+03  0.00000000000E+00 0.  1.
         21   -1    0    0  501  502 -0.00000000000E+00 -0.00000000000E+00 -0.19809592591E+03  0.19809592591E+03  0.00000000000E+00 0.  1.
      99926    2    1    2    0    0  0.00000000000E+00  0.71054273576E-14  0.65328906823E+02  0.46152075864E+03  0.45687366371E+03 0.  0.
      99925    2    3    3    0    0 -0.94208288798E+02 -0.51187317536E+02 -0.71601447445E+00  0.28402489141E+03  0.26301004374E+03 0.  0.
         25    1    4    4    0    0 -0.70929391597E+02 -0.15763423201E+01  0.22312639306E+02  0.14552946581E+03  0.12509000000E+03 0.  0.
         25    1    3    3    0    0  0.94208288798E+02  0.51187317536E+02  0.66044921298E+02  0.17749586723E+03  0.12509000000E+03 0.  0.
         25    1    4    4    0    0 -0.23278897202E+02 -0.49610975216E+02 -0.23028653781E+02  0.13849542560E+03  0.12509000000E+03 0.  0.
<mgrwt>
<rscale>  2 0.45687366E+03</rscale>
<asrwt>0</asrwt>
<pdfrwt beam="1">  1       21 0.38738946E-01 0.45687366E+03</pdfrwt>
<pdfrwt beam="2">  1       21 0.29131754E-01 0.45687366E+03</pdfrwt>
<totfact> 0.67062232E+04</totfact>
</mgrwt>
</event>
<event>
 7    0  0.4712189E-002  0.4552470E+03  0.7546771E-02  0.1026169E+00
         21   -1    0    0  502  501  0.00000000000E+00  0.00000000000E+00  0.11510387314E+04  0.11510387314E+04  0.00000000000E+00 0.  1.
         21   -1    0    0  501  502 -0.00000000000E+00 -0.00000000000E+00 -0.45013652866E+02  0.45013652866E+02  0.00000000000E+00 0.  1.
      99926    2    1    2    0    0  0.71054273576E-14  0.00000000000E+00  0.11060250785E+04  0.11960523842E+04  0.45524700060E+03 0.  0.
      99925    2    3    3    0    0 -0.60985143798E+02 -0.35312298009E+02  0.92922222540E+03  0.96829614805E+03  0.26301585504E+03 0.  0.
         25    1    3    3    0    0  0.60985143798E+02  0.35312298009E+02  0.17680285311E+03  0.22775623619E+03  0.12509000000E+03 0.  0.
         25    1    4    4    0    0 -0.66152755059E+01  0.46394646541E+01  0.52698176622E+03  0.54168494213E+03  0.12509000000E+03 0.  0.
         25    1    4    4    0    0 -0.54369868292E+02 -0.39951762664E+02  0.40224045918E+03  0.42661120592E+03  0.12509000000E+03 0.  0.
<mgrwt>
<rscale>  2 0.45524700E+03</rscale>
<asrwt>0</asrwt>
<pdfrwt beam="1">  1       21 0.16927038E+00 0.45524700E+03</pdfrwt>
<pdfrwt beam="2">  1       21 0.66196556E-02 0.45524700E+03</pdfrwt>
<totfact> 0.32219273E+04</totfact>
</mgrwt>
</event>
<event>
 7    0  0.4712189E-002  0.4328739E+03  0.7546771E-02  0.1032956E+00
         21   -1    0    0  502  501  0.00000000000E+00  0.00000000000E+00  0.11976927445E+03  0.11976927445E+03  0.00000000000E+00 0.  1.
         21   -1    0    0  501  502 -0.00000000000E+00 -0.00000000000E+00 -0.39112666679E+03  0.39112666679E+03  0.00000000000E+00 0.  1.
      99926    2    1    2    0    0  0.00000000000E+00  0.00000000000E+00 -0.27135739234E+03  0.51089594124E+03  0.43287391744E+03 0.  0.
      99925    2    3    3    0    0 -0.57985658725E+02  0.27103589400E+02 -0.25059984232E+03  0.36885606952E+03  0.26297828404E+03 0.  0.
         25    1    4    4    0    0 -0.40842437006E+02  0.20206212709E+01 -0.17703194523E+03  0.22059012966E+03  0.12509000000E+03 0.  0.
         25    1    3    3    0    0  0.57985658725E+02 -0.27103589400E+02 -0.20757550014E+02  0.14203987172E+03  0.12509000000E+03 0.  0.
         25    1    4    4    0    0 -0.17143221719E+02  0.25082968129E+02 -0.73567897095E+02  0.14826593987E+03  0.12509000000E+03 0.  0.
<mgrwt>
<rscale>  2 0.43287392E+03</rscale>
<asrwt>0</asrwt>
<pdfrwt beam="1">  1       21 0.17613129E-01 0.43287392E+03</pdfrwt>
<pdfrwt beam="2">  1       21 0.57518628E-01 0.43287392E+03</pdfrwt>
<totfact> 0.77189460E+04</totfact>
</mgrwt>
</event>
<event>
 7    0  0.4712189E-002  0.4555889E+03  0.7546771E-02  0.1026068E+00
         21   -1    0    0  502  501  0.00000000000E+00  0.00000000000E+00  0.93002624455E+02  0.93002624455E+02  0.00000000000E+00 0. -1.
         21   -1    0    0  501  502 -0.00000000000E+00 -0.00000000000E+00 -0.55794453653E+03  0.55794453653E+03  0.00000000000E+00 0. -1.
      99926    2    1    2    0    0  0.14210854715E-13  0.00000000000E+00 -0.46494191208E+03  0.65094716099E+03  0.45558887694E+03 0.  0.
      99925    2    3    3    0    0 -0.94285864503E+02 -0.45890446109E+02 -0.23083893167E+03  0.36555712818E+03  0.26334320629E+03 0.  0.
         25    1    4    4    0    0 -0.69166948374E+02 -0.34267394394E+02 -0.78943943905E+02  0.16684716193E+03  0.12509000000E+03 0.  0.
         25    1    3    3    0    0  0.94285864503E+02  0.45890446109E+02 -0.23410298041E+03  0.28539003280E+03  0.12509000000E+03 0.  0.
         25    1    4    4    0    0 -0.25118916129E+02 -0.11623051715E+02 -0.15189498777E+03  0.19870996625E+03  0.12509000000E+03 0.  0.
<mgrwt>
<rscale>  2 0.45558888E+03</rscale>
<asrwt>0</asrwt>
<pdfrwt beam="1">  1       21 0.13676857E-01 0.45558888E+03</pdfrwt>
<pdfrwt beam="2">  1       21 0.82050666E-01 0.45558888E+03</pdfrwt>
<totfact> 0.55389199E+04</totfact>
</mgrwt>
</event>
<event>
 7    0  0.4712189E-002  0.4521200E+03  0.7546771E-02  0.1027092E+00
         21   -1    0    0  502  501  0.00000000000E+00  0.00000000000E+00  0.64744319027E+03  0.64744319027E+03  0.00000000000E+00 0. -1.
         21   -1    0    0  501  502 -0.00000000000E+00 -0.00000000000E+00 -0.78930663125E+02  0.78930663125E+02  0.00000000000E+00 0. -1.
      99926    2    1    2    0    0  0.00000000000E+00  0.00000000000E+00  0.56851252715E+03  0.72637385340E+03  0.45211998560E+03 0.  0.
      99925    2    3    3    0    0 -0.59899752858E+02 -0.77379226904E+02  0.44092769528E+03  0.52265610117E+03  0.26301452903E+03 0.  0.
         25    1    3    3    0    0  0.59899752858E+02  0.77379226904E+02  0.12758483187E+03  0.20371775222E+03  0.12509000000E+03 0.  0.
         25    1    4    4    0    0 -0.39799909400E+02 -0.95134244331E+01  0.26157471634E+03  0.29281970283E+03  0.12509000000E+03 0.  0.
         25    1    4    4    0    0 -0.20099843458E+02 -0.67865802471E+02  0.17935297894E+03  0.22983639835E+03  0.12509000000E+03 0.  0.
<mgrwt>
<rscale>  2 0.45211999E+03</rscale>
<asrwt>0</asrwt>
<pdfrwt beam="1">  1       21 0.95212231E-01 0.45211999E+03</pdfrwt>
<pdfrwt beam="2">  1       21 0.11607451E-01 0.45211999E+03</pdfrwt>
<totfact> 0.52677347E+04</totfact>
</mgrwt>
</event>
<event>
 7    0  0.4712189E-002  0.4532528E+03  0.7546771E-02  0.1026756E+00
         21   -1    0    0  502  501  0.00000000000E+00  0.00000000000E+00  0.10066724727E+04  0.10066724727E+04  0.00000000000E+00 0.  1.
         21   -1    0    0  501  502 -0.00000000000E+00 -0.00000000000E+00 -0.51019090876E+02  0.51019090876E+02  0.00000000000E+00 0.  1.
      99926    2    1    2    0    0  0.00000000000E+00 -0.17763568394E-14  0.95565338180E+03  0.10576915636E+04  0.45325275229E+03 0.  0.
      99925    2    3    3    0    0  0.19344192969E+02 -0.11841577910E+02  0.85709013726E+03  0.89682938017E+03  0.26303044115E+03 0.  0.
         25    1    4    4    0    0  0.18667181219E+02  0.11377603221E+02  0.30717299596E+03  0.33238632803E+03  0.12509000000E+03 0.  0.
         25    1    4    4    0    0  0.67701174940E+00 -0.23219181131E+02  0.54991714130E+03  0.56444305214E+03  0.12509000000E+03 0.  0.
         25    1    3    3    0    0 -0.19344192969E+02  0.11841577910E+02  0.98563244537E+02  0.16086218338E+03  0.12509000000E+03 0.  0.
<mgrwt>
<rscale>  2 0.45325275E+03</rscale>
<asrwt>0</asrwt>
<pdfrwt beam="1">  1       21 0.14804006E+00 0.45325275E+03</pdfrwt>
<pdfrwt beam="2">  1       21 0.75028081E-02 0.45325275E+03</pdfrwt>
<totfact> 0.37505261E+04</totfact>
</mgrwt>
</event>
<event>
 7    0  0.4712189E-002  0.4516018E+03  0.7546771E-02  0.1027245E+00
         21   -1    0    0  502  501  0.00000000000E+00  0.00000000000E+00  0.17256969864E+03  0.17256969864E+03  0.00000000000E+00 0. -1.
         21   -1    0    0  501  502 -0.00000000000E+00 -0.00000000000E+00 -0.29545192097E+03  0.29545192097E+03  0.00000000000E+00 0. -1.
      99926    2    1    2    0    0  0.00000000000E+00  0.00000000000E+00 -0.12288222233E+03  0.46802161960E+03  0.45160181117E+03 0.  0.
      99925    2    3    3    0    0  0.75812189644E+02  0.78827038857E+02 -0.90003907801E+02  0.29864133203E+03  0.26291586415E+03 0.  0.
         25    1    4    4    0    0  0.29749795891E+02  0.76225755259E+02 -0.30103160906E+02  0.15247663597E+03  0.12509000000E+03 0.  0.
         25    1    3    3    0    0 -0.75812189644E+02 -0.78827038857E+02 -0.32878314529E+02  0.16938028758E+03  0.12509000000E+03 0.  0.
         25    1    4    4    0    0  0.46062393753E+02  0.26012835983E+01 -0.59900746895E+02  0.14616469606E+03  0.12509000000E+03 0.  0.
<mgrwt>
<rscale>  2 0.45160181E+03</rscale>
<asrwt>0</asrwt>
<pdfrwt beam="1">  1       21 0.25377897E-01 0.45160181E+03</pdfrwt>
<pdfrwt beam="2">  1       21 0.43448812E-01 0.45160181E+03</pdfrwt>
<totfact> 0.69436237E+04</totfact>
</mgrwt>
</event>
<event>
 7    0  0.4712189E-002  0.4543110E+03  0.7546771E-02  0.1026444E+00
         21   -1    0    0  502  501  0.00000000000E+00  0.00000000000E+00  0.37947984741E+03  0.37947984741E+03  0.00000000000E+00 0. -1.
         21   -1    0    0  501  502 -0.00000000000E+00 -0.00000000000E+00 -0.13597458120E+03  0.13597458120E+03  0.00000000000E+00 0. -1.
      99926    2    1    2    0    0  0.00000000000E+00  0.00000000000E+00  0.24350526620E+03  0.51545442861E+03  0.45431096543E+03 0.  0.
      99925    2    3    3    0    0  0.47011957511E+02 -0.81825188070E+02  0.22280604709E+03  0.35739921255E+03  0.26303265379E+03 0.  0.
         25    1    3    3    0    0 -0.47011957511E+02  0.81825188070E+02  0.20699219113E+02  0.15805521606E+03  0.12509000000E+03 0.  0.
         25    1    4    4    0    0  0.47808536717E+02 -0.19674639894E+02  0.78067629942E+02  0.15625239385E+03  0.12509000000E+03 0.  0.
         25    1    4    4    0    0 -0.79657920676E+00 -0.62150548176E+02  0.14473841715E+03  0.20114681871E+03  0.12509000000E+03 0.  0.
<mgrwt>
<rscale>  2 0.45431097E+03</rscale>
<asrwt>0</asrwt>
<pdfrwt beam="1">  1       21 0.55805860E-01 0.45431097E+03</pdfrwt>
<pdfrwt beam="2">  1       21 0.19996262E-01 0.45431097E+03</pdfrwt>
<totfact> 0.64550222E+04</totfact>
</mgrwt>
</event>
<event>
 7    0  0.4712189E-002  0.4567690E+03  0.7546771E-02  0.1025722E+00
         21   -1    0    0  502  501  0.00000000000E+00  0.00000000000E+00  0.11778721467E+04  0.11778721467E+04  0.00000000000E+00 0. -1.
         21   -1    0    0  501  502 -0.00000000000E+00 -0.00000000000E+00 -0.44282793142E+02  0.44282793142E+02  0.00000000000E+00 0. -1.
      99926    2    1    2    0    0  0.26645352591E-14  0.00000000000E+00  0.11335893536E+04  0.12221549398E+04  0.45676895087E+03 0.  0.
      99925    2    3    3    0    0  0.31489549191E+01 -0.31038145684E+02  0.10078533704E+04  0.10420707152E+04  0.26300128675E+03 0.  0.
         25    1    3    3    0    0 -0.31489549191E+01  0.31038145684E+02  0.12573598314E+03  0.18008422463E+03  0.12509000000E+03 0.  0.
         25    1    4    4    0    0  0.26043641637E+02  0.96944657698E+01  0.41338909775E+03  0.43279360921E+03  0.12509000000E+03 0.  0.
         25    1    4    4    0    0 -0.22894686718E+02 -0.40732611454E+02  0.59446427267E+03  0.60927710600E+03  0.12509000000E+03 0.  0.
<mgrwt>
<rscale>  2 0.45676895E+03</rscale>
<asrwt>0</asrwt>
<pdfrwt beam="1">  1       21 0.17321647E+00 0.45676895E+03</pdfrwt>
<pdfrwt beam="2">  1       21 0.65121762E-02 0.45676895E+03</pdfrwt>
<totfact> 0.31031778E+04</totfact>
</mgrwt>
</event>
<event>
 7    0  0.4712189E-002  0.4518296E+03  0.7546771E-02  0.1027178E+00
         21   -1    0    0  502  501  0.00000000000E+00  0.00000000000E+00  0.31865391041E+02  0.31865391041E+02  0.00000000000E+00 0. -1.
         21   -1    0    0  501  502 -0.00000000000E+00 -0.00000000000E+00 -0.16016588930E+04  0.16016588930E+04  0.00000000000E+00 0. -1.
      99926    2    1    2    0    0  0.14210854715E-13  0.71054273576E-14 -0.15697935020E+04  0.16335242840E+04  0.45182955609E+03 0.  0.
      99925    2    3    3    0    0 -0.82950889995E+02 -0.56681198609E+02 -0.82564987693E+03  0.87228131941E+03  0.26283715965E+03 0.  0.
         25    1    3    3    0    0  0.82950889995E+02  0.56681198609E+02 -0.74414362503E+03  0.76124296464E+03  0.12509000000E+03 0.  0.
         25    1    4    4    0    0 -0.79640531039E+02 -0.13854176484E+02 -0.45318541921E+03  0.47703153426E+03  0.12509000000E+03 0.  0.
         25    1    4    4    0    0 -0.33103589557E+01 -0.42827022125E+02 -0.37246445772E+03  0.39524978515E+03  0.12509000000E+03 0.  0.
<mgrwt>
<rscale>  2 0.45182956E+03</rscale>
<asrwt>0</asrwt>
<pdfrwt beam="1">  1       21 0.46860854E-02 0.45182956E+03</pdfrwt>
<pdfrwt beam="2">  1       21 0.23553815E+00 0.45182956E+03</pdfrwt>
<totfact> 0.21199782E+04</totfact>
</mgrwt>
</event>
<event>
 7    0  0.4712189E-002  0.4573195E+03  0.7546771E-02  0.1025562E+00
         21   -1    0    0  502  501  0.00000000000E+00  0.00000000000E+00  0.23115895964E+03  0.23115895964E+03  0.00000000000E+00 0. -1.
         21   -1    0    0  501  502 -0.00000000000E+00 -0.00000000000E+00 -0.22618759622E+03  0.22618759622E+03  0.00000000000E+00 0. -1.
      99926    2    1    2    0    0  0.00000000000E+00  0.35527136788E-14  0.49713634224E+01  0.45734655586E+03  0.45731953567E+03 0.  0.
      99925    2    3    3    0    0 -0.11203760811E+03 -0.26652002916E+02  0.23485502570E+00  0.28725041393E+03  0.26315392882E+03 0.  0.
         25    1    4    4    0    0 -0.48961212704E+02  0.21931307324E+02 -0.20096178857E+02  0.13758469063E+03  0.12509000000E+03 0.  0.
         25    1    3    3    0    0  0.11203760811E+03  0.26652002916E+02  0.47365083967E+01  0.17009614194E+03  0.12509000000E+03 0.  0.
         25    1    4    4    0    0 -0.63076395408E+02 -0.48583310240E+02  0.20331033883E+02  0.14966572330E+03  0.12509000000E+03 0.  0.
<mgrwt>
<rscale>  2 0.45731954E+03</rscale>
<asrwt>0</asrwt>
<pdfrwt beam="1">  1       21 0.33993965E-01 0.45731954E+03</pdfrwt>
<pdfrwt beam="2">  1       21 0.33262882E-01 0.45731954E+03</pdfrwt>
<totfact> 0.67123314E+04</totfact>
</mgrwt>
</event>
<event>
 7    0  0.4712189E-002  0.4633352E+03  0.7546771E-02  0.1023818E+00
         21   -1    0    0  502  501  0.00000000000E+00  0.00000000000E+00  0.38691669456E+02  0.38691669456E+02  0.00000000000E+00 0. -1.
         21   -1    0    0  501  502 -0.00000000000E+00 -0.00000000000E+00 -0.13871172665E+04  0.13871172665E+04  0.00000000000E+00 0. -1.
      99926    2    1    2    0    0  0.00000000000E+00  0.14210854715E-13 -0.13484255970E+04  0.14258089359E+04  0.46333522538E+03 0.  0.
      99925    2    3    3    0    0  0.44906687314E+02 -0.91370898059E+02 -0.63857451855E+03  0.69786572847E+03  0.26243838831E+03 0.  0.
         25    1    3    3    0    0 -0.44906687314E+02  0.91370898059E+02 -0.70985107845E+03  0.72794320744E+03  0.12509000000E+03 0.  0.
         25    1    4    4    0    0  0.24233342054E+02 -0.86937287870E+02 -0.33224754620E+03  0.36630763976E+03  0.12509000000E+03 0.  0.
         25    1    4    4    0    0  0.20673345260E+02 -0.44336101897E+01 -0.30632697235E+03  0.33155808871E+03  0.12509000000E+03 0.  0.
<mgrwt>
<rscale>  2 0.46333523E+03</rscale>
<asrwt>0</asrwt>
<pdfrwt beam="1">  1       21 0.56899517E-02 0.46333523E+03</pdfrwt>
<pdfrwt beam="2">  1       21 0.20398782E+00 0.46333523E+03</pdfrwt>
<totfact> 0.24056137E+04</totfact>
</mgrwt>
</event>
<event>
 7    0  0.4712189E-002  0.4750518E+03  0.7546771E-02  0.1020504E+00
         21   -1    0    0  502  501  0.00000000000E+00  0.00000000000E+00  0.59890114784E+03  0.59890114784E+03  0.00000000000E+00 0. -1.
         21   -1    0    0  501  502 -0.00000000000E+00 -0.00000000000E+00 -0.94203437947E+02  0.94203437947E+02  0.00000000000E+00 0. -1.
      99926    2    1    2    0    0  0.00000000000E+00  0.71054273576E-14  0.50469770990E+03  0.69310458579E+03  0.47505177451E+03 0.  0.
      99925    2    3    3    0    0 -0.52811521018E+02 -0.55060324703E+02  0.15721627427E+03  0.31599511586E+03  0.26327791446E+03 0.  0.
         25    1    4    4    0    0 -0.42084184905E+02 -0.48203025444E+02  0.45197110495E+02  0.14759707713E+03  0.12509000000E+03 0.  0.
         25    1    3    3    0    0  0.52811521018E+02  0.55060324703E+02  0.34748143563E+03  0.37710946993E+03  0.12509000000E+03 0.  0.
         25    1    4    4    0    0 -0.10727336112E+02 -0.68572992589E+01  0.11201916377E+03  0.16839803872E+03  0.12509000000E+03 0.  0.
<mgrwt>
<rscale>  2 0.47505177E+03</rscale>
<asrwt>0</asrwt>
<pdfrwt beam="1">  1       21 0.88073696E-01 0.47505177E+03</pdfrwt>
<pdfrwt beam="2">  1       21 0.13853447E-01 0.47505177E+03</pdfrwt>
<totfact> 0.45632988E+04</totfact>
</mgrwt>
</event>
<event>
 7    0  0.4712189E-002  0.4507639E+03  0.7546771E-02  0.1027494E+00
         21   -1    0    0  502  501  0.00000000000E+00  0.00000000000E+00  0.88799661310E+03  0.88799661310E+03  0.00000000000E+00 0.  1.
         21   -1    0    0  501  502 -0.00000000000E+00 -0.00000000000E+00 -0.57204081754E+02  0.57204081754E+02  0.00000000000E+00 0.  1.
      99926    2    1    2    0    0  0.00000000000E+00  0.00000000000E+00  0.83079253134E+03  0.94520069485E+03  0.45076393313E+03 0.  0.
      99925    2    3    3    0    0 -0.85627247629E+02  0.67658277464E+02  0.51768080248E+03  0.59080525061E+03  0.26295962209E+03 0.  0.
         25    1    3    3    0    0  0.85627247629E+02 -0.67658277464E+02  0.31311172886E+03  0.35439544424E+03  0.12509000000E+03 0.  0.
         25    1    4    4    0    0 -0.77482349791E+02  0.53791229963E+02  0.25237922138E+03  0.29705183123E+03  0.12509000000E+03 0.  0.
         25    1    4    4    0    0 -0.81448978373E+01  0.13867047502E+02  0.26530158110E+03  0.29375341939E+03  0.12509000000E+03 0.  0.
<mgrwt>
<rscale>  2 0.45076393E+03</rscale>
<asrwt>0</asrwt>
<pdfrwt beam="1">  1       21 0.13058773E+00 0.45076393E+03</pdfrwt>
<pdfrwt beam="2">  1       21 0.84123655E-02 0.45076393E+03</pdfrwt>
<totfact> 0.42733917E+04</totfact>
</mgrwt>
</event>
<event>
 7    0  0.4712189E-002  0.4635456E+03  0.7546771E-02  0.1023758E+00
         21   -1    0    0  502  501  0.00000000000E+00  0.00000000000E+00  0.94245748507E+02  0.94245748507E+02  0.00000000000E+00 0. -1.
         21   -1    0    0  501  502 -0.00000000000E+00 -0.00000000000E+00 -0.56998476610E+03  0.56998476610E+03  0.00000000000E+00 0. -1.
      99926    2    1    2    0    0  0.00000000000E+00  0.14210854715E-13 -0.47573901759E+03  0.66423051461E+03  0.46354564357E+03 0.  0.
      99925    2    3    3    0    0 -0.33535287938E+02 -0.95395004238E+02 -0.20198127133E+03  0.34671573682E+03  0.26304095845E+03 0.  0.
         25    1    4    4    0    0  0.67752296641E+00 -0.75537658890E+02 -0.75506116156E+02  0.16448428078E+03  0.12509000000E+03 0.  0.
         25    1    4    4    0    0 -0.34212810905E+02 -0.19857345348E+02 -0.12647515517E+03  0.18223145604E+03  0.12509000000E+03 0.  0.
         25    1    3    3    0    0  0.33535287938E+02  0.95395004238E+02 -0.27375774627E+03  0.31751477778E+03  0.12509000000E+03 0.  0.
<mgrwt>
<rscale>  2 0.46354564E+03</rscale>
<asrwt>0</asrwt>
<pdfrwt beam="1">  1       21 0.13859669E-01 0.46354564E+03</pdfrwt>
<pdfrwt beam="2">  1       21 0.83821287E-01 0.46354564E+03</pdfrwt>
<totfact> 0.51340248E+04</totfact>
</mgrwt>
</event>
<event>
 7    0  0.4712189E-002  0.4585535E+03  0.7546771E-02  0.1025202E+00
         21   -1    0    0  502  501  0.00000000000E+00  0.00000000000E+00  0.74962263595E+03  0.74962263595E+03  0.00000000000E+00 0.  1.
         21   -1    0    0  501  502 -0.00000000000E+00 -0.00000000000E+00 -0.70125717004E+02  0.70125717004E+02  0.00000000000E+00 0.  1.
      99926    2    1    2    0    0  0.88817841970E-15  0.00000000000E+00  0.67949691894E+03  0.81974835295E+03  0.45855348577E+03 0.  0.
      99925    2    3    3    0    0  0.73068655824E+01  0.69565594490E+02  0.59266984953E+03  0.65217982875E+03  0.26303653027E+03 0.  0.
         25    1    3    3    0    0 -0.73068655824E+01 -0.69565594490E+02  0.86827069407E+02  0.16756852420E+03  0.12509000000E+03 0.  0.
         25    1    4    4    0    0 -0.32078223888E+01  0.69274150707E+01  0.20935415556E+03  0.24399784785E+03  0.12509000000E+03 0.  0.
         25    1    4    4    0    0  0.10514687971E+02  0.62638179419E+02  0.38331569398E+03  0.40818198090E+03  0.12509000000E+03 0.  0.
<mgrwt>
<rscale>  2 0.45855349E+03</rscale>
<asrwt>0</asrwt>
<pdfrwt beam="1">  1       21 0.11023862E+00 0.45855349E+03</pdfrwt>
<pdfrwt beam="2">  1       21 0.10312606E-01 0.45855349E+03</pdfrwt>
<totfact> 0.45541230E+04</totfact>
</mgrwt>
</event>
<event>
 7    0  0.4712189E-002  0.4585699E+03  0.7546771E-02  0.1025197E+00
         21   -1    0    0  502  501  0.00000000000E+00  0.00000000000E+00  0.10628026715E+04  0.10628026715E+04  0.00000000000E+00 0.  1.
         21   -1    0    0  501  502 -0.00000000000E+00 -0.00000000000E+00 -0.49465053537E+02  0.49465053537E+02  0.00000000000E+00 0.  1.
      99926    2    1    2    0    0  0.00000000000E+00  0.00000000000E+00  0.10133376180E+04  0.11122677251E+04  0.45856991200E+03 0.  0.
      99925    2    3    3    0    0 -0.10063188006E+03  0.52566462063E+02  0.57227846654E+03  0.63996412419E+03  0.26298560564E+03 0.  0.
         25    1    4    4    0    0 -0.43928122907E+02  0.39184844056E+01  0.19795100001E+03  0.23827954383E+03  0.12509000000E+03 0.  0.
         25    1    3    3    0    0  0.10063188006E+03 -0.52566462063E+02  0.44105915146E+03  0.47230360088E+03  0.12509000000E+03 0.  0.
         25    1    4    4    0    0 -0.56703757150E+02  0.48647977658E+02  0.37432746653E+03  0.40168458037E+03  0.12509000000E+03 0.  0.
<mgrwt>
<rscale>  2 0.45856991E+03</rscale>
<asrwt>0</asrwt>
<pdfrwt beam="1">  1       21 0.15629450E+00 0.45856991E+03</pdfrwt>
<pdfrwt beam="2">  1       21 0.72742733E-02 0.45856991E+03</pdfrwt>
<totfact> 0.34108057E+04</totfact>
</mgrwt>
</event>
<event>
 7    0  0.4712189E-002  0.4539639E+03  0.7546771E-02  0.1026547E+00
         21   -1    0    0  502  501  0.00000000000E+00  0.00000000000E+00  0.14673502046E+03  0.14673502046E+03  0.00000000000E+00 0. -1.
         21   -1    0    0  501  502 -0.00000000000E+00 -0.00000000000E+00 -0.35111462066E+03  0.35111462066E+03  0.00000000000E+00 0. -1.
      99926    2    1    2    0    0 -0.88817841970E-15  0.35527136788E-14 -0.20437960019E+03  0.49784964112E+03  0.45396392389E+03 0.  0.
      99925    2    3    3    0    0  0.60618077040E+01 -0.20150509425E+02 -0.24963918290E+03  0.36316955176E+03  0.26292510939E+03 0.  0.
         25    1    3    3    0    0 -0.60618077040E+01  0.20150509425E+02  0.45259582709E+02  0.13468008936E+03  0.12509000000E+03 0.  0.
         25    1    4    4    0    0 -0.15762468384E+02 -0.45291235807E+02 -0.13636010782E+03  0.19115788907E+03  0.12509000000E+03 0.  0.
         25    1    4    4    0    0  0.21824276088E+02  0.25140726382E+02 -0.11327907508E+03  0.17201166269E+03  0.12509000000E+03 0.  0.
<mgrwt>
<rscale>  2 0.45396392E+03</rscale>
<asrwt>0</asrwt>
<pdfrwt beam="1">  1       21 0.21578680E-01 0.45396392E+03</pdfrwt>
<pdfrwt beam="2">  1       21 0.51634503E-01 0.45396392E+03</pdfrwt>
<totfact> 0.65962846E+04</totfact>
</mgrwt>
</event>
<event>
 7    0  0.4712189E-002  0.4558333E+03  0.7546771E-02  0.1025997E+00
         21   -1    0    0  502  501  0.00000000000E+00  0.00000000000E+00  0.67704870709E+03  0.67704870709E+03  0.00000000000E+00 0.  1.
         21   -1    0    0  501  502 -0.00000000000E+00 -0.00000000000E+00 -0.76724152127E+02  0.76724152127E+02  0.00000000000E+00 0.  1.
      99926    2    1    2    0    0  0.00000000000E+00  0.00000000000E+00  0.60032455496E+03  0.75377285922E+03  0.45583325021E+03 0.  0.
      99925    2    3    3    0    0 -0.78267857969E+02  0.65986260881E+02  0.29499384069E+03  0.40829580152E+03  0.26306662897E+03 0.  0.
         25    1    4    4    0    0 -0.13521153626E+02  0.63783135405E+02  0.13742330184E+03  0.19693598439E+03  0.12509000000E+03 0.  0.
         25    1    4    4    0    0 -0.64746704343E+02  0.22031254755E+01  0.15757053885E+03  0.21135981713E+03  0.12509000000E+03 0.  0.
         25    1    3    3    0    0  0.78267857969E+02 -0.65986260881E+02  0.30533071428E+03  0.34547705770E+03  0.12509000000E+03 0.  0.
<mgrwt>
<rscale>  2 0.45583325E+03</rscale>
<asrwt>0</asrwt>
<pdfrwt beam="1">  1       21 0.99565983E-01 0.45583325E+03</pdfrwt>
<pdfrwt beam="2">  1       21 0.11282964E-01 0.45583325E+03</pdfrwt>
<totfact> 0.49752208E+04</totfact>
</mgrwt>
</event>
<event>
 7    0  0.4712189E-002  0.4594108E+03  0.7546771E-02  0.1024952E+00
         21   -1    0    0  502  501  0.00000000000E+00  0.00000000000E+00  0.64657835220E+03  0.64657835220E+03  0.00000000000E+00 0. -1.
         21   -1    0    0  501  502 -0.00000000000E+00 -0.00000000000E+00 -0.81605851159E+02  0.81605851159E+02  0.00000000000E+00 0. -1.
      99926    2    1    2    0    0  0.00000000000E+00  0.71054273576E-14  0.56497250104E+03  0.72818420336E+03  0.45941082605E+03 0.  0.
      99925    2    3    3    0    0 -0.54699969648E+02 -0.61564008418E+02  0.22177904730E+03  0.35373598451E+03  0.26298476591E+03 0.  0.
         25    1    4    4    0    0 -0.16225150822E+02 -0.50211435726E+02  0.69151454683E+02  0.15236100414E+03  0.12509000000E+03 0.  0.
         25    1    3    3    0    0  0.54699969648E+02  0.61564008418E+02  0.34319345374E+03  0.37444821886E+03  0.12509000000E+03 0.  0.
         25    1    4    4    0    0 -0.38474818826E+02 -0.11352572693E+02  0.15262759262E+03  0.20137498037E+03  0.12509000000E+03 0.  0.
<mgrwt>
<rscale>  2 0.45941083E+03</rscale>
<asrwt>0</asrwt>
<pdfrwt beam="1">  1       21 0.95085049E-01 0.45941083E+03</pdfrwt>
<pdfrwt beam="2">  1       21 0.12000861E-01 0.45941083E+03</pdfrwt>
<totfact> 0.49654460E+04</totfact>
</mgrwt>
</event>
<event>
 7    0  0.4712189E-002  0.4583587E+03  0.7546771E-02  0.1025258E+00
         21   -1    0    0  502  501  0.00000000000E+00  0.00000000000E+00  0.60353573450E+03  0.60353573450E+03  0.00000000000E+00 0. -1.
         21   -1    0    0  501  502 -0.00000000000E+00 -0.00000000000E+00 -0.87025807058E+02  0.87025807058E+02  0.00000000000E+00 0. -1.
      99926    2    1    2    0    0  0.17763568394E-14 -0.71054273576E-14  0.51650992744E+03  0.69056154156E+03  0.45835874327E+03 0.  0.
      99925    2    3    3    0    0 -0.95178301966E+01 -0.63509728319E+02  0.17870751239E+03  0.32466257409E+03  0.26333502871E+03 0.  0.
         25    1    4    4    0    0 -0.29664547788E+02 -0.60329631364E+02  0.11541069637E+03  0.18299395277E+03  0.12509000000E+03 0.  0.
         25    1    4    4    0    0  0.20146717591E+02 -0.31800969548E+01  0.63296816029E+02  0.14166862132E+03  0.12509000000E+03 0.  0.
         25    1    3    3    0    0  0.95178301966E+01  0.63509728319E+02  0.33780241505E+03  0.36589896747E+03  0.12509000000E+03 0.  0.
<mgrwt>
<rscale>  2 0.45835874E+03</rscale>
<asrwt>0</asrwt>
<pdfrwt beam="1">  1       21 0.88755253E-01 0.45835874E+03</pdfrwt>
<pdfrwt beam="2">  1       21 0.12797913E-01 0.45835874E+03</pdfrwt>
<totfact> 0.52029151E+04</totfact>
</mgrwt>
</event>
<event>
 7    0  0.4712189E-002  0.4579455E+03  0.7546771E-02  0.1025379E+00
         21   -1    0    0  502  501  0.00000000000E+00  0.00000000000E+00  0.94691541823E+03  0.94691541823E+03  0.00000000000E+00 0. -1.
         21   -1    0    0  501  502 -0.00000000000E+00 -0.00000000000E+00 -0.55367693320E+02  0.55367693320E+02  0.00000000000E+00 0. -1.
      99926    2    1    2    0    0 -0.35527136788E-14  0.17763568394E-14  0.89154772491E+03  0.10022831116E+04  0.45794550976E+03 0.  0.
      99925    2    3    3    0    0  0.21167965223E+02 -0.13494820024E+02  0.80724769300E+03  0.84936419055E+03  0.26294580700E+03 0.  0.
         25    1    4    4    0    0  0.25675122468E+02  0.30603314447E+02  0.38891630889E+03  0.41048651401E+03  0.12509000000E+03 0.  0.
         25    1    4    4    0    0 -0.45071572454E+01 -0.44098134471E+02  0.41833138411E+03  0.43887767654E+03  0.12509000000E+03 0.  0.
         25    1    3    3    0    0 -0.21167965223E+02  0.13494820024E+02  0.84300031910E+02  0.15291892100E+03  0.12509000000E+03 0.  0.
<mgrwt>
<rscale>  2 0.45794551E+03</rscale>
<asrwt>0</asrwt>
<pdfrwt beam="1">  1       21 0.13925226E+00 0.45794551E+03</pdfrwt>
<pdfrwt beam="2">  1       21 0.81423084E-02 0.45794551E+03</pdfrwt>
<totfact> 0.38191984E+04</totfact>
</mgrwt>
</event>
<event>
 7    0  0.4712189E-002  0.4440081E+03  0.7546771E-02  0.1029524E+00
         21   -1    0    0  502  501  0.00000000000E+00  0.00000000000E+00  0.29315756609E+04  0.29315756609E+04  0.00000000000E+00 0. -1.
         21   -1    0    0  501  502 -0.00000000000E+00 -0.00000000000E+00 -0.16812051992E+02  0.16812051992E+02  0.00000000000E+00 0. -1.
      99926    2    1    2    0    0  0.00000000000E+00  0.14210854715E-13  0.29147636089E+04  0.29483877129E+04  0.44400811898E+03 0.  0.
      99925    2    3    3    0    0  0.36297328038E+02  0.64535873748E+02  0.13866936318E+04  0.14134193947E+04  0.26334916295E+03 0.  0.
         25    1    3    3    0    0 -0.36297328038E+02 -0.64535873748E+02  0.15280699770E+04  0.15349683182E+04  0.12509000000E+03 0.  0.
         25    1    4    4    0    0 -0.41447243800E+01 -0.17008340158E+01  0.57233715536E+03  0.58586465936E+03  0.12509000000E+03 0.  0.
         25    1    4    4    0    0  0.40442052418E+02  0.66236707764E+02  0.81435647647E+03  0.82755473530E+03  0.12509000000E+03 0.  0.
<mgrwt>
<rscale>  2 0.44400812E+03</rscale>
<asrwt>0</asrwt>
<pdfrwt beam="1">  1       21 0.43111371E+00 0.44400812E+03</pdfrwt>
<pdfrwt beam="2">  1       21 0.24723626E-02 0.44400812E+03</pdfrwt>
<totfact> 0.38651047E+03</totfact>
</mgrwt>
</event>
<event>
 7    0  0.4712189E-002  0.4361810E+03  0.7546771E-02  0.1031925E+00
         21   -1    0    0  502  501  0.00000000000E+00  0.00000000000E+00  0.84162900179E+03  0.84162900179E+03  0.00000000000E+00 0.  1.
         21   -1    0    0  501  502 -0.00000000000E+00 -0.00000000000E+00 -0.56513576823E+02  0.56513576823E+02  0.00000000000E+00 0.  1.
      99926    2    1    2    0    0  0.71054273576E-14  0.35527136788E-14  0.78511542497E+03  0.89814257861E+03  0.43618099568E+03 0.  0.
      99925    2    3    3    0    0  0.43183381601E+02  0.23176195265E+02  0.66926490372E+03  0.72074248885E+03  0.26296821750E+03 0.  0.
         25    1    4    4    0    0  0.24996285527E+02  0.38738674870E+02  0.42273590968E+03  0.44325913036E+03  0.12509000000E+03 0.  0.
         25    1    3    3    0    0 -0.43183381601E+02 -0.23176195265E+02  0.11585052125E+03  0.17740008976E+03  0.12509000000E+03 0.  0.
         25    1    4    4    0    0  0.18187096074E+02 -0.15562479604E+02  0.24652899404E+03  0.27748335849E+03  0.12509000000E+03 0.  0.
<mgrwt>
<rscale>  2 0.43618100E+03</rscale>
<asrwt>0</asrwt>
<pdfrwt beam="1">  1       21 0.12376896E+00 0.43618100E+03</pdfrwt>
<pdfrwt beam="2">  1       21 0.83108206E-02 0.43618100E+03</pdfrwt>
<totfact> 0.50326828E+04</totfact>
</mgrwt>
</event>
<event>
 7    0  0.4712189E-002  0.4524934E+03  0.7546771E-02  0.1026981E+00
         21   -1    0    0  502  501  0.00000000000E+00  0.00000000000E+00  0.35801631265E+03  0.35801631265E+03  0.00000000000E+00 0.  1.
         21   -1    0    0  501  502 -0.00000000000E+00 -0.00000000000E+00 -0.14297551831E+03  0.14297551831E+03  0.00000000000E+00 0.  1.
      99926    2    1    2    0    0  0.00000000000E+00 -0.17763568394E-14  0.21504079434E+03  0.50099183096E+03  0.45249339382E+03 0.  0.
      99925    2    3    3    0    0 -0.42014608305E+02 -0.70353630032E+01  0.24885911271E+03  0.36458834713E+03  0.26301916516E+03 0.  0.
         25    1    4    4    0    0 -0.58536971924E+01 -0.30070214429E+02  0.86252669537E+02  0.15500166021E+03  0.12509000000E+03 0.  0.
         25    1    4    4    0    0 -0.36160911113E+02  0.23034851426E+02  0.16260644317E+03  0.20958668692E+03  0.12509000000E+03 0.  0.
         25    1    3    3    0    0  0.42014608305E+02  0.70353630032E+01 -0.33818318361E+02  0.13640348383E+03  0.12509000000E+03 0.  0.
<mgrwt>
<rscale>  2 0.45249339E+03</rscale>
<asrwt>0</asrwt>
<pdfrwt beam="1">  1       21 0.52649458E-01 0.45249339E+03</pdfrwt>
<pdfrwt beam="2">  1       21 0.21025812E-01 0.45249339E+03</pdfrwt>
<totfact> 0.66514643E+04</totfact>
</mgrwt>
</event>
<event>
 7    0  0.4712189E-002  0.4538263E+03  0.7546771E-02  0.1026587E+00
         21   -1    0    0  502  501  0.00000000000E+00  0.00000000000E+00  0.40880392676E+03  0.40880392676E+03  0.00000000000E+00 0. -1.
         21   -1    0    0  501  502 -0.00000000000E+00 -0.00000000000E+00 -0.12595175845E+03  0.12595175845E+03  0.00000000000E+00 0. -1.
      99926    2    1    2    0    0  0.00000000000E+00  0.33306690739E-14  0.28285216831E+03  0.53475568521E+03  0.45382628147E+03 0.  0.
      99925    2    3    3    0    0  0.54775152816E+02  0.14046308081E+01  0.62850503502E+02  0.27581451242E+03  0.26290905103E+03 0.  0.
         25    1    4    4    0    0  0.21881090634E+02 -0.33711741494E+02  0.52163760896E+02  0.14136417401E+03  0.12509000000E+03 0.  0.
         25    1    4    4    0    0  0.32894062182E+02  0.35116372302E+02  0.10686742606E+02  0.13445033841E+03  0.12509000000E+03 0.  0.
         25    1    3    3    0    0 -0.54775152816E+02 -0.14046308081E+01  0.22000166480E+03  0.25894117280E+03  0.12509000000E+03 0.  0.
<mgrwt>
<rscale>  2 0.45382628E+03</rscale>
<asrwt>0</asrwt>
<pdfrwt beam="1">  1       21 0.60118224E-01 0.45382628E+03</pdfrwt>
<pdfrwt beam="2">  1       21 0.18522318E-01 0.45382628E+03</pdfrwt>
<totfact> 0.63472855E+04</totfact>
</mgrwt>
</event>
<event>
 7    0  0.4712189E-002  0.4539820E+03  0.7546771E-02  0.1026541E+00
         21   -1    0    0  502  501  0.00000000000E+00  0.00000000000E+00  0.28185358253E+03  0.28185358253E+03  0.00000000000E+00 0.  1.
         21   -1    0    0  501  502 -0.00000000000E+00 -0.00000000000E+00 -0.18280734562E+03  0.18280734562E+03  0.00000000000E+00 0.  1.
      99926    2    1    2    0    0  0.00000000000E+00 -0.14210854715E-13  0.99046236908E+02  0.46466092815E+03  0.45398196121E+03 0.  0.
      99925    2    3    3    0    0 -0.41536786555E+02 -0.99318926645E+02  0.94766717611E+02  0.29956890468E+03  0.26300426623E+03 0.  0.
         25    1    4    4    0    0 -0.25972261393E+02 -0.65851744221E+02  0.10120801296E+02  0.14408660346E+03  0.12509000000E+03 0.  0.
         25    1    4    4    0    0 -0.15564525162E+02 -0.33467182424E+02  0.84645916316E+02  0.15548230122E+03  0.12509000000E+03 0.  0.
         25    1    3    3    0    0  0.41536786555E+02  0.99318926645E+02  0.42795192969E+01  0.16509202347E+03  0.12509000000E+03 0.  0.
<mgrwt>
<rscale>  2 0.45398196E+03</rscale>
<asrwt>0</asrwt>
<pdfrwt beam="1">  1       21 0.41449056E-01 0.45398196E+03</pdfrwt>
<pdfrwt beam="2">  1       21 0.26883433E-01 0.45398196E+03</pdfrwt>
<totfact> 0.68385958E+04</totfact>
</mgrwt>
</event>
<event>
 7    0  0.4712189E-002  0.4535727E+03  0.7546771E-02  0.1026662E+00
         21   -1    0    0  502  501  0.00000000000E+00  0.00000000000E+00  0.94179267969E+02  0.94179267969E+02  0.00000000000E+00 0.  1.
         21   -1    0    0  501  502 -0.00000000000E+00 -0.00000000000E+00 -0.54610795654E+03  0.54610795654E+03  0.00000000000E+00 0.  1.
      99926    2    1    2    0    0  0.00000000000E+00  0.00000000000E+00 -0.45192868858E+03  0.64028722451E+03  0.45357269574E+03 0.  0.
      99925    2    3    3    0    0  0.84891731544E+01  0.16018387210E+02 -0.44059576283E+03  0.51338333137E+03  0.26288621857E+03 0.  0.
         25    1    3    3    0    0 -0.84891731544E+01 -0.16018387210E+02 -0.11332925750E+02  0.12690389315E+03  0.12509000000E+03 0.  0.
         25    1    4    4    0    0  0.60985836258E+01  0.33869980023E+02 -0.16265487626E+03  0.20805885019E+03  0.12509000000E+03 0.  0.
         25    1    4    4    0    0  0.23905895286E+01 -0.17851592813E+02 -0.27794088656E+03  0.30532448118E+03  0.12509000000E+03 0.  0.
<mgrwt>
<rscale>  2 0.45357270E+03</rscale>
<asrwt>0</asrwt>
<pdfrwt beam="1">  1       21 0.13849892E-01 0.45357270E+03</pdfrwt>
<pdfrwt beam="2">  1       21 0.80309993E-01 0.45357270E+03</pdfrwt>
<totfact> 0.56902752E+04</totfact>
</mgrwt>
</event>
<event>
 7    0  0.4712189E-002  0.4707924E+03  0.7546771E-02  0.1021697E+00
         21   -1    0    0  502  501  0.00000000000E+00  0.00000000000E+00  0.24704107030E+02  0.24704107030E+02  0.00000000000E+00 0. -1.
         21   -1    0    0  501  502 -0.00000000000E+00 -0.00000000000E+00 -0.22430021736E+04  0.22430021736E+04  0.00000000000E+00 0. -1.
      99926    2    1    2    0    0  0.14210854715E-13 -0.35527136788E-14 -0.22182980666E+04  0.22677062806E+04  0.47079237787E+03 0.  0.
      99925    2    3    3    0    0  0.10822160278E+03  0.26808305310E+02 -0.10798782072E+04  0.11170204482E+04  0.26299646171E+03 0.  0.
         25    1    4    4    0    0  0.91131118917E+02 -0.53197794621E+01 -0.55274825710E+03  0.57403076983E+03  0.12509000000E+03 0.  0.
         25    1    4    4    0    0  0.17090483861E+02  0.32128084772E+02 -0.52712995008E+03  0.54298967839E+03  0.12509000000E+03 0.  0.
         25    1    3    3    0    0 -0.10822160278E+03 -0.26808305310E+02 -0.11384198594E+04  0.11506858324E+04  0.12509000000E+03 0.  0.
<mgrwt>
<rscale>  2 0.47079238E+03</rscale>
<asrwt>0</asrwt>
<pdfrwt beam="1">  1       21 0.36329582E-02 0.47079238E+03</pdfrwt>
<pdfrwt beam="2">  1       21 0.32985314E+00 0.47079238E+03</pdfrwt>
<totfact> 0.86941479E+03</totfact>
</mgrwt>
</event>
<event>
 7    0  0.4712189E-002  0.4608309E+03  0.7546771E-02  0.1024541E+00
         21   -1    0    0  502  501  0.00000000000E+00  0.00000000000E+00  0.48687109513E+02  0.48687109513E+02  0.00000000000E+00 0.  1.
         21   -1    0    0  501  502 -0.00000000000E+00 -0.00000000000E+00 -0.10904588386E+04  0.10904588386E+04  0.00000000000E+00 0.  1.
      99926    2    1    2    0    0  0.71054273576E-14  0.00000000000E+00 -0.10417717291E+04  0.11391459481E+04  0.46083094034E+03 0.  0.
      99925    2    3    3    0    0  0.35513522166E+02 -0.59652083498E+02 -0.88972731318E+03  0.93037671227E+03  0.26299534901E+03 0.  0.
         25    1    3    3    0    0 -0.35513522166E+02  0.59652083498E+02 -0.15204441589E+03  0.20876923582E+03  0.12509000000E+03 0.  0.
         25    1    4    4    0    0  0.53584140465E+01 -0.36837606413E+02 -0.31474477645E+03  0.34073083842E+03  0.12509000000E+03 0.  0.
         25    1    4    4    0    0  0.30155108120E+02 -0.22814477085E+02 -0.57498253672E+03  0.58964587385E+03  0.12509000000E+03 0.  0.
<mgrwt>
<rscale>  2 0.46083094E+03</rscale>
<asrwt>0</asrwt>
<pdfrwt beam="1">  1       21 0.71598696E-02 0.46083094E+03</pdfrwt>
<pdfrwt beam="2">  1       21 0.16036158E+00 0.46083094E+03</pdfrwt>
<totfact> 0.32638028E+04</totfact>
</mgrwt>
</event>
<event>
 7    0  0.4712189E-002  0.4104870E+03  0.7546771E-02  0.1040208E+00
         21   -1    0    0  502  501  0.00000000000E+00  0.00000000000E+00  0.10808575220E+03  0.10808575220E+03  0.00000000000E+00 0.  1.
         21   -1    0    0  501  502 -0.00000000000E+00 -0.00000000000E+00 -0.38973587528E+03  0.38973587528E+03  0.00000000000E+00 0.  1.
      99926    2    1    2    0    0  0.35527136788E-14  0.00000000000E+00 -0.28165012308E+03  0.49782162747E+03  0.41048700460E+03 0.  0.
      99925    2    3    3    0    0  0.10833143457E+02  0.31575892762E+02 -0.25030297249E+03  0.36461297178E+03  0.26301453792E+03 0.  0.
         25    1    4    4    0    0 -0.28857773966E+02  0.31703439322E+02 -0.14596444323E+03  0.19695432458E+03  0.12509000000E+03 0.  0.
         25    1    3    3    0    0 -0.10833143457E+02 -0.31575892762E+02 -0.31347150592E+02  0.13320865569E+03  0.12509000000E+03 0.  0.
         25    1    4    4    0    0  0.39690917424E+02 -0.12754656048E+00 -0.10433852926E+03  0.16765864720E+03  0.12509000000E+03 0.  0.
<mgrwt>
<rscale>  2 0.41048700E+03</rscale>
<asrwt>0</asrwt>
<pdfrwt beam="1">  1       21 0.15894964E-01 0.41048700E+03</pdfrwt>
<pdfrwt beam="2">  1       21 0.57314099E-01 0.41048700E+03</pdfrwt>
<totfact> 0.94679524E+04</totfact>
</mgrwt>
</event>
<event>
 7    0  0.4712189E-002  0.4587921E+03  0.7546771E-02  0.1025132E+00
         21   -1    0    0  502  501  0.00000000000E+00  0.00000000000E+00  0.15266107214E+03  0.15266107214E+03  0.00000000000E+00 0. -1.
         21   -1    0    0  501  502 -0.00000000000E+00 -0.00000000000E+00 -0.34470184000E+03  0.34470184000E+03  0.00000000000E+00 0. -1.
      99926    2    1    2    0    0 -0.71054273576E-14  0.71054273576E-14 -0.19204076786E+03  0.49736291214E+03  0.45879212052E+03 0.  0.
      99925    2    3    3    0    0 -0.57129558719E+02  0.45900097020E+02 -0.21792706637E+03  0.35009372346E+03  0.26401288522E+03 0.  0.
         25    1    4    4    0    0 -0.64818925910E+02  0.10136831733E+02 -0.13644284967E+03  0.19638841065E+03  0.12509000000E+03 0.  0.
         25    1    3    3    0    0  0.57129558719E+02 -0.45900097020E+02  0.25886298511E+02  0.14726918869E+03  0.12509000000E+03 0.  0.
         25    1    4    4    0    0  0.76893671917E+01  0.35763265288E+02 -0.81484216704E+02  0.15370531280E+03  0.12509000000E+03 0.  0.
<mgrwt>
<rscale>  2 0.45879212E+03</rscale>
<asrwt>0</asrwt>
<pdfrwt beam="1">  1       21 0.22450158E-01 0.45879212E+03</pdfrwt>
<pdfrwt beam="2">  1       21 0.50691445E-01 0.45879212E+03</pdfrwt>
<totfact> 0.63522411E+04</totfact>
</mgrwt>
</event>
<event>
 7    0  0.4712189E-002  0.4533313E+03  0.7546771E-02  0.1026733E+00
         21   -1    0    0  502  501  0.00000000000E+00  0.00000000000E+00  0.26525759271E+03  0.26525759271E+03  0.00000000000E+00 0. -1.
         21   -1    0    0  501  502 -0.00000000000E+00 -0.00000000000E+00 -0.19368837211E+03  0.19368837211E+03  0.00000000000E+00 0. -1.
      99926    2    1    2    0    0  0.00000000000E+00  0.00000000000E+00  0.71569220599E+02  0.45894596481E+03  0.45333127543E+03 0.  0.
      99925    2    3    3    0    0  0.65079869796E+02 -0.41960760598E+02 -0.36227482020E+02  0.27656248947E+03  0.26301765197E+03 0.  0.
         25    1    4    4    0    0  0.53204100359E+02  0.13295332292E+02 -0.11276170932E+02  0.13704781022E+03  0.12509000000E+03 0.  0.
         25    1    3    3    0    0 -0.65079869796E+02  0.41960760598E+02  0.10779670262E+03  0.18238347534E+03  0.12509000000E+03 0.  0.
         25    1    4    4    0    0  0.11875769436E+02 -0.55256092890E+02 -0.24951311088E+02  0.13951467925E+03  0.12509000000E+03 0.  0.
<mgrwt>
<rscale>  2 0.45333128E+03</rscale>
<asrwt>0</asrwt>
<pdfrwt beam="1">  1       21 0.39008470E-01 0.45333128E+03</pdfrwt>
<pdfrwt beam="2">  1       21 0.28483584E-01 0.45333128E+03</pdfrwt>
<totfact> 0.69173367E+04</totfact>
</mgrwt>
</event>
<event>
 6    0  0.4712189E-002  0.4581733E+03  0.7546771E-02  0.1025312E+00
         21   -1    0    0  502  501  0.00000000000E+00  0.00000000000E+00  0.63105324692E+03  0.63105324692E+03  0.00000000000E+00 0.  1.
         21   -1    0    0  501  502 -0.00000000000E+00 -0.00000000000E+00 -0.83163656938E+02  0.83163656938E+02  0.00000000000E+00 0.  1.
      99926    2    1    2    0    0  0.00000000000E+00  0.00000000000E+00  0.54788958998E+03  0.71421690386E+03  0.45817331103E+03 0.  0.
         25    1    3    3    0    0 -0.33026704760E+02  0.22019642676E+02  0.85551436588E+02  0.15665945325E+03  0.12509000000E+03 0.  0.
         25    1    3    3    0    0 -0.74514829473E+01 -0.39179856447E+02  0.82064558661E+02  0.15483115203E+03  0.12509000000E+03 0.  0.
         25    1    3    3    0    0  0.40478187707E+02  0.17160213771E+02  0.38027359473E+03  0.40272629858E+03  0.12509000000E+03 0.  0.
<mgrwt>
<rscale>  2 0.45817331E+03</rscale>
<asrwt>0</asrwt>
<pdfrwt beam="1">  1       21 0.92801946E-01 0.45817331E+03</pdfrwt>
<pdfrwt beam="2">  1       21 0.12229950E-01 0.45817331E+03</pdfrwt>
<totfact> 0.50856369E+04</totfact>
</mgrwt>
</event>
<event>
 7    0  0.4712189E-002  0.4487811E+03  0.7546771E-02  0.1028086E+00
         21   -1    0    0  502  501  0.00000000000E+00  0.00000000000E+00  0.17021589377E+03  0.17021589377E+03  0.00000000000E+00 0. -1.
         21   -1    0    0  501  502 -0.00000000000E+00 -0.00000000000E+00 -0.29580737167E+03  0.29580737167E+03  0.00000000000E+00 0. -1.
      99926    2    1    2    0    0  0.00000000000E+00  0.00000000000E+00 -0.12559147790E+03  0.46602326544E+03  0.44878108763E+03 0.  0.
      99925    2    3    3    0    0 -0.74263674784E+02 -0.46495111992E+02 -0.14376738934E+03  0.31222222290E+03  0.26293871036E+03 0.  0.
         25    1    3    3    0    0  0.74263674784E+02  0.46495111992E+02  0.18175911432E+02  0.15380104255E+03  0.12509000000E+03 0.  0.
         25    1    4    4    0    0 -0.46565552557E+02 -0.16021346933E+02 -0.28976318130E+02  0.13752152324E+03  0.12509000000E+03 0.  0.
         25    1    4    4    0    0 -0.27698122227E+02 -0.30473765058E+02 -0.11479107121E+03  0.17470069966E+03  0.12509000000E+03 0.  0.
<mgrwt>
<rscale>  2 0.44878109E+03</rscale>
<asrwt>0</asrwt>
<pdfrwt beam="1">  1       21 0.25031749E-01 0.44878109E+03</pdfrwt>
<pdfrwt beam="2">  1       21 0.43501084E-01 0.44878109E+03</pdfrwt>
<totfact> 0.71180092E+04</totfact>
</mgrwt>
</event>
<event>
 7    0  0.4712189E-002  0.4570164E+03  0.7546771E-02  0.1025650E+00
         21   -1    0    0  502  501  0.00000000000E+00  0.00000000000E+00  0.95005018478E+03  0.95005018478E+03  0.00000000000E+00 0.  1.
         21   -1    0    0  501  502 -0.00000000000E+00 -0.00000000000E+00 -0.54961294674E+02  0.54961294674E+02  0.00000000000E+00 0.  1.
      99926    2    1    2    0    0  0.00000000000E+00  0.00000000000E+00  0.89508889010E+03  0.10050114795E+04  0.45701635927E+03 0.  0.
      99925    2    3    3    0    0  0.53135172424E+02  0.99218959676E+02  0.51052288862E+03  0.58524217840E+03  0.26307230768E+03 0.  0.
         25    1    3    3    0    0 -0.53135172424E+02 -0.99218959676E+02  0.38456600148E+03  0.41976930105E+03  0.12509000000E+03 0.  0.
         25    1    4    4    0    0  0.37339349175E+02  0.89262959454E+02  0.31327566512E+03  0.35092912872E+03  0.12509000000E+03 0.  0.
         25    1    4    4    0    0  0.15795823250E+02  0.99560002229E+01  0.19724722350E+03  0.23431304968E+03  0.12509000000E+03 0.  0.
<mgrwt>
<rscale>  2 0.45701636E+03</rscale>
<asrwt>0</asrwt>
<pdfrwt beam="1">  1       21 0.13971325E+00 0.45701636E+03</pdfrwt>
<pdfrwt beam="2">  1       21 0.80825439E-02 0.45701636E+03</pdfrwt>
<totfact> 0.38364762E+04</totfact>
</mgrwt>
</event>
<event>
 7    0  0.4712189E-002  0.4268085E+03  0.7546771E-02  0.1034873E+00
         21   -1    0    0  502  501  0.00000000000E+00  0.00000000000E+00  0.12220448021E+03  0.12220448021E+03  0.00000000000E+00 0. -1.
         21   -1    0    0  501  502 -0.00000000000E+00 -0.00000000000E+00 -0.37266534810E+03  0.37266534810E+03  0.00000000000E+00 0. -1.
      99926    2    1    2    0    0  0.00000000000E+00  0.00000000000E+00 -0.25046086789E+03  0.49486982831E+03  0.42680850581E+03 0.  0.
      99925    2    3    3    0    0  0.87198249454E+01  0.10239088161E+02 -0.64931404783E+02  0.27070568298E+03  0.26245876857E+03 0.  0.
         25    1    4    4    0    0  0.26036206417E+02 -0.12566361345E+02 -0.35028756384E+01  0.12843510314E+03  0.12509000000E+03 0.  0.
         25    1    3    3    0    0 -0.87198249454E+01 -0.10239088161E+02 -0.18552946310E+03  0.22416414533E+03  0.12509000000E+03 0.  0.
         25    1    4    4    0    0 -0.17316381471E+02  0.22805449506E+02 -0.61428529144E+02  0.14227057984E+03  0.12509000000E+03 0.  0.
<mgrwt>
<rscale>  2 0.42680851E+03</rscale>
<asrwt>0</asrwt>
<pdfrwt beam="1">  1       21 0.17971247E-01 0.42680851E+03</pdfrwt>
<pdfrwt beam="2">  1       21 0.54803728E-01 0.42680851E+03</pdfrwt>
<totfact> 0.82622740E+04</totfact>
</mgrwt>
</event>
<event>
 7    0  0.4712189E-002  0.4527477E+03  0.7546771E-02  0.1026906E+00
         21   -1    0    0  502  501  0.00000000000E+00  0.00000000000E+00  0.12964292815E+03  0.12964292815E+03  0.00000000000E+00 0. -1.
         21   -1    0    0  501  502 -0.00000000000E+00 -0.00000000000E+00 -0.39527902574E+03  0.39527902574E+03  0.00000000000E+00 0. -1.
      99926    2    1    2    0    0  0.00000000000E+00  0.00000000000E+00 -0.26563609758E+03  0.52492195389E+03  0.45274774581E+03 0.  0.
      99925    2    3    3    0    0 -0.73694720384E+02  0.44306340798E+02 -0.86106135653E+02  0.28982095649E+03  0.26303603664E+03 0.  0.
         25    1    4    4    0    0 -0.22614628812E+02  0.53844877812E+02 -0.21379937944E+02  0.13969718018E+03  0.12509000000E+03 0.  0.
         25    1    3    3    0    0  0.73694720384E+02 -0.44306340798E+02 -0.17952996193E+03  0.23510099740E+03  0.12509000000E+03 0.  0.
         25    1    4    4    0    0 -0.51080091573E+02 -0.95385370139E+01 -0.64726197708E+02  0.15012377631E+03  0.12509000000E+03 0.  0.
<mgrwt>
<rscale>  2 0.45274775E+03</rscale>
<asrwt>0</asrwt>
<pdfrwt beam="1">  1       21 0.19065137E-01 0.45274775E+03</pdfrwt>
<pdfrwt beam="2">  1       21 0.58129268E-01 0.45274775E+03</pdfrwt>
<totfact> 0.64699000E+04</totfact>
</mgrwt>
</event>
<event>
 7    0  0.4712189E-002  0.4602770E+03  0.7546771E-02  0.1024701E+00
         21   -1    0    0  502  501  0.00000000000E+00  0.00000000000E+00  0.84221989217E+02  0.84221989217E+02  0.00000000000E+00 0. -1.
         21   -1    0    0  501  502 -0.00000000000E+00 -0.00000000000E+00 -0.62885873400E+03  0.62885873400E+03  0.00000000000E+00 0. -1.
      99926    2    1    2    0    0  0.14210854715E-13  0.44408920985E-15 -0.54463674478E+03  0.71308072322E+03  0.46027701882E+03 0.  0.
      99925    2    3    3    0    0  0.68122613853E+02  0.36759556303E+01 -0.19180465701E+03  0.33256502915E+03  0.26297579546E+03 0.  0.
         25    1    4    4    0    0  0.42218504554E+02 -0.52480471052E+01 -0.49419435876E+02  0.14106641297E+03  0.12509000000E+03 0.  0.
         25    1    4    4    0    0  0.25904109299E+02  0.89240027355E+01 -0.14238522114E+03  0.19149861619E+03  0.12509000000E+03 0.  0.
         25    1    3    3    0    0 -0.68122613853E+02 -0.36759556303E+01 -0.35283208777E+03  0.38051569406E+03  0.12509000000E+03 0.  0.
<mgrwt>
<rscale>  2 0.46027702E+03</rscale>
<asrwt>0</asrwt>
<pdfrwt beam="1">  1       21 0.12385587E-01 0.46027702E+03</pdfrwt>
<pdfrwt beam="2">  1       21 0.92479225E-01 0.46027702E+03</pdfrwt>
<totfact> 0.50086569E+04</totfact>
</mgrwt>
</event>
<event>
 7    0  0.4712189E-002  0.4569955E+03  0.7546771E-02  0.1025656E+00
         21   -1    0    0  502  501  0.00000000000E+00  0.00000000000E+00  0.71225349558E+02  0.71225349558E+02  0.00000000000E+00 0.  1.
         21   -1    0    0  501  502 -0.00000000000E+00 -0.00000000000E+00 -0.73304260450E+03  0.73304260450E+03  0.00000000000E+00 0.  1.
      99926    2    1    2    0    0  0.00000000000E+00 -0.14210854715E-13 -0.66181725495E+03  0.80426795406E+03  0.45699547371E+03 0.  0.
      99925    2    3    3    0    0  0.10420052218E+02  0.11450195582E+03 -0.41660884231E+03  0.50594941776E+03  0.26306389046E+03 0.  0.
         25    1    4    4    0    0 -0.25154830090E+02  0.60425998432E+02 -0.16121958410E+03  0.21429729154E+03  0.12509000000E+03 0.  0.
         25    1    4    4    0    0  0.35574882308E+02  0.54075957391E+02 -0.25538925821E+03  0.29165212622E+03  0.12509000000E+03 0.  0.
         25    1    3    3    0    0 -0.10420052218E+02 -0.11450195582E+03 -0.24520841264E+03  0.29831853631E+03  0.12509000000E+03 0.  0.
<mgrwt>
<rscale>  2 0.45699547E+03</rscale>
<asrwt>0</asrwt>
<pdfrwt beam="1">  1       21 0.10474316E-01 0.45699547E+03</pdfrwt>
<pdfrwt beam="2">  1       21 0.10780039E+00 0.45699547E+03</pdfrwt>
<totfact> 0.46821540E+04</totfact>
</mgrwt>
</event>
<event>
 7    0  0.4712189E-002  0.4892092E+03  0.7546771E-02  0.1016634E+00
         21   -1    0    0  502  501  0.00000000000E+00  0.00000000000E+00  0.20216668167E+03  0.20216668167E+03  0.00000000000E+00 0.  1.
         21   -1    0    0  501  502 -0.00000000000E+00 -0.00000000000E+00 -0.29595091914E+03  0.29595091914E+03  0.00000000000E+00 0.  1.
      99926    2    1    2    0    0  0.14210854715E-13  0.00000000000E+00 -0.93784237465E+02  0.49811760081E+03  0.48920922011E+03 0.  0.
      99925    2    3    3    0    0  0.75539310473E+02 -0.72333068255E+02 -0.15627461333E+03  0.32350140636E+03  0.26323591121E+03 0.  0.
         25    1    4    4    0    0 -0.16316353183E+01 -0.47100363992E+02 -0.82967076730E+02  0.15732816163E+03  0.12509000000E+03 0.  0.
         25    1    3    3    0    0 -0.75539310473E+02  0.72333068255E+02  0.62490375869E+02  0.17461619446E+03  0.12509000000E+03 0.  0.
         25    1    4    4    0    0  0.77170945791E+02 -0.25232704263E+02 -0.73307536604E+02  0.16617324472E+03  0.12509000000E+03 0.  0.
<mgrwt>
<rscale>  2 0.48920922E+03</rscale>
<asrwt>0</asrwt>
<pdfrwt beam="1">  1       21 0.29730395E-01 0.48920922E+03</pdfrwt>
<pdfrwt beam="2">  1       21 0.43522193E-01 0.48920922E+03</pdfrwt>
<totfact> 0.50288988E+04</totfact>
</mgrwt>
</event>
<event>
 7    0  0.4712189E-002  0.4573208E+03  0.7546771E-02  0.1025561E+00
         21   -1    0    0  502  501  0.00000000000E+00  0.00000000000E+00  0.24448129278E+03  0.24448129278E+03  0.00000000000E+00 0. -1.
         21   -1    0    0  501  502 -0.00000000000E+00 -0.00000000000E+00 -0.21386326910E+03  0.21386326910E+03  0.00000000000E+00 0. -1.
      99926    2    1    2    0    0  0.44408920985E-14  0.00000000000E+00  0.30618023685E+02  0.45834456188E+03  0.45732075618E+03 0.  0.
      99925    2    3    3    0    0  0.70675747868E+01 -0.13753868126E+02  0.13377714885E+03  0.29546904897E+03  0.26299527342E+03 0.  0.
         25    1    3    3    0    0 -0.70675747868E+01  0.13753868126E+02 -0.10315912517E+03  0.16287551291E+03  0.12509000000E+03 0.  0.
         25    1    4    4    0    0  0.39824907788E+02  0.59036495147E+01  0.52689064857E+02  0.14157867782E+03  0.12509000000E+03 0.  0.
         25    1    4    4    0    0 -0.32757333001E+02 -0.19657517641E+02  0.81088083995E+02  0.15389037115E+03  0.12509000000E+03 0.  0.
<mgrwt>
<rscale>  2 0.45732076E+03</rscale>
<asrwt>0</asrwt>
<pdfrwt beam="1">  1       21 0.35953131E-01 0.45732076E+03</pdfrwt>
<pdfrwt beam="2">  1       21 0.31450481E-01 0.45732076E+03</pdfrwt>
<totfact> 0.67051297E+04</totfact>
</mgrwt>
</event>
<event>
 7    0  0.4712189E-002  0.4648604E+03  0.7546771E-02  0.1023381E+00
         21   -1    0    0  502  501  0.00000000000E+00  0.00000000000E+00  0.47354991986E+03  0.47354991986E+03  0.00000000000E+00 0.  1.
         21   -1    0    0  501  502 -0.00000000000E+00 -0.00000000000E+00 -0.11408257479E+03  0.11408257479E+03  0.00000000000E+00 0.  1.
      99926    2    1    2    0    0  0.00000000000E+00  0.00000000000E+00  0.35946734507E+03  0.58763249466E+03  0.46486038399E+03 0.  0.
      99925    2    3    3    0    0 -0.15804122806E+02  0.10077225147E+03  0.13925110313E+03  0.31459858050E+03  0.26301441057E+03 0.  0.
         25    1    4    4    0    0  0.95059606981E+01  0.75657721929E+02  0.10454136752E+03  0.17997460876E+03  0.12509000000E+03 0.  0.
         25    1    3    3    0    0  0.15804122806E+02 -0.10077225147E+03  0.22021624194E+03  0.27303391415E+03  0.12509000000E+03 0.  0.
         25    1    4    4    0    0 -0.25310083504E+02  0.25114529546E+02  0.34709735614E+02  0.13462397174E+03  0.12509000000E+03 0.  0.
<mgrwt>
<rscale>  2 0.46486038E+03</rscale>
<asrwt>0</asrwt>
<pdfrwt beam="1">  1       21 0.69639693E-01 0.46486038E+03</pdfrwt>
<pdfrwt beam="2">  1       21 0.16776849E-01 0.46486038E+03</pdfrwt>
<totfact> 0.55029950E+04</totfact>
</mgrwt>
</event>
<event>
 7    0  0.4712189E-002  0.4486544E+03  0.7546771E-02  0.1028124E+00
         21   -1    0    0  502  501  0.00000000000E+00  0.00000000000E+00  0.36855340277E+03  0.36855340277E+03  0.00000000000E+00 0. -1.
         21   -1    0    0  501  502 -0.00000000000E+00 -0.00000000000E+00 -0.13654112301E+03  0.13654112301E+03  0.00000000000E+00 0. -1.
      99926    2    1    2    0    0  0.14210854715E-13  0.00000000000E+00  0.23201227977E+03  0.50509452578E+03  0.44865441267E+03 0.  0.
      99925    2    3    3    0    0 -0.10226780060E+03 -0.31662656362E+02  0.14738030002E+03  0.31996941418E+03  0.26305559551E+03 0.  0.
         25    1    4    4    0    0 -0.81843247240E+02 -0.28861220068E+02  0.10989917499E+03  0.18776747297E+03  0.12509000000E+03 0.  0.
         25    1    4    4    0    0 -0.20424553363E+02 -0.28014362938E+01  0.37481125025E+02  0.13220194121E+03  0.12509000000E+03 0.  0.
         25    1    3    3    0    0  0.10226780060E+03  0.31662656362E+02  0.84631979750E+02  0.18512511160E+03  0.12509000000E+03 0.  0.
<mgrwt>
<rscale>  2 0.44865441E+03</rscale>
<asrwt>0</asrwt>
<pdfrwt beam="1">  1       21 0.54199030E-01 0.44865441E+03</pdfrwt>
<pdfrwt beam="2">  1       21 0.20079577E-01 0.44865441E+03</pdfrwt>
<totfact> 0.68289135E+04</totfact>
</mgrwt>
</event>
<event>
 7    0  0.4712189E-002  0.4645583E+03  0.7546771E-02  0.1023467E+00
         21   -1    0    0  502  501  0.00000000000E+00  0.00000000000E+00  0.11795662167E+04  0.11795662167E+04  0.00000000000E+00 0.  1.
         21   -1    0    0  501  502 -0.00000000000E+00 -0.00000000000E+00 -0.45740200710E+02  0.45740200710E+02  0.00000000000E+00 0.  1.
      99926    2    1    2    0    0 -0.23869795029E-14  0.00000000000E+00  0.11338260160E+04  0.12253064174E+04  0.46455826546E+03 0.  0.
      99925    2    3    3    0    0  0.30936785196E+00 -0.90249316494E+02  0.49360435610E+03  0.56676536575E+03  0.26350082469E+03 0.  0.
         25    1    4    4    0    0  0.28074387586E+02 -0.32114543520E+02  0.29619508094E+03  0.32434325832E+03  0.12509000000E+03 0.  0.
         25    1    4    4    0    0 -0.27765019734E+02 -0.58134772974E+02  0.19740927516E+03  0.24242210743E+03  0.12509000000E+03 0.  0.
         25    1    3    3    0    0 -0.30936785196E+00  0.90249316494E+02  0.64022165985E+03  0.65854105162E+03  0.12509000000E+03 0.  0.
<mgrwt>
<rscale>  2 0.46455827E+03</rscale>
<asrwt>0</asrwt>
<pdfrwt beam="1">  1       21 0.17346560E+00 0.46455827E+03</pdfrwt>
<pdfrwt beam="2">  1       21 0.67265009E-02 0.46455827E+03</pdfrwt>
<totfact> 0.29134024E+04</totfact>
</mgrwt>
</event>
<event>
 7    0  0.4712189E-002  0.4561326E+03  0.7546771E-02  0.1025909E+00
         21   -1    0    0  502  501  0.00000000000E+00  0.00000000000E+00  0.14169537539E+03  0.14169537539E+03  0.00000000000E+00 0. -1.
         21   -1    0    0  501  502 -0.00000000000E+00 -0.00000000000E+00 -0.36708491078E+03  0.36708491078E+03  0.00000000000E+00 0. -1.
      99926    2    1    2    0    0  0.00000000000E+00 -0.17763568394E-14 -0.22538953538E+03  0.50878028617E+03  0.45613258701E+03 0.  0.
      99925    2    3    3    0    0 -0.11374338433E+03 -0.11511732223E+02 -0.13940724521E+03  0.31875255193E+03  0.26286637649E+03 0.  0.
         25    1    3    3    0    0  0.11374338433E+03  0.11511732223E+02 -0.85982290177E+02  0.19002773424E+03  0.12509000000E+03 0.  0.
         25    1    4    4    0    0 -0.42274179789E+02 -0.35982254517E+02 -0.42085280562E+02  0.14317998414E+03  0.12509000000E+03 0.  0.
         25    1    4    4    0    0 -0.71469204540E+02  0.24470522294E+02 -0.97321964645E+02  0.17557256779E+03  0.12509000000E+03 0.  0.
<mgrwt>
<rscale>  2 0.45613259E+03</rscale>
<asrwt>0</asrwt>
<pdfrwt beam="1">  1       21 0.20837556E-01 0.45613259E+03</pdfrwt>
<pdfrwt beam="2">  1       21 0.53983074E-01 0.45613259E+03</pdfrwt>
<totfact> 0.64080161E+04</totfact>
</mgrwt>
</event>
<event>
 7    0  0.4712189E-002  0.4585289E+03  0.7546771E-02  0.1025209E+00
         21   -1    0    0  502  501  0.00000000000E+00  0.00000000000E+00  0.88548391389E+02  0.88548391389E+02  0.00000000000E+00 0. -1.
         21   -1    0    0  501  502 -0.00000000000E+00 -0.00000000000E+00 -0.59359840806E+03  0.59359840806E+03  0.00000000000E+00 0. -1.
      99926    2    1    2    0    0  0.00000000000E+00 -0.14210854715E-13 -0.50505001667E+03  0.68214679945E+03  0.45852888312E+03 0.  0.
      99925    2    3    3    0    0  0.76431537934E+02  0.84122488063E+02 -0.27903958843E+03  0.39992951656E+03  0.26298698317E+03 0.  0.
         25    1    4    4    0    0  0.75005081876E+02  0.36300004192E+02 -0.17249471023E+03  0.22879114006E+03  0.12509000000E+03 0.  0.
         25    1    4    4    0    0  0.14264560581E+01  0.47822483871E+02 -0.10654487820E+03  0.17113837650E+03  0.12509000000E+03 0.  0.
         25    1    3    3    0    0 -0.76431537934E+02 -0.84122488063E+02 -0.22601042823E+03  0.28221728289E+03  0.12509000000E+03 0.  0.
<mgrwt>
<rscale>  2 0.45852888E+03</rscale>
<asrwt>0</asrwt>
<pdfrwt beam="1">  1       21 0.13021822E-01 0.45852888E+03</pdfrwt>
<pdfrwt beam="2">  1       21 0.87293884E-01 0.45852888E+03</pdfrwt>
<totfact> 0.52411270E+04</totfact>
</mgrwt>
</event>
<event>
 7    0  0.4712189E-002  0.4489892E+03  0.7546771E-02  0.1028024E+00
         21   -1    0    0  502  501  0.00000000000E+00  0.00000000000E+00  0.61591010277E+03  0.61591010277E+03  0.00000000000E+00 0.  1.
         21   -1    0    0  501  502 -0.00000000000E+00 -0.00000000000E+00 -0.81826587741E+02  0.81826587741E+02  0.00000000000E+00 0.  1.
      99926    2    1    2    0    0  0.17763568394E-14 -0.14210854715E-13  0.53408351503E+03  0.69773669052E+03  0.44898918502E+03 0.  0.
      99925    2    3    3    0    0 -0.15678567849E+02  0.10105897078E+03  0.38775315057E+03  0.47974857908E+03  0.26333905955E+03 0.  0.
         25    1    3    3    0    0  0.15678567849E+02 -0.10105897078E+03  0.14633036446E+03  0.21798811143E+03  0.12509000000E+03 0.  0.
         25    1    4    4    0    0 -0.23235898541E+02  0.71020385059E+02  0.14880198770E+03  0.20826267481E+03  0.12509000000E+03 0.  0.
         25    1    4    4    0    0  0.75573306923E+01  0.30038585718E+02  0.23895116288E+03  0.27148590427E+03  0.12509000000E+03 0.  0.
<mgrwt>
<rscale>  2 0.44898919E+03</rscale>
<asrwt>0</asrwt>
<pdfrwt beam="1">  1       21 0.90575013E-01 0.44898919E+03</pdfrwt>
<pdfrwt beam="2">  1       21 0.12033322E-01 0.44898919E+03</pdfrwt>
<totfact> 0.55610411E+04</totfact>
</mgrwt>
</event>
<event>
 7    0  0.4712189E-002  0.4447621E+03  0.7546771E-02  0.1029296E+00
         21   -1    0    0  502  501  0.00000000000E+00  0.00000000000E+00  0.12049500082E+03  0.12049500082E+03  0.00000000000E+00 0. -1.
         21   -1    0    0  501  502 -0.00000000000E+00 -0.00000000000E+00 -0.41041805186E+03  0.41041805186E+03  0.00000000000E+00 0. -1.
      99926    2    1    2    0    0  0.00000000000E+00  0.35527136788E-14 -0.28992305103E+03  0.53091305268E+03  0.44476206447E+03 0.  0.
      99925    2    3    3    0    0 -0.91102306154E+02 -0.25505653744E+02 -0.23366400330E+03  0.36429145411E+03  0.26298142242E+03 0.  0.
         25    1    4    4    0    0 -0.76178713412E+02 -0.42070687633E+02 -0.12450978139E+03  0.19678245068E+03  0.12509000000E+03 0.  0.
         25    1    4    4    0    0 -0.14923592742E+02  0.16565033890E+02 -0.10915422191E+03  0.16750900343E+03  0.12509000000E+03 0.  0.
         25    1    3    3    0    0  0.91102306154E+02  0.25505653744E+02 -0.56259047735E+02  0.16662159857E+03  0.12509000000E+03 0.  0.
<mgrwt>
<rscale>  2 0.44476206E+03</rscale>
<asrwt>0</asrwt>
<pdfrwt beam="1">  1       21 0.17719853E-01 0.44476206E+03</pdfrwt>
<pdfrwt beam="2">  1       21 0.60355597E-01 0.44476206E+03</pdfrwt>
<totfact> 0.68533001E+04</totfact>
</mgrwt>
</event>
<event>
 7    0  0.4712189E-002  0.4483188E+03  0.7546771E-02  0.1028225E+00
         21   -1    0    0  502  501  0.00000000000E+00  0.00000000000E+00  0.11011910998E+03  0.11011910998E+03  0.00000000000E+00 0.  1.
         21   -1    0    0  501  502 -0.00000000000E+00 -0.00000000000E+00 -0.45630083221E+03  0.45630083221E+03  0.00000000000E+00 0.  1.
      99926    2    1    2    0    0 -0.71054273576E-14  0.00000000000E+00 -0.34618172223E+03  0.56641994219E+03  0.44831882194E+03 0.  0.
      99925    2    3    3    0    0  0.46760041411E+02  0.57978811518E+02 -0.12258298911E+03  0.29960175389E+03  0.26303341547E+03 0.  0.
         25    1    4    4    0    0  0.27592142183E+02  0.21074402947E+02 -0.17442130882E+02  0.13098546789E+03  0.12509000000E+03 0.  0.
         25    1    4    4    0    0  0.19167899228E+02  0.36904408571E+02 -0.10514085823E+03  0.16861628599E+03  0.12509000000E+03 0.  0.
         25    1    3    3    0    0 -0.46760041411E+02 -0.57978811518E+02 -0.22359873312E+03  0.26681818831E+03  0.12509000000E+03 0.  0.
<mgrwt>
<rscale>  2 0.44831882E+03</rscale>
<asrwt>0</asrwt>
<pdfrwt beam="1">  1       21 0.16193987E-01 0.44831882E+03</pdfrwt>
<pdfrwt beam="2">  1       21 0.67103063E-01 0.44831882E+03</pdfrwt>
<totfact> 0.64115487E+04</totfact>
</mgrwt>
</event>
<event>
 7    0  0.4712189E-002  0.4592993E+03  0.7546771E-02  0.1024985E+00
         21   -1    0    0  502  501  0.00000000000E+00  0.00000000000E+00  0.27126158618E+03  0.27126158618E+03  0.00000000000E+00 0. -1.
         21   -1    0    0  501  502 -0.00000000000E+00 -0.00000000000E+00 -0.19442107601E+03  0.19442107601E+03  0.00000000000E+00 0. -1.
      99926    2    1    2    0    0  0.00000000000E+00 -0.71054273576E-14  0.76840510167E+02  0.46568266219E+03  0.45929933361E+03 0.  0.
      99925    2    3    3    0    0  0.56551735014E+02  0.48718959058E+02 -0.43465896431E+02  0.27675734553E+03  0.26293289723E+03 0.  0.
         25    1    4    4    0    0 -0.36707004787E+01 -0.21347566577E+01 -0.26478469794E+02  0.12793220349E+03  0.12509000000E+03 0.  0.
         25    1    4    4    0    0  0.60222435492E+02  0.50853715716E+02 -0.16987426637E+02  0.14882514204E+03  0.12509000000E+03 0.  0.
         25    1    3    3    0    0 -0.56551735014E+02 -0.48718959058E+02  0.12030640660E+03  0.18892531666E+03  0.12509000000E+03 0.  0.
<mgrwt>
<rscale>  2 0.45929933E+03</rscale>
<asrwt>0</asrwt>
<pdfrwt beam="1">  1       21 0.39891410E-01 0.45929933E+03</pdfrwt>
<pdfrwt beam="2">  1       21 0.28591335E-01 0.45929933E+03</pdfrwt>
<totfact> 0.65492337E+04</totfact>
</mgrwt>
</event>
<event>
 7    0  0.4712189E-002  0.4451444E+03  0.7546771E-02  0.1029180E+00
         21   -1    0    0  502  501  0.00000000000E+00  0.00000000000E+00  0.28076330435E+03  0.28076330435E+03  0.00000000000E+00 0. -1.
         21   -1    0    0  501  502 -0.00000000000E+00 -0.00000000000E+00 -0.17644181248E+03  0.17644181248E+03  0.00000000000E+00 0. -1.
      99926    2    1    2    0    0  0.00000000000E+00  0.00000000000E+00  0.10432149187E+03  0.45720511683E+03  0.44514440936E+03 0.  0.
      99925    2    3    3    0    0 -0.54377243514E+02  0.85079250662E+02  0.42199283692E+02  0.28486231787E+03  0.26300265605E+03 0.  0.
         25    1    4    4    0    0 -0.12099108238E+02  0.50162691610E+02  0.58293148627E+02  0.14733731139E+03  0.12509000000E+03 0.  0.
         25    1    4    4    0    0 -0.42278135276E+02  0.34916559052E+02 -0.16093864935E+02  0.13752500648E+03  0.12509000000E+03 0.  0.
         25    1    3    3    0    0  0.54377243514E+02 -0.85079250662E+02  0.62122208173E+02  0.17234279896E+03  0.12509000000E+03 0.  0.
<mgrwt>
<rscale>  2 0.44514441E+03</rscale>
<asrwt>0</asrwt>
<pdfrwt beam="1">  1       21 0.41288721E-01 0.44514441E+03</pdfrwt>
<pdfrwt beam="2">  1       21 0.25947325E-01 0.44514441E+03</pdfrwt>
<totfact> 0.74018800E+04</totfact>
</mgrwt>
</event>
<event>
 7    0  0.4712189E-002  0.4486849E+03  0.7546771E-02  0.1028115E+00
         21   -1    0    0  502  501  0.00000000000E+00  0.00000000000E+00  0.18392700659E+03  0.18392700659E+03  0.00000000000E+00 0. -1.
         21   -1    0    0  501  502 -0.00000000000E+00 -0.00000000000E+00 -0.27363868853E+03  0.27363868853E+03  0.00000000000E+00 0. -1.
      99926    2    1    2    0    0  0.00000000000E+00  0.00000000000E+00 -0.89711681936E+02  0.45756569512E+03  0.44868494456E+03 0.  0.
      99925    2    3    3    0    0  0.72143331201E+02 -0.37906243872E+02  0.13710397541E+02  0.27594747416E+03  0.26328214891E+03 0.  0.
         25    1    4    4    0    0  0.43792550069E+02  0.19379013471E+02  0.19494787369E+02  0.13535467646E+03  0.12509000000E+03 0.  0.
         25    1    4    4    0    0  0.28350781132E+02 -0.57285257343E+02 -0.57843898283E+01  0.14059279770E+03  0.12509000000E+03 0.  0.
         25    1    3    3    0    0 -0.72143331201E+02  0.37906243872E+02 -0.10342207948E+03  0.18161822096E+03  0.12509000000E+03 0.  0.
<mgrwt>
<rscale>  2 0.44868494E+03</rscale>
<asrwt>0</asrwt>
<pdfrwt beam="1">  1       21 0.27048089E-01 0.44868494E+03</pdfrwt>
<pdfrwt beam="2">  1       21 0.40240983E-01 0.44868494E+03</pdfrwt>
<totfact> 0.71907609E+04</totfact>
</mgrwt>
</event>
<event>
 7    0  0.4712189E-002  0.4497809E+03  0.7546771E-02  0.1027787E+00
         21   -1    0    0  502  501  0.00000000000E+00  0.00000000000E+00  0.14215703107E+03  0.14215703107E+03  0.00000000000E+00 0. -1.
         21   -1    0    0  501  502 -0.00000000000E+00 -0.00000000000E+00 -0.35577358670E+03  0.35577358670E+03  0.00000000000E+00 0. -1.
      99926    2    1    2    0    0  0.00000000000E+00 -0.17763568394E-14 -0.21361655563E+03  0.49793061778E+03  0.44978091031E+03 0.  0.
      99925    2    3    3    0    0 -0.93479463184E+02  0.11467180460E+02 -0.75870153698E+02  0.28938449431E+03  0.26290150068E+03 0.  0.
         25    1    4    4    0    0 -0.16227455810E+02  0.32270292388E+02 -0.44715635962E+02  0.13766516732E+03  0.12509000000E+03 0.  0.
         25    1    3    3    0    0  0.93479463184E+02 -0.11467180460E+02 -0.13774640193E+03  0.20854612346E+03  0.12509000000E+03 0.  0.
         25    1    4    4    0    0 -0.77252007373E+02 -0.20803111928E+02 -0.31154517736E+02  0.15171932700E+03  0.12509000000E+03 0.  0.
<mgrwt>
<rscale>  2 0.44978091E+03</rscale>
<asrwt>0</asrwt>
<pdfrwt beam="1">  1       21 0.20905446E-01 0.44978091E+03</pdfrwt>
<pdfrwt beam="2">  1       21 0.52319645E-01 0.44978091E+03</pdfrwt>
<totfact> 0.68198157E+04</totfact>
</mgrwt>
</event>
<event>
 6    0  0.4712189E-002  0.4408817E+03  0.7546771E-02  0.1030477E+00
         21   -1    0    0  502  501  0.00000000000E+00  0.00000000000E+00  0.41374406434E+03  0.41374406434E+03  0.00000000000E+00 0.  1.
         21   -1    0    0  501  502 -0.00000000000E+00 -0.00000000000E+00 -0.11744985235E+03  0.11744985235E+03  0.00000000000E+00 0.  1.
      99926    2    1    2    0    0 -0.17763568394E-14  0.00000000000E+00  0.29629421200E+03  0.53119391669E+03  0.44088174953E+03 0.  0.
         25    1    3    3    0    0 -0.31238226446E+01 -0.25325122124E+02  0.21443088151E+03  0.24955807165E+03  0.12509000000E+03 0.  0.
         25    1    3    3    0    0 -0.10326766569E+02 -0.85228208138E+01  0.84110102282E+02  0.15133174812E+03  0.12509000000E+03 0.  0.
         25    1    3    3    0    0  0.13450589214E+02  0.33847942937E+02 -0.22467718001E+01  0.13030409692E+03  0.12509000000E+03 0.  0.
<mgrwt>
<rscale>  2 0.44088175E+03</rscale>
<asrwt>0</asrwt>
<pdfrwt beam="1">  1       21 0.60844715E-01 0.44088175E+03</pdfrwt>
<pdfrwt beam="2">  1       21 0.17272037E-01 0.44088175E+03</pdfrwt>
<totfact> 0.70702791E+04</totfact>
</mgrwt>
</event>
<event>
 7    0  0.4712189E-002  0.4577529E+03  0.7546771E-02  0.1025435E+00
         21   -1    0    0  502  501  0.00000000000E+00  0.00000000000E+00  0.72160783579E+03  0.72160783579E+03  0.00000000000E+00 0.  1.
         21   -1    0    0  501  502 -0.00000000000E+00 -0.00000000000E+00 -0.72594035341E+02  0.72594035341E+02  0.00000000000E+00 0.  1.
      99926    2    1    2    0    0  0.00000000000E+00  0.00000000000E+00  0.64901380045E+03  0.79420187113E+03  0.45775287977E+03 0.  0.
      99925    2    3    3    0    0 -0.57594201645E+02 -0.98223803753E+02  0.44312685182E+03  0.52773995752E+03  0.26302670640E+03 0.  0.
         25    1    4    4    0    0 -0.35272146623E+02 -0.20693589093E+02  0.15420999957E+03  0.20273278231E+03  0.12509000000E+03 0.  0.
         25    1    3    3    0    0  0.57594201645E+02  0.98223803753E+02  0.20588694863E+03  0.26646191361E+03  0.12509000000E+03 0.  0.
         25    1    4    4    0    0 -0.22322055023E+02 -0.77530214661E+02  0.28891685225E+03  0.32500717521E+03  0.12509000000E+03 0.  0.
<mgrwt>
<rscale>  2 0.45775288E+03</rscale>
<asrwt>0</asrwt>
<pdfrwt beam="1">  1       21 0.10611880E+00 0.45775288E+03</pdfrwt>
<pdfrwt beam="2">  1       21 0.10675594E-01 0.45775288E+03</pdfrwt>
<totfact> 0.47022368E+04</totfact>
</mgrwt>
</event>
<event>
 7    0  0.4712189E-002  0.4548864E+03  0.7546771E-02  0.1026275E+00
         21   -1    0    0  502  501  0.00000000000E+00  0.00000000000E+00  0.50600216274E+03  0.50600216274E+03  0.00000000000E+00 0.  1.
         21   -1    0    0  501  502 -0.00000000000E+00 -0.00000000000E+00 -0.10223359331E+03  0.10223359331E+03  0.00000000000E+00 0.  1.
      99926    2    1    2    0    0  0.14210854715E-13  0.00000000000E+00  0.40376856942E+03  0.60823575605E+03  0.45488644438E+03 0.  0.
      99925    2    3    3    0    0  0.81423444953E+02 -0.68847954607E+02  0.30474287906E+03  0.41634147867E+03  0.26287294702E+03 0.  0.
         25    1    4    4    0    0  0.69059530998E+02 -0.67337810776E+02  0.17125395437E+03  0.23297859251E+03  0.12509000000E+03 0.  0.
         25    1    4    4    0    0  0.12363913955E+02 -0.15101438311E+01  0.13348892469E+03  0.18336288615E+03  0.12509000000E+03 0.  0.
         25    1    3    3    0    0 -0.81423444953E+02  0.68847954607E+02  0.99025690361E+02  0.19189427738E+03  0.12509000000E+03 0.  0.
<mgrwt>
<rscale>  2 0.45488644E+03</rscale>
<asrwt>0</asrwt>
<pdfrwt beam="1">  1       21 0.74412082E-01 0.45488644E+03</pdfrwt>
<pdfrwt beam="2">  1       21 0.15034352E-01 0.45488644E+03</pdfrwt>
<totfact> 0.58226392E+04</totfact>
</mgrwt>
</event>
<event>
 7    0  0.4712189E-002  0.4565772E+03  0.7546771E-02  0.1025779E+00
         21   -1    0    0  502  501  0.00000000000E+00  0.00000000000E+00  0.45813433253E+02  0.45813433253E+02  0.00000000000E+00 0.  1.
         21   -1    0    0  501  502 -0.00000000000E+00 -0.00000000000E+00 -0.11375633988E+04  0.11375633988E+04  0.00000000000E+00 0.  1.
      99926    2    1    2    0    0  0.00000000000E+00  0.71054273576E-14 -0.10917499656E+04  0.11833768321E+04  0.45657719980E+03 0.  0.
      99925    2    3    3    0    0 -0.33242109242E+02  0.63252759082E+02 -0.91839615904E+03  0.95797718767E+03  0.26298828456E+03 0.  0.
         25    1    3    3    0    0  0.33242109242E+02 -0.63252759082E+02 -0.17335380655E+03  0.22539964442E+03  0.12509000000E+03 0.  0.
         25    1    4    4    0    0  0.23460151869E+02  0.23372495528E+02 -0.42270764129E+03  0.44207002882E+03  0.12509000000E+03 0.  0.
         25    1    4    4    0    0 -0.56702261112E+02  0.39880263553E+02 -0.49568851774E+03  0.51590715886E+03  0.12509000000E+03 0.  0.
<mgrwt>
<rscale>  2 0.45657720E+03</rscale>
<asrwt>0</asrwt>
<pdfrwt beam="1">  1       21 0.67372699E-02 0.45657720E+03</pdfrwt>
<pdfrwt beam="2">  1       21 0.16728873E+00 0.45657720E+03</pdfrwt>
<totfact> 0.32288702E+04</totfact>
</mgrwt>
</event>
<event>
 7    0  0.4712189E-002  0.4572820E+03  0.7546771E-02  0.1025572E+00
         21   -1    0    0  502  501  0.00000000000E+00  0.00000000000E+00  0.33373189227E+03  0.33373189227E+03  0.00000000000E+00 0.  1.
         21   -1    0    0  501  502 -0.00000000000E+00 -0.00000000000E+00 -0.15664281315E+03  0.15664281315E+03  0.00000000000E+00 0.  1.
      99926    2    1    2    0    0  0.88817841970E-15  0.71054273576E-14  0.17708907912E+03  0.49037470542E+03  0.45728198059E+03 0.  0.
      99925    2    3    3    0    0  0.34704912732E+01  0.34231919679E+02 -0.66300912064E+01  0.26546558982E+03  0.26314283695E+03 0.  0.
         25    1    4    4    0    0 -0.15337905639E+02  0.36735030774E+02 -0.34885755758E+02  0.13582797168E+03  0.12509000000E+03 0.  0.
         25    1    4    4    0    0  0.18808396912E+02 -0.25031110959E+01  0.28255664551E+02  0.12963761815E+03  0.12509000000E+03 0.  0.
         25    1    3    3    0    0 -0.34704912732E+01 -0.34231919679E+02  0.18371917032E+03  0.22490911560E+03  0.12509000000E+03 0.  0.
<mgrwt>
<rscale>  2 0.45728198E+03</rscale>
<asrwt>0</asrwt>
<pdfrwt beam="1">  1       21 0.49078220E-01 0.45728198E+03</pdfrwt>
<pdfrwt beam="2">  1       21 0.23035708E-01 0.45728198E+03</pdfrwt>
<totfact> 0.64770942E+04</totfact>
</mgrwt>
</event>
<event>
 7    0  0.4712189E-002  0.4584868E+03  0.7546771E-02  0.1025221E+00
         21   -1    0    0  502  501  0.00000000000E+00  0.00000000000E+00  0.98638530166E+02  0.98638530166E+02  0.00000000000E+00 0. -1.
         21   -1    0    0  501  502 -0.00000000000E+00 -0.00000000000E+00 -0.53277887822E+03  0.53277887822E+03  0.00000000000E+00 0. -1.
      99926    2    1    2    0    0  0.71054273576E-14  0.00000000000E+00 -0.43414034806E+03  0.63141740839E+03  0.45848675205E+03 0.  0.
      99925    2    3    3    0    0 -0.55735297060E+02 -0.87784451331E+02 -0.20027273712E+03  0.34654182014E+03  0.26300100882E+03 0.  0.
         25    1    4    4    0    0  0.64748881647E-01 -0.30943934990E+02 -0.12778264766E+03  0.18147574066E+03  0.12509000000E+03 0.  0.
         25    1    4    4    0    0 -0.55800045941E+02 -0.56840516341E+02 -0.72490089456E+02  0.16506607948E+03  0.12509000000E+03 0.  0.
         25    1    3    3    0    0  0.55735297060E+02  0.87784451331E+02 -0.23386761094E+03  0.28487558825E+03  0.12509000000E+03 0.  0.
<mgrwt>
<rscale>  2 0.45848675E+03</rscale>
<asrwt>0</asrwt>
<pdfrwt beam="1">  1       21 0.14505666E-01 0.45848675E+03</pdfrwt>
<pdfrwt beam="2">  1       21 0.78349835E-01 0.45848675E+03</pdfrwt>
<totfact> 0.55248499E+04</totfact>
</mgrwt>
</event>
<event>
 7    0  0.4712189E-002  0.4579763E+03  0.7546771E-02  0.1025370E+00
         21   -1    0    0  502  501  0.00000000000E+00  0.00000000000E+00  0.73316979085E+03  0.73316979085E+03  0.00000000000E+00 0.  1.
         21   -1    0    0  501  502 -0.00000000000E+00 -0.00000000000E+00 -0.71519015871E+02  0.71519015871E+02  0.00000000000E+00 0.  1.
      99926    2    1    2    0    0  0.00000000000E+00  0.00000000000E+00  0.66165077498E+03  0.80468880672E+03  0.45797633960E+03 0.  0.
      99925    2    3    3    0    0 -0.14946830865E+02 -0.17554679961E+02  0.61495458261E+03  0.66919114245E+03  0.26289935701E+03 0.  0.
         25    1    3    3    0    0  0.14946830865E+02  0.17554679961E+02  0.46696192366E+02  0.13549766427E+03  0.12509000000E+03 0.  0.
         25    1    4    4    0    0 -0.25939414531E+02  0.26233005772E+02  0.32515612700E+03  0.35033560887E+03  0.12509000000E+03 0.  0.
         25    1    4    4    0    0  0.10992583665E+02 -0.43787685734E+02  0.28979845562E+03  0.31885553358E+03  0.12509000000E+03 0.  0.
<mgrwt>
<rscale>  2 0.45797634E+03</rscale>
<asrwt>0</asrwt>
<pdfrwt beam="1">  1       21 0.10781908E+00 0.45797634E+03</pdfrwt>
<pdfrwt beam="2">  1       21 0.10517503E-01 0.45797634E+03</pdfrwt>
<totfact> 0.46444514E+04</totfact>
</mgrwt>
</event>
<event>
 7    0  0.4712189E-002  0.4415179E+03  0.7546771E-02  0.1030282E+00
         21   -1    0    0  502  501  0.00000000000E+00  0.00000000000E+00  0.20096269019E+03  0.20096269019E+03  0.00000000000E+00 0. -1.
         21   -1    0    0  501  502 -0.00000000000E+00 -0.00000000000E+00 -0.24250525022E+03  0.24250525022E+03  0.00000000000E+00 0. -1.
      99926    2    1    2    0    0  0.35527136788E-14  0.00000000000E+00 -0.41542560037E+02  0.44346794041E+03  0.44151787039E+03 0.  0.
      99925    2    3    3    0    0  0.26947773003E+02  0.94289756264E+02 -0.45676091491E+02  0.28446688762E+03  0.26309383157E+03 0.  0.
         25    1    4    4    0    0 -0.78978908055E+01  0.74562993549E+02 -0.46652095303E+02  0.15312068045E+03  0.12509000000E+03 0.  0.
         25    1    3    3    0    0 -0.26947773003E+02 -0.94289756264E+02  0.41335314542E+01  0.15900105279E+03  0.12509000000E+03 0.  0.
         25    1    4    4    0    0  0.34845663809E+02  0.19726762715E+02  0.97600381183E+00  0.13134620717E+03  0.12509000000E+03 0.  0.
<mgrwt>
<rscale>  2 0.44151787E+03</rscale>
<asrwt>0</asrwt>
<pdfrwt beam="1">  1       21 0.29553337E-01 0.44151787E+03</pdfrwt>
<pdfrwt beam="2">  1       21 0.35662537E-01 0.44151787E+03</pdfrwt>
<totfact> 0.77395220E+04</totfact>
</mgrwt>
</event>
<event>
 7    0  0.4712189E-002  0.4552455E+03  0.7546771E-02  0.1026169E+00
         21   -1    0    0  502  501  0.00000000000E+00  0.00000000000E+00  0.22630668414E+03  0.22630668414E+03  0.00000000000E+00 0.  1.
         21   -1    0    0  501  502 -0.00000000000E+00 -0.00000000000E+00 -0.22894642991E+03  0.22894642991E+03  0.00000000000E+00 0.  1.
      99926    2    1    2    0    0  0.44408920985E-14  0.00000000000E+00 -0.26397457630E+01  0.45525311405E+03  0.45524546082E+03 0.  0.
      99925    2    3    3    0    0  0.58906507907E+01  0.11393240905E+03  0.33914158733E+01  0.28584480077E+03  0.26206956104E+03 0.  0.
         25    1    4    4    0    0  0.37773698426E+02  0.38921946782E+02 -0.34724610255E+01  0.13638671607E+03  0.12509000000E+03 0.  0.
         25    1    3    3    0    0 -0.58906507907E+01 -0.11393240905E+03 -0.60311616364E+01  0.16940831328E+03  0.12509000000E+03 0.  0.
         25    1    4    4    0    0 -0.31883047635E+02  0.75010462266E+02  0.68638768988E+01  0.14945808470E+03  0.12509000000E+03 0.  0.
<mgrwt>
<rscale>  2 0.45524546E+03</rscale>
<asrwt>0</asrwt>
<pdfrwt beam="1">  1       21 0.33280395E-01 0.45524546E+03</pdfrwt>
<pdfrwt beam="2">  1       21 0.33668592E-01 0.45524546E+03</pdfrwt>
<totfact> 0.68393203E+04</totfact>
</mgrwt>
</event>
<event>
 7    0  0.4712189E-002  0.4542204E+03  0.7546771E-02  0.1026471E+00
         21   -1    0    0  502  501  0.00000000000E+00  0.00000000000E+00  0.16869742689E+04  0.16869742689E+04  0.00000000000E+00 0. -1.
         21   -1    0    0  501  502 -0.00000000000E+00 -0.00000000000E+00 -0.30574884257E+02  0.30574884257E+02  0.00000000000E+00 0. -1.
      99926    2    1    2    0    0 -0.35527136788E-14  0.71054273576E-14  0.16563993847E+04  0.17175491532E+04  0.45422040032E+03 0.  0.
      99925    2    3    3    0    0 -0.29393115654E+02  0.56758274382E+02  0.69348128248E+03  0.74443855485E+03  0.26303424842E+03 0.  0.
         25    1    4    4    0    0  0.20857470848E+02  0.15794194726E+02  0.37519715755E+03  0.39636461220E+03  0.12509000000E+03 0.  0.
         25    1    4    4    0    0 -0.50250586502E+02  0.40964079656E+02  0.31828412494E+03  0.34807394265E+03  0.12509000000E+03 0.  0.
         25    1    3    3    0    0  0.29393115654E+02 -0.56758274382E+02  0.96291810220E+03  0.97311059834E+03  0.12509000000E+03 0.  0.
<mgrwt>
<rscale>  2 0.45422040E+03</rscale>
<asrwt>0</asrwt>
<pdfrwt beam="1">  1       21 0.24808439E+00 0.45422040E+03</pdfrwt>
<pdfrwt beam="2">  1       21 0.44963077E-02 0.45422040E+03</pdfrwt>
<totfact> 0.19013671E+04</totfact>
</mgrwt>
</event>
<event>
 7    0  0.4712189E-002  0.4413001E+03  0.7546771E-02  0.1030349E+00
         21   -1    0    0  502  501  0.00000000000E+00  0.00000000000E+00  0.54665262670E+02  0.54665262670E+02  0.00000000000E+00 0. -1.
         21   -1    0    0  501  502 -0.00000000000E+00 -0.00000000000E+00 -0.89062852895E+03  0.89062852895E+03  0.00000000000E+00 0. -1.
      99926    2    1    2    0    0  0.00000000000E+00  0.35527136788E-14 -0.83596326628E+03  0.94529379162E+03  0.44130009053E+03 0.  0.
      99925    2    3    3    0    0  0.55270690874E+02 -0.42851901160E+01 -0.35541355633E+03  0.44564517113E+03  0.26307339357E+03 0.  0.
         25    1    4    4    0    0  0.39986053724E+02  0.34970253384E+02 -0.19905566371E+03  0.24102379233E+03  0.12509000000E+03 0.  0.
         25    1    3    3    0    0 -0.55270690874E+02  0.42851901160E+01 -0.48054970995E+03  0.49964862049E+03  0.12509000000E+03 0.  0.
         25    1    4    4    0    0  0.15284637150E+02 -0.39255443500E+02 -0.15635789261E+03  0.20462137879E+03  0.12509000000E+03 0.  0.
<mgrwt>
<rscale>  2 0.44130009E+03</rscale>
<asrwt>0</asrwt>
<pdfrwt beam="1">  1       21 0.80390107E-02 0.44130009E+03</pdfrwt>
<pdfrwt beam="2">  1       21 0.13097476E+00 0.44130009E+03</pdfrwt>
<totfact> 0.46073485E+04</totfact>
</mgrwt>
</event>
<event>
 7    0  0.4712189E-002  0.4583494E+03  0.7546771E-02  0.1025261E+00
         21   -1    0    0  502  501  0.00000000000E+00  0.00000000000E+00  0.41183036467E+03  0.41183036467E+03  0.00000000000E+00 0. -1.
         21   -1    0    0  501  502 -0.00000000000E+00 -0.00000000000E+00 -0.12753078943E+03  0.12753078943E+03  0.00000000000E+00 0. -1.
      99926    2    1    2    0    0  0.14210854715E-13 -0.35527136788E-14  0.28429957524E+03  0.53936115410E+03  0.45834943664E+03 0.  0.
      99925    2    3    3    0    0 -0.11134216461E+03 -0.26005938774E+02  0.15331325155E+03  0.32516892370E+03  0.26297621445E+03 0.  0.
         25    1    3    3    0    0  0.11134216461E+03  0.26005938774E+02  0.13098632368E+03  0.21419223040E+03  0.12509000000E+03 0.  0.
         25    1    4    4    0    0 -0.25077397150E+02  0.65973518300E+01  0.94912400587E+02  0.15914858713E+03  0.12509000000E+03 0.  0.
         25    1    4    4    0    0 -0.86264767456E+02 -0.32603290604E+02  0.58400850967E+02  0.16602033657E+03  0.12509000000E+03 0.  0.
<mgrwt>
<rscale>  2 0.45834944E+03</rscale>
<asrwt>0</asrwt>
<pdfrwt beam="1">  1       21 0.60563289E-01 0.45834944E+03</pdfrwt>
<pdfrwt beam="2">  1       21 0.18754528E-01 0.45834944E+03</pdfrwt>
<totfact> 0.60943358E+04</totfact>
</mgrwt>
</event>
<event>
 7    0  0.4712189E-002  0.4613475E+03  0.7546771E-02  0.1024391E+00
         21   -1    0    0  502  501  0.00000000000E+00  0.00000000000E+00  0.55854045884E+02  0.55854045884E+02  0.00000000000E+00 0.  1.
         21   -1    0    0  501  502 -0.00000000000E+00 -0.00000000000E+00 -0.95266839585E+03  0.95266839585E+03  0.00000000000E+00 0.  1.
      99926    2    1    2    0    0 -0.71054273576E-14  0.00000000000E+00 -0.89681434997E+03  0.10085224417E+04  0.46134752321E+03 0.  0.
      99925    2    3    3    0    0  0.42924916724E+02 -0.83931299375E+02 -0.40278473073E+03  0.49025630906E+03  0.26311346939E+03 0.  0.
         25    1    3    3    0    0 -0.42924916724E+02  0.83931299375E+02 -0.49402961924E+03  0.51826613268E+03  0.12509000000E+03 0.  0.
         25    1    4    4    0    0 -0.18661179070E+02 -0.30098390726E+02 -0.18408337925E+03  0.22536271063E+03  0.12509000000E+03 0.  0.
         25    1    4    4    0    0  0.61586095794E+02 -0.53832908649E+02 -0.21870135148E+03  0.26489359842E+03  0.12509000000E+03 0.  0.
<mgrwt>
<rscale>  2 0.46134752E+03</rscale>
<asrwt>0</asrwt>
<pdfrwt beam="1">  1       21 0.82138305E-02 0.46134752E+03</pdfrwt>
<pdfrwt beam="2">  1       21 0.14009829E+00 0.46134752E+03</pdfrwt>
<totfact> 0.36970124E+04</totfact>
</mgrwt>
</event>
<event>
 7    0  0.4712189E-002  0.4607065E+03  0.7546771E-02  0.1024577E+00
         21   -1    0    0  502  501  0.00000000000E+00  0.00000000000E+00  0.28710383755E+03  0.28710383755E+03  0.00000000000E+00 0.  1.
         21   -1    0    0  501  502 -0.00000000000E+00 -0.00000000000E+00 -0.18482029005E+03  0.18482029005E+03  0.00000000000E+00 0.  1.
      99926    2    1    2    0    0  0.00000000000E+00 -0.14210854715E-13  0.10228354750E+03  0.47192412760E+03  0.46070647718E+03 0.  0.
      99925    2    3    3    0    0  0.69647309690E+02  0.83784515174E+02  0.16477365059E+02  0.28516010061E+03  0.26300986045E+03 0.  0.
         25    1    3    3    0    0 -0.69647309690E+02 -0.83784515174E+02  0.85806182440E+02  0.18676402698E+03  0.12509000000E+03 0.  0.
         25    1    4    4    0    0  0.52609005464E+02  0.61541900127E+01  0.17412933513E+02  0.13695364130E+03  0.12509000000E+03 0.  0.
         25    1    4    4    0    0  0.17038304226E+02  0.77630325161E+02 -0.93556845368E+00  0.14820645932E+03  0.12509000000E+03 0.  0.
<mgrwt>
<rscale>  2 0.46070648E+03</rscale>
<asrwt>0</asrwt>
<pdfrwt beam="1">  1       21 0.42221153E-01 0.46070648E+03</pdfrwt>
<pdfrwt beam="2">  1       21 0.27179454E-01 0.46070648E+03</pdfrwt>
<totfact> 0.64331443E+04</totfact>
</mgrwt>
</event>
<event>
 7    0  0.4712189E-002  0.4778397E+03  0.7546771E-02  0.1019731E+00
         21   -1    0    0  502  501  0.00000000000E+00  0.00000000000E+00  0.59268273174E+03  0.59268273174E+03  0.00000000000E+00 0. -1.
         21   -1    0    0  501  502 -0.00000000000E+00 -0.00000000000E+00 -0.96312377678E+02  0.96312377678E+02  0.00000000000E+00 0. -1.
      99926    2    1    2    0    0 -0.17763568394E-14  0.00000000000E+00  0.49637035406E+03  0.68899510941E+03  0.47783965136E+03 0.  0.
      99925    2    3    3    0    0  0.14604670277E+02  0.13116960103E+03  0.27865311279E+03  0.40532793494E+03  0.26310533432E+03 0.  0.
         25    1    4    4    0    0  0.17204570982E+02  0.73917598070E+02  0.89819305820E+02  0.17168233562E+03  0.12509000000E+03 0.  0.
         25    1    3    3    0    0 -0.14604670277E+02 -0.13116960103E+03  0.21771724127E+03  0.28366717447E+03  0.12509000000E+03 0.  0.
         25    1    4    4    0    0 -0.25999007053E+01  0.57252002958E+02  0.18883380697E+03  0.23364559932E+03  0.12509000000E+03 0.  0.
<mgrwt>
<rscale>  2 0.47783965E+03</rscale>
<asrwt>0</asrwt>
<pdfrwt beam="1">  1       21 0.87159223E-01 0.47783965E+03</pdfrwt>
<pdfrwt beam="2">  1       21 0.14163585E-01 0.47783965E+03</pdfrwt>
<totfact> 0.44868899E+04</totfact>
</mgrwt>
</event>
<event>
 7    0  0.4712189E-002  0.4580132E+03  0.7546771E-02  0.1025359E+00
         21   -1    0    0  502  501  0.00000000000E+00  0.00000000000E+00  0.14804066484E+04  0.14804066484E+04  0.00000000000E+00 0. -1.
         21   -1    0    0  501  502 -0.00000000000E+00 -0.00000000000E+00 -0.35425412237E+02  0.35425412237E+02  0.00000000000E+00 0. -1.
      99926    2    1    2    0    0  0.00000000000E+00 -0.71054273576E-14  0.14449812362E+04  0.15158320607E+04  0.45801316924E+03 0.  0.
      99925    2    3    3    0    0 -0.38258657345E+02 -0.33588329197E+02  0.56198142984E+03  0.62256386642E+03  0.26300330716E+03 0.  0.
         25    1    4    4    0    0 -0.39298759375E+02 -0.51307135202E+02  0.27296735344E+03  0.30714084514E+03  0.12509000000E+03 0.  0.
         25    1    3    3    0    0  0.38258657345E+02  0.33588329197E+02  0.88299980637E+03  0.89326819426E+03  0.12509000000E+03 0.  0.
         25    1    4    4    0    0  0.10401020297E+01  0.17718806005E+02  0.28901407640E+03  0.31542302129E+03  0.12509000000E+03 0.  0.
<mgrwt>
<rscale>  2 0.45801317E+03</rscale>
<asrwt>0</asrwt>
<pdfrwt beam="1">  1       21 0.21770682E+00 0.45801317E+03</pdfrwt>
<pdfrwt beam="2">  1       21 0.52096204E-02 0.45801317E+03</pdfrwt>
<totfact> 0.22854202E+04</totfact>
</mgrwt>
</event>
<event>
 7    0  0.4712189E-002  0.4553688E+03  0.7546771E-02  0.1026133E+00
         21   -1    0    0  502  501  0.00000000000E+00  0.00000000000E+00  0.83195844393E+03  0.83195844393E+03  0.00000000000E+00 0.  1.
         21   -1    0    0  501  502 -0.00000000000E+00 -0.00000000000E+00 -0.62311018505E+02  0.62311018505E+02  0.00000000000E+00 0.  1.
      99926    2    1    2    0    0  0.00000000000E+00  0.00000000000E+00  0.76964742543E+03  0.89426946244E+03  0.45536876483E+03 0.  0.
      99925    2    3    3    0    0  0.68602561675E+02  0.89773927959E+02  0.46698797599E+03  0.54783632308E+03  0.26321321692E+03 0.  0.
         25    1    4    4    0    0  0.79234653280E+01  0.35839754877E+02  0.27841201533E+03  0.30742157978E+03  0.12509000000E+03 0.  0.
         25    1    4    4    0    0  0.60679096347E+02  0.53934173082E+02  0.18857596066E+03  0.24041474330E+03  0.12509000000E+03 0.  0.
         25    1    3    3    0    0 -0.68602561675E+02 -0.89773927959E+02  0.30265944944E+03  0.34643313936E+03  0.12509000000E+03 0.  0.
<mgrwt>
<rscale>  2 0.45536876E+03</rscale>
<asrwt>0</asrwt>
<pdfrwt beam="1">  1       21 0.12234682E+00 0.45536876E+03</pdfrwt>
<pdfrwt beam="2">  1       21 0.91633855E-02 0.45536876E+03</pdfrwt>
<totfact> 0.43357052E+04</totfact>
</mgrwt>
</event>
<event>
 6    0  0.4712189E-002  0.4538921E+03  0.7546771E-02  0.1026568E+00
         21   -1    0    0  502  501  0.00000000000E+00  0.00000000000E+00  0.10796694509E+03  0.10796694509E+03  0.00000000000E+00 0.  1.
         21   -1    0    0  501  502 -0.00000000000E+00 -0.00000000000E+00 -0.47703969901E+03  0.47703969901E+03  0.00000000000E+00 0.  1.
      99926    2    1    2    0    0  0.00000000000E+00  0.00000000000E+00 -0.36907275392E+03  0.58500664410E+03  0.45389214132E+03 0.  0.
         25    1    3    3    0    0  0.28573313109E+02  0.55460116356E+01 -0.11114634718E+03  0.16984761128E+03  0.12509000000E+03 0.  0.
         25    1    3    3    0    0  0.34443231568E+02  0.80824115405E+01 -0.10384129980E+02  0.13041088847E+03  0.12509000000E+03 0.  0.
         25    1    3    3    0    0 -0.63016544677E+02 -0.13628423176E+02 -0.24754227676E+03  0.28474814434E+03  0.12509000000E+03 0.  0.
<mgrwt>
<rscale>  2 0.45389214E+03</rscale>
<asrwt>0</asrwt>
<pdfrwt beam="1">  1       21 0.15877492E-01 0.45389214E+03</pdfrwt>
<pdfrwt beam="2">  1       21 0.70152897E-01 0.45389214E+03</pdfrwt>
<totfact> 0.60135659E+04</totfact>
</mgrwt>
</event>
<event>
 7    0  0.4712189E-002  0.4553749E+03  0.7546771E-02  0.1026131E+00
         21   -1    0    0  502  501  0.00000000000E+00  0.00000000000E+00  0.38796875774E+03  0.38796875774E+03  0.00000000000E+00 0.  1.
         21   -1    0    0  501  502 -0.00000000000E+00 -0.00000000000E+00 -0.13362307745E+03  0.13362307745E+03  0.00000000000E+00 0.  1.
      99926    2    1    2    0    0  0.00000000000E+00  0.00000000000E+00  0.25434568030E+03  0.52159183519E+03  0.45537491966E+03 0.  0.
      99925    2    3    3    0    0 -0.29408723857E+02  0.59944045959E+02  0.26491023870E+03  0.37940435445E+03  0.26327185175E+03 0.  0.
         25    1    4    4    0    0 -0.24165856161E+02  0.34865583197E+02  0.79132560483E+02  0.15397749097E+03  0.12509000000E+03 0.  0.
         25    1    4    4    0    0 -0.52428676959E+01  0.25078462762E+02  0.18577767822E+03  0.22542686349E+03  0.12509000000E+03 0.  0.
         25    1    3    3    0    0  0.29408723857E+02 -0.59944045959E+02 -0.10564558409E+02  0.14218748074E+03  0.12509000000E+03 0.  0.
<mgrwt>
<rscale>  2 0.45537492E+03</rscale>
<asrwt>0</asrwt>
<pdfrwt beam="1">  1       21 0.57054229E-01 0.45537492E+03</pdfrwt>
<pdfrwt beam="2">  1       21 0.19650453E-01 0.45537492E+03</pdfrwt>
<totfact> 0.63589577E+04</totfact>
</mgrwt>
</event>
<event>
 7    0  0.4712189E-002  0.4558516E+03  0.7546771E-02  0.1025991E+00
         21   -1    0    0  502  501  0.00000000000E+00  0.00000000000E+00  0.39952739998E+02  0.39952739998E+02  0.00000000000E+00 0. -1.
         21   -1    0    0  501  502 -0.00000000000E+00 -0.00000000000E+00 -0.13002908240E+04  0.13002908240E+04  0.00000000000E+00 0. -1.
      99926    2    1    2    0    0 -0.71054273576E-14  0.00000000000E+00 -0.12603380840E+04  0.13402435640E+04  0.45585164785E+03 0.  0.
      99925    2    3    3    0    0  0.37826219141E+02 -0.93200146366E+02 -0.95000708447E+03  0.99085849347E+03  0.26300190759E+03 0.  0.
         25    1    4    4    0    0 -0.16460139506E+02 -0.38163928054E+02 -0.38100176930E+03  0.40315912232E+03  0.12509000000E+03 0.  0.
         25    1    4    4    0    0  0.54286358646E+02 -0.55036218312E+02 -0.56900531517E+03  0.58769937115E+03  0.12509000000E+03 0.  0.
         25    1    3    3    0    0 -0.37826219141E+02  0.93200146366E+02 -0.31033099953E+03  0.34938507052E+03  0.12509000000E+03 0.  0.
<mgrwt>
<rscale>  2 0.45585165E+03</rscale>
<asrwt>0</asrwt>
<pdfrwt beam="1">  1       21 0.58754032E-02 0.45585165E+03</pdfrwt>
<pdfrwt beam="2">  1       21 0.19121923E+00 0.45585165E+03</pdfrwt>
<totfact> 0.27783597E+04</totfact>
</mgrwt>
</event>
<event>
 7    0  0.4712189E-002  0.4547009E+03  0.7546771E-02  0.1026329E+00
         21   -1    0    0  502  501  0.00000000000E+00  0.00000000000E+00  0.90571993503E+03  0.90571993503E+03  0.00000000000E+00 0.  1.
         21   -1    0    0  501  502 -0.00000000000E+00 -0.00000000000E+00 -0.57068659424E+02  0.57068659424E+02  0.00000000000E+00 0.  1.
      99926    2    1    2    0    0  0.00000000000E+00  0.00000000000E+00  0.84865127561E+03  0.96278859445E+03  0.45470087973E+03 0.  0.
      99925    2    3    3    0    0  0.77990245543E+02 -0.80676444860E+02  0.50701348319E+03  0.58205895749E+03  0.26294256161E+03 0.  0.
         25    1    4    4    0    0  0.31916087355E+02 -0.13584561080E+01  0.26177596878E+03  0.29188122236E+03  0.12509000000E+03 0.  0.
         25    1    3    3    0    0 -0.77990245543E+02  0.80676444860E+02  0.34163779242E+03  0.38072963697E+03  0.12509000000E+03 0.  0.
         25    1    4    4    0    0  0.46074158188E+02 -0.79317988752E+02  0.24523751441E+03  0.29017773513E+03  0.12509000000E+03 0.  0.
<mgrwt>
<rscale>  2 0.45470088E+03</rscale>
<asrwt>0</asrwt>
<pdfrwt beam="1">  1       21 0.13319410E+00 0.45470088E+03</pdfrwt>
<pdfrwt beam="2">  1       21 0.83924505E-02 0.45470088E+03</pdfrwt>
<totfact> 0.40722439E+04</totfact>
</mgrwt>
</event>
<event>
 7    0  0.4712189E-002  0.4501163E+03  0.7546771E-02  0.1027687E+00
         21   -1    0    0  502  501  0.00000000000E+00  0.00000000000E+00  0.56126419847E+03  0.56126419847E+03  0.00000000000E+00 0.  1.
         21   -1    0    0  501  502 -0.00000000000E+00 -0.00000000000E+00 -0.90244810865E+02  0.90244810865E+02  0.00000000000E+00 0.  1.
      99926    2    1    2    0    0  0.00000000000E+00 -0.71054273576E-14  0.47101938761E+03  0.65150900934E+03  0.45011634690E+03 0.  0.
      99925    2    3    3    0    0 -0.56470931167E+02  0.57743654168E+02  0.19262747006E+03  0.33579891524E+03  0.26293016865E+03 0.  0.
         25    1    4    4    0    0 -0.21994366483E+02  0.29600525860E+02  0.46730345784E+02  0.13853222226E+03  0.12509000000E+03 0.  0.
         25    1    4    4    0    0 -0.34476564684E+02  0.28143128308E+02  0.14589712428E+03  0.19726669297E+03  0.12509000000E+03 0.  0.
         25    1    3    3    0    0  0.56470931167E+02 -0.57743654168E+02  0.27839191754E+03  0.31571009410E+03  0.12509000000E+03 0.  0.
<mgrwt>
<rscale>  2 0.45011635E+03</rscale>
<asrwt>0</asrwt>
<pdfrwt beam="1">  1       21 0.82538851E-01 0.45011635E+03</pdfrwt>
<pdfrwt beam="2">  1       21 0.13271296E-01 0.45011635E+03</pdfrwt>
<totfact> 0.57809685E+04</totfact>
</mgrwt>
</event>
<event>
 7    0  0.4712189E-002  0.4556778E+03  0.7546771E-02  0.1026042E+00
         21   -1    0    0  502  501  0.00000000000E+00  0.00000000000E+00  0.74902988275E+02  0.74902988275E+02  0.00000000000E+00 0. -1.
         21   -1    0    0  501  502 -0.00000000000E+00 -0.00000000000E+00 -0.69303740630E+03  0.69303740630E+03  0.00000000000E+00 0. -1.
      99926    2    1    2    0    0  0.00000000000E+00 -0.88817841970E-15 -0.61813441803E+03  0.76794039458E+03  0.45567783671E+03 0.  0.
      99925    2    3    3    0    0  0.11294070756E+03 -0.69138764361E+01 -0.36854328275E+03  0.46669855150E+03  0.26302087674E+03 0.  0.
         25    1    4    4    0    0  0.56780805362E+02  0.67925890388E+01 -0.24812331014E+03  0.28369505505E+03  0.12509000000E+03 0.  0.
         25    1    3    3    0    0 -0.11294070756E+03  0.69138764361E+01 -0.24959113527E+03  0.30124184307E+03  0.12509000000E+03 0.  0.
         25    1    4    4    0    0  0.56159902196E+02 -0.13706465475E+02 -0.12041997261E+03  0.18300349645E+03  0.12509000000E+03 0.  0.
<mgrwt>
<rscale>  2 0.45567784E+03</rscale>
<asrwt>0</asrwt>
<pdfrwt beam="1">  1       21 0.11015145E-01 0.45567784E+03</pdfrwt>
<pdfrwt beam="2">  1       21 0.10191727E+00 0.45567784E+03</pdfrwt>
<totfact> 0.49092725E+04</totfact>
</mgrwt>
</event>
<event>
 7    0  0.4712189E-002  0.4586679E+03  0.7546771E-02  0.1025168E+00
         21   -1    0    0  502  501  0.00000000000E+00  0.00000000000E+00  0.18150607327E+03  0.18150607327E+03  0.00000000000E+00 0.  1.
         21   -1    0    0  501  502 -0.00000000000E+00 -0.00000000000E+00 -0.28976470852E+03  0.28976470852E+03  0.00000000000E+00 0.  1.
      99926    2    1    2    0    0 -0.14210854715E-13  0.00000000000E+00 -0.10825863526E+03  0.47127078179E+03  0.45866787294E+03 0.  0.
      99925    2    3    3    0    0 -0.10653107614E+03 -0.11790111805E+02 -0.11490196792E+03  0.30640866095E+03  0.26305118961E+03 0.  0.
         25    1    4    4    0    0 -0.84497681799E+02 -0.24914310059E+02 -0.39107185790E+02  0.15791599398E+03  0.12509000000E+03 0.  0.
         25    1    4    4    0    0 -0.22033394339E+02  0.13124198254E+02 -0.75794782129E+02  0.14849266697E+03  0.12509000000E+03 0.  0.
         25    1    3    3    0    0  0.10653107614E+03  0.11790111805E+02  0.66433326642E+01  0.16486212084E+03  0.12509000000E+03 0.  0.
<mgrwt>
<rscale>  2 0.45866787E+03</rscale>
<asrwt>0</asrwt>
<pdfrwt beam="1">  1       21 0.26692070E-01 0.45866787E+03</pdfrwt>
<pdfrwt beam="2">  1       21 0.42612457E-01 0.45866787E+03</pdfrwt>
<totfact> 0.65417245E+04</totfact>
</mgrwt>
</event>
<event>
 7    0  0.4712189E-002  0.4580990E+03  0.7546771E-02  0.1025334E+00
         21   -1    0    0  502  501  0.00000000000E+00  0.00000000000E+00  0.27177727155E+03  0.27177727155E+03  0.00000000000E+00 0.  1.
         21   -1    0    0  501  502 -0.00000000000E+00 -0.00000000000E+00 -0.19303922720E+03  0.19303922720E+03  0.00000000000E+00 0.  1.
      99926    2    1    2    0    0  0.00000000000E+00 -0.14210854715E-13  0.78738044354E+02  0.46481649874E+03  0.45809900445E+03 0.  0.
      99925    2    3    3    0    0 -0.69549815982E+02 -0.88073480554E+02  0.19577546398E+02  0.28665480955E+03  0.26304673469E+03 0.  0.
         25    1    4    4    0    0 -0.34056354236E+02 -0.17775144611E+02  0.41375756996E+02  0.13724158407E+03  0.12509000000E+03 0.  0.
         25    1    4    4    0    0 -0.35493461746E+02 -0.70298335943E+02 -0.21798210598E+02  0.14941322548E+03  0.12509000000E+03 0.  0.
         25    1    3    3    0    0  0.69549815982E+02  0.88073480554E+02  0.59160497956E+02  0.17816168920E+03  0.12509000000E+03 0.  0.
<mgrwt>
<rscale>  2 0.45809900E+03</rscale>
<asrwt>0</asrwt>
<pdfrwt beam="1">  1       21 0.39967246E-01 0.45809900E+03</pdfrwt>
<pdfrwt beam="2">  1       21 0.28388122E-01 0.45809900E+03</pdfrwt>
<totfact> 0.66178328E+04</totfact>
</mgrwt>
</event>
<event>
 7    0  0.4712189E-002  0.4572714E+03  0.7546771E-02  0.1025576E+00
         21   -1    0    0  502  501  0.00000000000E+00  0.00000000000E+00  0.15860246804E+03  0.15860246804E+03  0.00000000000E+00 0.  1.
         21   -1    0    0  501  502 -0.00000000000E+00 -0.00000000000E+00 -0.32959311289E+03  0.32959311289E+03  0.00000000000E+00 0.  1.
      99926    2    1    2    0    0 -0.71054273576E-14  0.00000000000E+00 -0.17099064486E+03  0.48819558093E+03  0.45727139055E+03 0.  0.
      99925    2    3    3    0    0 -0.21362111275E+02 -0.19836017307E+02  0.12017076745E+02  0.26461306452E+03  0.26272772293E+03 0.  0.
         25    1    3    3    0    0  0.21362111275E+02  0.19836017307E+02 -0.18300772160E+03  0.22358251642E+03  0.12509000000E+03 0.  0.
         25    1    4    4    0    0 -0.47836959867E+02 -0.24755083801E+02  0.11220587647E+02  0.13665503500E+03  0.12509000000E+03 0.  0.
         25    1    4    4    0    0  0.26474848593E+02  0.49190664945E+01  0.79648909756E+00  0.12795802952E+03  0.12509000000E+03 0.  0.
<mgrwt>
<rscale>  2 0.45727139E+03</rscale>
<asrwt>0</asrwt>
<pdfrwt beam="1">  1       21 0.23323893E-01 0.45727139E+03</pdfrwt>
<pdfrwt beam="2">  1       21 0.48469575E-01 0.45727139E+03</pdfrwt>
<totfact> 0.64929491E+04</totfact>
</mgrwt>
</event>
<event>
 7    0  0.4712189E-002  0.4544821E+03  0.7546771E-02  0.1026394E+00
         21   -1    0    0  502  501  0.00000000000E+00  0.00000000000E+00  0.84867128562E+02  0.84867128562E+02  0.00000000000E+00 0.  1.
         21   -1    0    0  501  502 -0.00000000000E+00 -0.00000000000E+00 -0.60846272635E+03  0.60846272635E+03  0.00000000000E+00 0.  1.
      99926    2    1    2    0    0 -0.35527136788E-14  0.53290705182E-14 -0.52359559779E+03  0.69332985492E+03  0.45448205431E+03 0.  0.
      99925    2    3    3    0    0  0.19773911887E+02 -0.51180409910E+01 -0.49869583982E+03  0.56416055523E+03  0.26298743218E+03 0.  0.
         25    1    3    3    0    0 -0.19773911887E+02  0.51180409910E+01 -0.24899757968E+02  0.12916929969E+03  0.12509000000E+03 0.  0.
         25    1    4    4    0    0  0.35934308131E+02  0.28339180037E+02 -0.24457264575E+03  0.27849177865E+03  0.12509000000E+03 0.  0.
         25    1    4    4    0    0 -0.16160396244E+02 -0.33457221028E+02 -0.25412319407E+03  0.28566877658E+03  0.12509000000E+03 0.  0.
<mgrwt>
<rscale>  2 0.45448205E+03</rscale>
<asrwt>0</asrwt>
<pdfrwt beam="1">  1       21 0.12480461E-01 0.45448205E+03</pdfrwt>
<pdfrwt beam="2">  1       21 0.89479809E-01 0.45448205E+03</pdfrwt>
<totfact> 0.53484368E+04</totfact>
</mgrwt>
</event>
<event>
 7    0  0.4712189E-002  0.4507922E+03  0.7546771E-02  0.1027486E+00
         21   -1    0    0  502  501  0.00000000000E+00  0.00000000000E+00  0.29771986547E+02  0.29771986547E+02  0.00000000000E+00 0.  1.
         21   -1    0    0  501  502 -0.00000000000E+00 -0.00000000000E+00 -0.17064165500E+04  0.17064165500E+04  0.00000000000E+00 0.  1.
      99926    2    1    2    0    0  0.00000000000E+00  0.00000000000E+00 -0.16766445634E+04  0.17361885365E+04  0.45079223848E+03 0.  0.
      99925    2    3    3    0    0 -0.51207320420E+02 -0.45641810617E+02 -0.13862862238E+04  0.14126752632E+04  0.26297631138E+03 0.  0.
         25    1    4    4    0    0 -0.24047828200E+02 -0.59389788247E+02 -0.81827164108E+03  0.83025383569E+03  0.12509000000E+03 0.  0.
         25    1    3    3    0    0  0.51207320420E+02  0.45641810617E+02 -0.29035833965E+03  0.32351327337E+03  0.12509000000E+03 0.  0.
         25    1    4    4    0    0 -0.27159492220E+02  0.13747977631E+02 -0.56801458272E+03  0.58242142748E+03  0.12509000000E+03 0.  0.
<mgrwt>
<rscale>  2 0.45079224E+03</rscale>
<asrwt>0</asrwt>
<pdfrwt beam="1">  1       21 0.43782334E-02 0.45079224E+03</pdfrwt>
<pdfrwt beam="2">  1       21 0.25094360E+00 0.45079224E+03</pdfrwt>
<totfact> 0.19135967E+04</totfact>
</mgrwt>
</event>
<event>
 7    0  0.4712189E-002  0.4557527E+03  0.7546771E-02  0.1026020E+00
         21   -1    0    0  502  501  0.00000000000E+00  0.00000000000E+00  0.38023726628E+03  0.38023726628E+03  0.00000000000E+00 0.  1.
         21   -1    0    0  501  502 -0.00000000000E+00 -0.00000000000E+00 -0.13656636671E+03  0.13656636671E+03  0.00000000000E+00 0.  1.
      99926    2    1    2    0    0 -0.14210854715E-13  0.00000000000E+00  0.24367089957E+03  0.51680363299E+03  0.45575266074E+03 0.  0.
      99925    2    3    3    0    0  0.66667071888E+02  0.77103241775E+02  0.21061797368E+03  0.35209354716E+03  0.26309794135E+03 0.  0.
         25    1    4    4    0    0  0.59727727991E+02  0.53481764639E+02  0.76746203255E+02  0.16722795357E+03  0.12509000000E+03 0.  0.
         25    1    3    3    0    0 -0.66667071888E+02 -0.77103241775E+02  0.33052925892E+02  0.16471008584E+03  0.12509000000E+03 0.  0.
         25    1    4    4    0    0  0.69393438969E+01  0.23621477137E+02  0.13387177043E+03  0.18486559359E+03  0.12509000000E+03 0.  0.
<mgrwt>
<rscale>  2 0.45575266E+03</rscale>
<asrwt>0</asrwt>
<pdfrwt beam="1">  1       21 0.55917245E-01 0.45575266E+03</pdfrwt>
<pdfrwt beam="2">  1       21 0.20083289E-01 0.45575266E+03</pdfrwt>
<totfact> 0.63724145E+04</totfact>
</mgrwt>
</event>
<event>
 7    0  0.4712189E-002  0.4582321E+03  0.7546771E-02  0.1025295E+00
         21   -1    0    0  502  501  0.00000000000E+00  0.00000000000E+00  0.68772296221E+02  0.68772296221E+02  0.00000000000E+00 0. -1.
         21   -1    0    0  501  502 -0.00000000000E+00 -0.00000000000E+00 -0.76330407841E+03  0.76330407841E+03  0.00000000000E+00 0. -1.
      99926    2    1    2    0    0  0.14210854715E-13  0.00000000000E+00 -0.69453178219E+03  0.83207637463E+03  0.45823214286E+03 0.  0.
      99925    2    3    3    0    0 -0.10348901514E+03 -0.19867163946E+02 -0.52458591757E+03  0.59620822193E+03  0.26300033940E+03 0.  0.
         25    1    4    4    0    0 -0.33148373389E+02 -0.71531900774E+01 -0.17232303496E+03  0.21562170406E+03  0.12509000000E+03 0.  0.
         25    1    4    4    0    0 -0.70340641751E+02 -0.12713973869E+02 -0.35226288262E+03  0.38058651787E+03  0.12509000000E+03 0.  0.
         25    1    3    3    0    0  0.10348901514E+03  0.19867163946E+02 -0.16994586462E+03  0.23586815270E+03  0.12509000000E+03 0.  0.
<mgrwt>
<rscale>  2 0.45823214E+03</rscale>
<asrwt>0</asrwt>
<pdfrwt beam="1">  1       21 0.10113573E-01 0.45823214E+03</pdfrwt>
<pdfrwt beam="2">  1       21 0.11225060E+00 0.45823214E+03</pdfrwt>
<totfact> 0.45097552E+04</totfact>
</mgrwt>
</event>
<event>
 7    0  0.4712189E-002  0.4637178E+03  0.7546771E-02  0.1023708E+00
         21   -1    0    0  502  501  0.00000000000E+00  0.00000000000E+00  0.21064840568E+03  0.21064840568E+03  0.00000000000E+00 0.  1.
         21   -1    0    0  501  502 -0.00000000000E+00 -0.00000000000E+00 -0.25520512289E+03  0.25520512289E+03  0.00000000000E+00 0.  1.
      99926    2    1    2    0    0  0.00000000000E+00  0.00000000000E+00 -0.44556717215E+02  0.46585352857E+03  0.46371781186E+03 0.  0.
      99925    2    3    3    0    0  0.17085608206E+02  0.11988726389E+03 -0.24731529200E+02  0.29062390713E+03  0.26303180950E+03 0.  0.
         25    1    4    4    0    0  0.77833761795E+00  0.10325027245E+03 -0.18166724403E+02  0.16321385525E+03  0.12509000000E+03 0.  0.
         25    1    4    4    0    0  0.16307270588E+02  0.16636991446E+02 -0.65648047974E+01  0.12741005188E+03  0.12509000000E+03 0.  0.
         25    1    3    3    0    0 -0.17085608206E+02 -0.11988726389E+03 -0.19825188014E+02  0.17522962144E+03  0.12509000000E+03 0.  0.
<mgrwt>
<rscale>  2 0.46371781E+03</rscale>
<asrwt>0</asrwt>
<pdfrwt beam="1">  1       21 0.30977707E-01 0.46371781E+03</pdfrwt>
<pdfrwt beam="2">  1       21 0.37530165E-01 0.46371781E+03</pdfrwt>
<totfact> 0.63243132E+04</totfact>
</mgrwt>
</event>
<event>
 7    0  0.4712189E-002  0.4728843E+03  0.7546771E-02  0.1021109E+00
         21   -1    0    0  502  501  0.00000000000E+00  0.00000000000E+00  0.28684703329E+03  0.28684703329E+03  0.00000000000E+00 0. -1.
         21   -1    0    0  501  502 -0.00000000000E+00 -0.00000000000E+00 -0.19489442154E+03  0.19489442154E+03  0.00000000000E+00 0. -1.
      99926    2    1    2    0    0 -0.35527136788E-14  0.00000000000E+00  0.91952611748E+02  0.48174145483E+03  0.47288428446E+03 0.  0.
      99925    2    3    3    0    0 -0.25684268607E+02  0.12194594418E+03  0.92486946412E+02  0.30516770658E+03  0.26276034505E+03 0.  0.
         25    1    4    4    0    0 -0.24214366873E+02  0.79341328346E+02  0.12325228708E+02  0.15060146516E+03  0.12509000000E+03 0.  0.
         25    1    3    3    0    0  0.25684268607E+02 -0.12194594418E+03 -0.53433466416E+00  0.17657374824E+03  0.12509000000E+03 0.  0.
         25    1    4    4    0    0 -0.14699017338E+01  0.42604615832E+02  0.80161717704E+02  0.15456624142E+03  0.12509000000E+03 0.  0.
<mgrwt>
<rscale>  2 0.47288428E+03</rscale>
<asrwt>0</asrwt>
<pdfrwt beam="1">  1       21 0.42183387E-01 0.47288428E+03</pdfrwt>
<pdfrwt beam="2">  1       21 0.28660944E-01 0.47288428E+03</pdfrwt>
<totfact> 0.57904813E+04</totfact>
</mgrwt>
</event>
<event>
 7    0  0.4712189E-002  0.4572509E+03  0.7546771E-02  0.1025582E+00
         21   -1    0    0  502  501  0.00000000000E+00  0.00000000000E+00  0.53520982293E+02  0.53520982293E+02  0.00000000000E+00 0. -1.
         21   -1    0    0  501  502 -0.00000000000E+00 -0.00000000000E+00 -0.97661879311E+03  0.97661879311E+03  0.00000000000E+00 0. -1.
      99926    2    1    2    0    0  0.35527136788E-14 -0.35527136788E-14 -0.92309781081E+03  0.10301397754E+04  0.45725090326E+03 0.  0.
      99925    2    3    3    0    0 -0.27725324913E+02 -0.20250081485E+02 -0.82762192636E+03  0.86907484422E+03  0.26297199933E+03 0.  0.
         25    1    4    4    0    0  0.47377615356E+01  0.24560016357E+02 -0.43433219348E+03  0.45267825569E+03  0.12509000000E+03 0.  0.
         25    1    4    4    0    0 -0.32463086448E+02 -0.44810097842E+02 -0.39328973288E+03  0.41639658853E+03  0.12509000000E+03 0.  0.
         25    1    3    3    0    0  0.27725324913E+02  0.20250081485E+02 -0.95475884455E+02  0.16106493117E+03  0.12509000000E+03 0.  0.
<mgrwt>
<rscale>  2 0.45725090E+03</rscale>
<asrwt>0</asrwt>
<pdfrwt beam="1">  1       21 0.78707323E-02 0.45725090E+03</pdfrwt>
<pdfrwt beam="2">  1       21 0.14362042E+00 0.45725090E+03</pdfrwt>
<totfact> 0.37353933E+04</totfact>
</mgrwt>
</event>
<event>
 7    0  0.4712189E-002  0.4500745E+03  0.7546771E-02  0.1027700E+00
         21   -1    0    0  502  501  0.00000000000E+00  0.00000000000E+00  0.18388142998E+03  0.18388142998E+03  0.00000000000E+00 0.  1.
         21   -1    0    0  501  502 -0.00000000000E+00 -0.00000000000E+00 -0.27540450774E+03  0.27540450774E+03  0.00000000000E+00 0.  1.
      99926    2    1    2    0    0  0.14210854715E-13  0.66613381478E-15 -0.91523077765E+02  0.45928593772E+03  0.45007454808E+03 0.  0.
      99925    2    3    3    0    0  0.90003839342E+02  0.16934702445E+01 -0.12105955591E+03  0.30236726267E+03  0.26204386374E+03 0.  0.
         25    1    3    3    0    0 -0.90003839342E+02 -0.16934702445E+01  0.29536478143E+02  0.15691867505E+03  0.12509000000E+03 0.  0.
         25    1    4    4    0    0  0.81726328831E+02  0.12024672950E+02 -0.80796502527E+02  0.17029200951E+03  0.12509000000E+03 0.  0.
         25    1    4    4    0    0  0.82775105109E+01 -0.10331202705E+02 -0.40263053382E+02  0.13207525316E+03  0.12509000000E+03 0.  0.
<mgrwt>
<rscale>  2 0.45007455E+03</rscale>
<asrwt>0</asrwt>
<pdfrwt beam="1">  1       21 0.27041387E-01 0.45007455E+03</pdfrwt>
<pdfrwt beam="2">  1       21 0.40500662E-01 0.45007455E+03</pdfrwt>
<totfact> 0.70974354E+04</totfact>
</mgrwt>
</event>
<event>
 7    0  0.4712189E-002  0.4423278E+03  0.7546771E-02  0.1030035E+00
         21   -1    0    0  502  501  0.00000000000E+00  0.00000000000E+00  0.21663342894E+03  0.21663342894E+03  0.00000000000E+00 0. -1.
         21   -1    0    0  501  502 -0.00000000000E+00 -0.00000000000E+00 -0.22578911717E+03  0.22578911717E+03  0.00000000000E+00 0. -1.
      99926    2    1    2    0    0  0.71054273576E-14  0.00000000000E+00 -0.91556882339E+01  0.44242254611E+03  0.44232780003E+03 0.  0.
      99925    2    3    3    0    0  0.44465129779E+02  0.58331860123E+02  0.63371899873E+02  0.28028830294E+03  0.26299388092E+03 0.  0.
         25    1    4    4    0    0  0.44486295240E+02  0.23645650334E+01  0.52604599398E+02  0.14282637575E+03  0.12509000000E+03 0.  0.
         25    1    4    4    0    0 -0.21165460462E-01  0.55967295090E+02  0.10767300476E+02  0.13746192719E+03  0.12509000000E+03 0.  0.
         25    1    3    3    0    0 -0.44465129779E+02 -0.58331860123E+02 -0.72527588107E+02  0.16213424317E+03  0.12509000000E+03 0.  0.
<mgrwt>
<rscale>  2 0.44232780E+03</rscale>
<asrwt>0</asrwt>
<pdfrwt beam="1">  1       21 0.31857857E-01 0.44232780E+03</pdfrwt>
<pdfrwt beam="2">  1       21 0.33204282E-01 0.44232780E+03</pdfrwt>
<totfact> 0.76970265E+04</totfact>
</mgrwt>
</event>
<event>
 7    0  0.4712189E-002  0.4597301E+03  0.7546771E-02  0.1024860E+00
         21   -1    0    0  502  501  0.00000000000E+00  0.00000000000E+00  0.43892250919E+03  0.43892250919E+03  0.00000000000E+00 0. -1.
         21   -1    0    0  501  502 -0.00000000000E+00 -0.00000000000E+00 -0.12038099993E+03  0.12038099993E+03  0.00000000000E+00 0. -1.
      99926    2    1    2    0    0 -0.44408920985E-15  0.00000000000E+00  0.31854150927E+03  0.55930350912E+03  0.45973005361E+03 0.  0.
      99925    2    3    3    0    0 -0.35103182640E+01  0.85716800863E+02  0.10183471086E+03  0.29478689932E+03  0.26300059960E+03 0.  0.
         25    1    4    4    0    0 -0.39778077510E+02  0.45201320631E+02  0.66244411238E+02  0.15382225118E+03  0.12509000000E+03 0.  0.
         25    1    4    4    0    0  0.36267759246E+02  0.40515480231E+02  0.35590299620E+02  0.14096464814E+03  0.12509000000E+03 0.  0.
         25    1    3    3    0    0  0.35103182640E+01 -0.85716800863E+02  0.21670679841E+03  0.26451660980E+03  0.12509000000E+03 0.  0.
<mgrwt>
<rscale>  2 0.45973005E+03</rscale>
<asrwt>0</asrwt>
<pdfrwt beam="1">  1       21 0.64547427E-01 0.45973005E+03</pdfrwt>
<pdfrwt beam="2">  1       21 0.17703088E-01 0.45973005E+03</pdfrwt>
<totfact> 0.59016571E+04</totfact>
</mgrwt>
</event>
<event>
 7    0  0.4712189E-002  0.4621659E+03  0.7546771E-02  0.1024155E+00
         21   -1    0    0  502  501  0.00000000000E+00  0.00000000000E+00  0.11730663274E+03  0.11730663274E+03  0.00000000000E+00 0.  1.
         21   -1    0    0  501  502 -0.00000000000E+00 -0.00000000000E+00 -0.45521155823E+03  0.45521155823E+03  0.00000000000E+00 0.  1.
      99926    2    1    2    0    0  0.14210854715E-13 -0.71054273576E-14 -0.33790492549E+03  0.57251819096E+03  0.46216592293E+03 0.  0.
      99925    2    3    3    0    0  0.10569631035E+03 -0.43084476354E+02 -0.25593995970E+03  0.38438593472E+03  0.26309561325E+03 0.  0.
         25    1    4    4    0    0  0.64479657571E+02 -0.33117800772E+02 -0.82763560954E+02  0.16658850528E+03  0.12509000000E+03 0.  0.
         25    1    4    4    0    0  0.41216652778E+02 -0.99666755827E+01 -0.17317639875E+03  0.21779742944E+03  0.12509000000E+03 0.  0.
         25    1    3    3    0    0 -0.10569631035E+03  0.43084476354E+02 -0.81964965787E+02  0.18813225625E+03  0.12509000000E+03 0.  0.
<mgrwt>
<rscale>  2 0.46216592E+03</rscale>
<asrwt>0</asrwt>
<pdfrwt beam="1">  1       21 0.17250976E-01 0.46216592E+03</pdfrwt>
<pdfrwt beam="2">  1       21 0.66942876E-01 0.46216592E+03</pdfrwt>
<totfact> 0.57097716E+04</totfact>
</mgrwt>
</event>
<event>
 7    0  0.4712189E-002  0.4548319E+03  0.7546771E-02  0.1026291E+00
         21   -1    0    0  502  501  0.00000000000E+00  0.00000000000E+00  0.80733484801E+03  0.80733484801E+03  0.00000000000E+00 0. -1.
         21   -1    0    0  501  502 -0.00000000000E+00 -0.00000000000E+00 -0.64060167010E+02  0.64060167010E+02  0.00000000000E+00 0. -1.
      99926    2    1    2    0    0  0.14210854715E-13  0.71054273576E-14  0.74327468100E+03  0.87139501502E+03  0.45483185991E+03 0.  0.
      99925    2    3    3    0    0  0.96551022293E+02  0.58384463010E+02  0.45411879029E+03  0.53674671805E+03  0.26294926930E+03 0.  0.
         25    1    4    4    0    0  0.85452256632E+02  0.42313206110E+02  0.28453760487E+03  0.32511790516E+03  0.12509000000E+03 0.  0.
         25    1    3    3    0    0 -0.96551022293E+02 -0.58384463010E+02  0.28915589072E+03  0.33464829697E+03  0.12509000000E+03 0.  0.
         25    1    4    4    0    0  0.11098765661E+02  0.16071256900E+02  0.16958118542E+03  0.21162881289E+03  0.12509000000E+03 0.  0.
<mgrwt>
<rscale>  2 0.45483186E+03</rscale>
<asrwt>0</asrwt>
<pdfrwt beam="1">  1       21 0.11872571E+00 0.45483186E+03</pdfrwt>
<pdfrwt beam="2">  1       21 0.94206133E-02 0.45483186E+03</pdfrwt>
<totfact> 0.44552247E+04</totfact>
</mgrwt>
</event>
<event>
 6    0  0.4712189E-002  0.4546474E+03  0.7546771E-02  0.1026345E+00
         21   -1    0    0  502  501  0.00000000000E+00  0.00000000000E+00  0.56963029963E+03  0.56963029963E+03  0.00000000000E+00 0. -1.
         21   -1    0    0  501  502 -0.00000000000E+00 -0.00000000000E+00 -0.90718613252E+02  0.90718613252E+02  0.00000000000E+00 0. -1.
      99926    2    1    2    0    0  0.00000000000E+00  0.35527136788E-14  0.47891168637E+03  0.66034891288E+03  0.45464742757E+03 0.  0.
         25    1    3    3    0    0 -0.49079598411E+02 -0.22012786656E+02  0.12167555400E+03  0.18260837412E+03  0.12509000000E+03 0.  0.
         25    1    3    3    0    0 -0.14557644627E+02  0.47043581302E+02  0.58261122391E+02  0.14651583546E+03  0.12509000000E+03 0.  0.
         25    1    3    3    0    0  0.63637243038E+02 -0.25030794645E+02  0.29897500998E+03  0.33122470330E+03  0.12509000000E+03 0.  0.
<mgrwt>
<rscale>  2 0.45464743E+03</rscale>
<asrwt>0</asrwt>
<pdfrwt beam="1">  1       21 0.83769160E-01 0.45464743E+03</pdfrwt>
<pdfrwt beam="2">  1       21 0.13340973E-01 0.45464743E+03</pdfrwt>
<totfact> 0.55262213E+04</totfact>
</mgrwt>
</event>
<event>
 7    0  0.4712189E-002  0.4565392E+03  0.7546771E-02  0.1025790E+00
         21   -1    0    0  502  501  0.00000000000E+00  0.00000000000E+00  0.10457015948E+03  0.10457015948E+03  0.00000000000E+00 0.  1.
         21   -1    0    0  501  502 -0.00000000000E+00 -0.00000000000E+00 -0.49829712212E+03  0.49829712212E+03  0.00000000000E+00 0.  1.
      99926    2    1    2    0    0  0.00000000000E+00 -0.14210854715E-13 -0.39372696264E+03  0.60286728160E+03  0.45653919669E+03 0.  0.
      99925    2    3    3    0    0 -0.14483004470E+02  0.96520675607E+02 -0.16826626248E+03  0.32717536359E+03  0.26306688354E+03 0.  0.
         25    1    4    4    0    0 -0.10874714522E+02  0.86840744694E+02 -0.70925194643E+02  0.16833735679E+03  0.12509000000E+03 0.  0.
         25    1    4    4    0    0 -0.36082899481E+01  0.96799309130E+01 -0.97341067837E+02  0.15883800681E+03  0.12509000000E+03 0.  0.
         25    1    3    3    0    0  0.14483004470E+02 -0.96520675607E+02 -0.22546070016E+03  0.27569191800E+03  0.12509000000E+03 0.  0.
<mgrwt>
<rscale>  2 0.45653920E+03</rscale>
<asrwt>0</asrwt>
<pdfrwt beam="1">  1       21 0.15377964E-01 0.45653920E+03</pdfrwt>
<pdfrwt beam="2">  1       21 0.73278989E-01 0.45653920E+03</pdfrwt>
<totfact> 0.57796073E+04</totfact>
</mgrwt>
</event>
<event>
 7    0  0.4712189E-002  0.4515999E+03  0.7546771E-02  0.1027246E+00
         21   -1    0    0  502  501  0.00000000000E+00  0.00000000000E+00  0.38269090751E+03  0.38269090751E+03  0.00000000000E+00 0.  1.
         21   -1    0    0  501  502 -0.00000000000E+00 -0.00000000000E+00 -0.13322925381E+03  0.13322925381E+03  0.00000000000E+00 0.  1.
      99926    2    1    2    0    0  0.00000000000E+00  0.00000000000E+00  0.24946165370E+03  0.51592016132E+03  0.45159992935E+03 0.  0.
      99925    2    3    3    0    0  0.74983449893E+02 -0.18596072250E+02  0.68424880322E+02  0.28270319565E+03  0.26319346672E+03 0.  0.
         25    1    4    4    0    0  0.51937378441E+02  0.26488317507E+02  0.20643497337E+02  0.13954491867E+03  0.12509000000E+03 0.  0.
         25    1    4    4    0    0  0.23046071452E+02 -0.45084389756E+02  0.47781382985E+02  0.14315827698E+03  0.12509000000E+03 0.  0.
         25    1    3    3    0    0 -0.74983449893E+02  0.18596072250E+02  0.18103677338E+03  0.23321696567E+03  0.12509000000E+03 0.  0.
<mgrwt>
<rscale>  2 0.45159993E+03</rscale>
<asrwt>0</asrwt>
<pdfrwt beam="1">  1       21 0.56278075E-01 0.45159993E+03</pdfrwt>
<pdfrwt beam="2">  1       21 0.19592537E-01 0.45159993E+03</pdfrwt>
<totfact> 0.65926737E+04</totfact>
</mgrwt>
</event>
<event>
 7    0  0.4712189E-002  0.4563093E+03  0.7546771E-02  0.1025857E+00
         21   -1    0    0  502  501  0.00000000000E+00  0.00000000000E+00  0.30021104131E+03  0.30021104131E+03  0.00000000000E+00 0. -1.
         21   -1    0    0  501  502 -0.00000000000E+00 -0.00000000000E+00 -0.17339316803E+03  0.17339316803E+03  0.00000000000E+00 0. -1.
      99926    2    1    2    0    0  0.88817841970E-15  0.00000000000E+00  0.12681787328E+03  0.47360420934E+03  0.45630929655E+03 0.  0.
      99925    2    3    3    0    0 -0.76759168875E+01  0.94759827789E+02  0.14556375358E+03  0.31537254123E+03  0.26312105341E+03 0.  0.
         25    1    3    3    0    0  0.76759168875E+01 -0.94759827789E+02 -0.18745880300E+02  0.15823166810E+03  0.12509000000E+03 0.  0.
         25    1    4    4    0    0 -0.13181973793E+02  0.47256747424E+02  0.11760727460E+03  0.17856635671E+03  0.12509000000E+03 0.  0.
         25    1    4    4    0    0  0.55060569052E+01  0.47503080365E+02  0.27956478977E+02  0.13680618452E+03  0.12509000000E+03 0.  0.
<mgrwt>
<rscale>  2 0.45630930E+03</rscale>
<asrwt>0</asrwt>
<pdfrwt beam="1">  1       21 0.44148683E-01 0.45630930E+03</pdfrwt>
<pdfrwt beam="2">  1       21 0.25498995E-01 0.45630930E+03</pdfrwt>
<totfact> 0.66475431E+04</totfact>
</mgrwt>
</event>
<event>
 7    0  0.4712189E-002  0.4555620E+03  0.7546771E-02  0.1026076E+00
         21   -1    0    0  502  501  0.00000000000E+00  0.00000000000E+00  0.18136123737E+03  0.18136123737E+03  0.00000000000E+00 0.  1.
         21   -1    0    0  501  502 -0.00000000000E+00 -0.00000000000E+00 -0.28608197470E+03  0.28608197470E+03  0.00000000000E+00 0.  1.
      99926    2    1    2    0    0  0.14210854715E-13  0.35527136788E-14 -0.10472073734E+03  0.46744321207E+03  0.45556198665E+03 0.  0.
      99925    2    3    3    0    0 -0.71663504002E+02 -0.14635638835E+02 -0.15514142796E+03  0.31401696310E+03  0.26303598749E+03 0.  0.
         25    1    4    4    0    0 -0.74533865417E+02 -0.23478734209E+02 -0.79851340938E+02  0.16772087766E+03  0.12509000000E+03 0.  0.
         25    1    4    4    0    0  0.28703614153E+01  0.88430953744E+01 -0.75290087019E+02  0.14629608544E+03  0.12509000000E+03 0.  0.
         25    1    3    3    0    0  0.71663504002E+02  0.14635638835E+02  0.50420690622E+02  0.15342624897E+03  0.12509000000E+03 0.  0.
<mgrwt>
<rscale>  2 0.45556199E+03</rscale>
<asrwt>0</asrwt>
<pdfrwt beam="1">  1       21 0.26670771E-01 0.45556199E+03</pdfrwt>
<pdfrwt beam="2">  1       21 0.42070878E-01 0.45556199E+03</pdfrwt>
<totfact> 0.67325986E+04</totfact>
</mgrwt>
</event>
<event>
 7    0  0.4712189E-002  0.4574873E+03  0.7546771E-02  0.1025512E+00
         21   -1    0    0  502  501  0.00000000000E+00  0.00000000000E+00  0.29054203801E+03  0.29054203801E+03  0.00000000000E+00 0. -1.
         21   -1    0    0  501  502 -0.00000000000E+00 -0.00000000000E+00 -0.18008979772E+03  0.18008979772E+03  0.00000000000E+00 0. -1.
      99926    2    1    2    0    0 -0.14210854715E-13  0.22204460493E-15  0.11045224030E+03  0.47063183573E+03  0.45748729755E+03 0.  0.
      99925    2    3    3    0    0 -0.10532044362E+03 -0.88678009894E+00  0.20592656340E+02  0.28404288871E+03  0.26298882659E+03 0.  0.
         25    1    3    3    0    0  0.10532044362E+03  0.88678009894E+00  0.89859583956E+02  0.18658894702E+03  0.12509000000E+03 0.  0.
         25    1    4    4    0    0 -0.60244410181E+02 -0.78859369478E+01 -0.28823503249E+02  0.14202070060E+03  0.12509000000E+03 0.  0.
         25    1    4    4    0    0 -0.45076033434E+02  0.69991568488E+01  0.49416159589E+02  0.14202218811E+03  0.12509000000E+03 0.  0.
<mgrwt>
<rscale>  2 0.45748730E+03</rscale>
<asrwt>0</asrwt>
<pdfrwt beam="1">  1       21 0.42726771E-01 0.45748730E+03</pdfrwt>
<pdfrwt beam="2">  1       21 0.26483794E-01 0.45748730E+03</pdfrwt>
<totfact> 0.66075443E+04</totfact>
</mgrwt>
</event>
<event>
 7    0  0.4712189E-002  0.4560082E+03  0.7546771E-02  0.1025945E+00
         21   -1    0    0  502  501  0.00000000000E+00  0.00000000000E+00  0.12584287324E+04  0.12584287324E+04  0.00000000000E+00 0. -1.
         21   -1    0    0  501  502 -0.00000000000E+00 -0.00000000000E+00 -0.41310140650E+02  0.41310140650E+02  0.00000000000E+00 0. -1.
      99926    2    1    2    0    0  0.00000000000E+00 -0.13877787808E-14  0.12171185917E+04  0.12997388730E+04  0.45600819261E+03 0.  0.
      99925    2    3    3    0    0 -0.11399593592E+03 -0.44366925604E+00  0.75076032493E+03  0.80362113361E+03  0.26300302403E+03 0.  0.
         25    1    4    4    0    0 -0.97456798917E+02  0.11210747088E+02  0.38480042849E+03  0.41634407209E+03  0.12509000000E+03 0.  0.
         25    1    3    3    0    0  0.11399593592E+03  0.44366925604E+00  0.46635826678E+03  0.49611773939E+03  0.12509000000E+03 0.  0.
         25    1    4    4    0    0 -0.16539137008E+02 -0.11654416344E+02  0.36595989644E+03  0.38727706152E+03  0.12509000000E+03 0.  0.
<mgrwt>
<rscale>  2 0.45600819E+03</rscale>
<asrwt>0</asrwt>
<pdfrwt beam="1">  1       21 0.18506302E+00 0.45600819E+03</pdfrwt>
<pdfrwt beam="2">  1       21 0.60750215E-02 0.45600819E+03</pdfrwt>
<totfact> 0.28895051E+04</totfact>
</mgrwt>
</event>
<event>
 7    0  0.4712189E-002  0.4568808E+03  0.7546771E-02  0.1025690E+00
         21   -1    0    0  502  501  0.00000000000E+00  0.00000000000E+00  0.60726441676E+02  0.60726441676E+02  0.00000000000E+00 0.  1.
         21   -1    0    0  501  502 -0.00000000000E+00 -0.00000000000E+00 -0.85934595864E+03  0.85934595864E+03  0.00000000000E+00 0.  1.
      99926    2    1    2    0    0  0.00000000000E+00 -0.44408920985E-14 -0.79861951696E+03  0.92007240031E+03  0.45688082576E+03 0.  0.
      99925    2    3    3    0    0 -0.29767944704E+02  0.63255657471E+01 -0.27838762596E+03  0.38414808492E+03  0.26295234843E+03 0.  0.
         25    1    3    3    0    0  0.29767944704E+02 -0.63255657471E+01 -0.52023189100E+03  0.53592431540E+03  0.12509000000E+03 0.  0.
         25    1    4    4    0    0 -0.23944907436E+02 -0.36272697718E+02 -0.13766849923E+03  0.19102144113E+03  0.12509000000E+03 0.  0.
         25    1    4    4    0    0 -0.58230372676E+01  0.42598263465E+02 -0.14071912673E+03  0.19312664379E+03  0.12509000000E+03 0.  0.
<mgrwt>
<rscale>  2 0.45688083E+03</rscale>
<asrwt>0</asrwt>
<pdfrwt beam="1">  1       21 0.89303599E-02 0.45688083E+03</pdfrwt>
<pdfrwt beam="2">  1       21 0.12637439E+00 0.45688083E+03</pdfrwt>
<totfact> 0.41759187E+04</totfact>
</mgrwt>
</event>
<event>
 7    0  0.4712189E-002  0.4435079E+03  0.7546771E-02  0.1029676E+00
         21   -1    0    0  502  501  0.00000000000E+00  0.00000000000E+00  0.48266368968E+02  0.48266368968E+02  0.00000000000E+00 0. -1.
         21   -1    0    0  501  502 -0.00000000000E+00 -0.00000000000E+00 -0.10188214112E+04  0.10188214112E+04  0.00000000000E+00 0. -1.
      99926    2    1    2    0    0  0.00000000000E+00  0.00000000000E+00 -0.97055504220E+03  0.10670877801E+04  0.44350788108E+03 0.  0.
      99925    2    3    3    0    0 -0.92616243219E+02 -0.14911754038E+02 -0.52006010424E+03  0.59023001712E+03  0.26288558762E+03 0.  0.
         25    1    3    3    0    0  0.92616243219E+02  0.14911754038E+02 -0.45049493797E+03  0.47685776302E+03  0.12509000000E+03 0.  0.
         25    1    4    4    0    0 -0.40180460443E+02 -0.18512055252E+02 -0.17621241709E+03  0.22057989398E+03  0.12509000000E+03 0.  0.
         25    1    4    4    0    0 -0.52435782777E+02  0.36003012137E+01 -0.34384768714E+03  0.36965012314E+03  0.12509000000E+03 0.  0.
<mgrwt>
<rscale>  2 0.44350788E+03</rscale>
<asrwt>0</asrwt>
<pdfrwt beam="1">  1       21 0.70979959E-02 0.44350788E+03</pdfrwt>
<pdfrwt beam="2">  1       21 0.14982667E+00 0.44350788E+03</pdfrwt>
<totfact> 0.40137125E+04</totfact>
</mgrwt>
</event>
<event>
 7    0  0.4712189E-002  0.4622817E+03  0.7546771E-02  0.1024122E+00
         21   -1    0    0  502  501  0.00000000000E+00  0.00000000000E+00  0.13830317559E+03  0.13830317559E+03  0.00000000000E+00 0. -1.
         21   -1    0    0  501  502 -0.00000000000E+00 -0.00000000000E+00 -0.38629695836E+03  0.38629695836E+03  0.00000000000E+00 0. -1.
      99926    2    1    2    0    0 -0.71054273576E-14  0.00000000000E+00 -0.24799378277E+03  0.52460013395E+03  0.46228171524E+03 0.  0.
      99925    2    3    3    0    0 -0.45409359369E+02 -0.11084038893E+03 -0.15531320840E+03  0.32816999699E+03  0.26310787234E+03 0.  0.
         25    1    4    4    0    0  0.14864616452E+02 -0.65149365317E+02 -0.90738206160E+02  0.16836367417E+03  0.12509000000E+03 0.  0.
         25    1    3    3    0    0  0.45409359369E+02  0.11084038893E+03 -0.92680574379E+02  0.19643013695E+03  0.12509000000E+03 0.  0.
         25    1    4    4    0    0 -0.60273975821E+02 -0.45691023612E+02 -0.64575002236E+02  0.15980632282E+03  0.12509000000E+03 0.  0.
<mgrwt>
<rscale>  2 0.46228172E+03</rscale>
<asrwt>0</asrwt>
<pdfrwt beam="1">  1       21 0.20338703E-01 0.46228172E+03</pdfrwt>
<pdfrwt beam="2">  1       21 0.56808376E-01 0.46228172E+03</pdfrwt>
<totfact> 0.60031145E+04</totfact>
</mgrwt>
</event>
<event>
 7    0  0.4712189E-002  0.4524603E+03  0.7546771E-02  0.1026991E+00
         21   -1    0    0  502  501  0.00000000000E+00  0.00000000000E+00  0.31338452598E+02  0.31338452598E+02  0.00000000000E+00 0. -1.
         21   -1    0    0  501  502 -0.00000000000E+00 -0.00000000000E+00 -0.16331401166E+04  0.16331401166E+04  0.00000000000E+00 0. -1.
      99926    2    1    2    0    0 -0.14210854715E-13  0.71054273576E-14 -0.16018016640E+04  0.16644785692E+04  0.45246031485E+03 0.  0.
      99925    2    3    3    0    0 -0.79378525704E+02  0.38273226685E+02 -0.75950371366E+03  0.80839496611E+03  0.26247045538E+03 0.  0.
         25    1    4    4    0    0 -0.78937588985E+02  0.13044347160E+02 -0.43837103474E+03  0.46283687207E+03  0.12509000000E+03 0.  0.
         25    1    3    3    0    0  0.79378525704E+02 -0.38273226685E+02 -0.84229795030E+03  0.85608360305E+03  0.12509000000E+03 0.  0.
         25    1    4    4    0    0 -0.44093671984E+00  0.25228879525E+02 -0.32113267892E+03  0.34555809404E+03  0.12509000000E+03 0.  0.
<mgrwt>
<rscale>  2 0.45246031E+03</rscale>
<asrwt>0</asrwt>
<pdfrwt beam="1">  1       21 0.46085970E-02 0.45246031E+03</pdfrwt>
<pdfrwt beam="2">  1       21 0.24016761E+00 0.45246031E+03</pdfrwt>
<totfact> 0.20410727E+04</totfact>
</mgrwt>
</event>
<event>
 7    0  0.4712189E-002  0.4576579E+03  0.7546771E-02  0.1025463E+00
         21   -1    0    0  502  501  0.00000000000E+00  0.00000000000E+00  0.40175404388E+03  0.40175404388E+03  0.00000000000E+00 0. -1.
         21   -1    0    0  501  502 -0.00000000000E+00 -0.00000000000E+00 -0.13033520689E+03  0.13033520689E+03  0.00000000000E+00 0. -1.
      99926    2    1    2    0    0 -0.71054273576E-14  0.00000000000E+00  0.27141883699E+03  0.53208925077E+03  0.45765793527E+03 0.  0.
      99925    2    3    3    0    0  0.43268473940E+02 -0.38898039015E+02  0.52559400846E+02  0.27337670920E+03  0.26189142071E+03 0.  0.
         25    1    4    4    0    0  0.43138839188E+02 -0.51030474989E+02  0.17454642996E+02  0.14288891310E+03  0.12509000000E+03 0.  0.
         25    1    4    4    0    0  0.12963475168E+00  0.12132435974E+02  0.35104757851E+02  0.13048779610E+03  0.12509000000E+03 0.  0.
         25    1    3    3    0    0 -0.43268473940E+02  0.38898039015E+02  0.21885943614E+03  0.25871254157E+03  0.12509000000E+03 0.  0.
<mgrwt>
<rscale>  2 0.45765794E+03</rscale>
<asrwt>0</asrwt>
<pdfrwt beam="1">  1       21 0.59081477E-01 0.45765794E+03</pdfrwt>
<pdfrwt beam="2">  1       21 0.19166942E-01 0.45765794E+03</pdfrwt>
<totfact> 0.61754083E+04</totfact>
</mgrwt>
</event>
<event>
 7    0  0.4712189E-002  0.4609160E+03  0.7546771E-02  0.1024516E+00
         21   -1    0    0  502  501  0.00000000000E+00  0.00000000000E+00  0.14876291688E+04  0.14876291688E+04  0.00000000000E+00 0.  1.
         21   -1    0    0  501  502 -0.00000000000E+00 -0.00000000000E+00 -0.35701699868E+02  0.35701699868E+02  0.00000000000E+00 0.  1.
      99926    2    1    2    0    0  0.00000000000E+00  0.13322676296E-14  0.14519274689E+04  0.15233308687E+04  0.46091600145E+03 0.  0.
      99925    2    3    3    0    0 -0.11021464356E+03 -0.11006480116E+01  0.10534800791E+04  0.10914092211E+04  0.26306906269E+03 0.  0.
         25    1    3    3    0    0  0.11021464356E+03  0.11006480116E+01  0.39844738982E+03  0.43192164756E+03  0.12509000000E+03 0.  0.
         25    1    4    4    0    0 -0.84954730939E+02 -0.27218357077E+02  0.62206955229E+03  0.64076218775E+03  0.12509000000E+03 0.  0.
         25    1    4    4    0    0 -0.25259912618E+02  0.26117709065E+02  0.43141052682E+03  0.45064703335E+03  0.12509000000E+03 0.  0.
<mgrwt>
<rscale>  2 0.46091600E+03</rscale>
<asrwt>0</asrwt>
<pdfrwt beam="1">  1       21 0.21876895E+00 0.46091600E+03</pdfrwt>
<pdfrwt beam="2">  1       21 0.52502510E-02 0.46091600E+03</pdfrwt>
<totfact> 0.22176472E+04</totfact>
</mgrwt>
</event>
<event>
 7    0  0.4712189E-002  0.4453139E+03  0.7546771E-02  0.1029129E+00
         21   -1    0    0  502  501  0.00000000000E+00  0.00000000000E+00  0.28874259383E+03  0.28874259383E+03  0.00000000000E+00 0.  1.
         21   -1    0    0  501  502 -0.00000000000E+00 -0.00000000000E+00 -0.17169660485E+03  0.17169660485E+03  0.00000000000E+00 0.  1.
      99926    2    1    2    0    0 -0.35527136788E-14  0.00000000000E+00  0.11704598898E+03  0.46043919867E+03  0.44531392538E+03 0.  0.
      99925    2    3    3    0    0 -0.27028625558E+02  0.93880622470E+02  0.11079749357E+03  0.30159754900E+03  0.26294653279E+03 0.  0.
         25    1    4    4    0    0  0.26495063965E+02  0.51302509871E+02  0.49221758962E+02  0.14630183044E+03  0.12509000000E+03 0.  0.
         25    1    4    4    0    0 -0.53523689523E+02  0.42578112599E+02  0.61575734612E+02  0.15529571857E+03  0.12509000000E+03 0.  0.
         25    1    3    3    0    0  0.27028625558E+02 -0.93880622470E+02  0.62484954072E+01  0.15884164967E+03  0.12509000000E+03 0.  0.
<mgrwt>
<rscale>  2 0.44531393E+03</rscale>
<asrwt>0</asrwt>
<pdfrwt beam="1">  1       21 0.42462147E-01 0.44531393E+03</pdfrwt>
<pdfrwt beam="2">  1       21 0.25249500E-01 0.44531393E+03</pdfrwt>
<totfact> 0.73651901E+04</totfact>
</mgrwt>
</event>
<event>
 7    0  0.4712189E-002  0.4325740E+03  0.7546771E-02  0.1033050E+00
         21   -1    0    0  502  501  0.00000000000E+00  0.00000000000E+00  0.54502515224E+03  0.54502515224E+03  0.00000000000E+00 0. -1.
         21   -1    0    0  501  502 -0.00000000000E+00 -0.00000000000E+00 -0.85831041135E+02  0.85831041135E+02  0.00000000000E+00 0. -1.
      99926    2    1    2    0    0 -0.17763568394E-14  0.00000000000E+00  0.45919411111E+03  0.63085619338E+03  0.43257404574E+03 0.  0.
      99925    2    3    3    0    0 -0.11220983462E+02  0.82265941972E+02  0.34770028090E+03  0.44384823111E+03  0.26308206180E+03 0.  0.
         25    1    4    4    0    0 -0.14150974409E+02  0.12088327047E+02  0.20910836903E+03  0.24437715897E+03  0.12509000000E+03 0.  0.
         25    1    4    4    0    0  0.29299909479E+01  0.70177614925E+02  0.13859191187E+03  0.19947107214E+03  0.12509000000E+03 0.  0.
         25    1    3    3    0    0  0.11220983462E+02 -0.82265941972E+02  0.11149383020E+03  0.18700796227E+03  0.12509000000E+03 0.  0.
<mgrwt>
<rscale>  2 0.43257405E+03</rscale>
<asrwt>0</asrwt>
<pdfrwt beam="1">  1       21 0.80150756E-01 0.43257405E+03</pdfrwt>
<pdfrwt beam="2">  1       21 0.12622212E-01 0.43257405E+03</pdfrwt>
<totfact> 0.68091715E+04</totfact>
</mgrwt>
</event>
<event>
 7    0  0.4712189E-002  0.4594671E+03  0.7546771E-02  0.1024936E+00
         21   -1    0    0  502  501  0.00000000000E+00  0.00000000000E+00  0.11700753848E+03  0.11700753848E+03  0.00000000000E+00 0.  1.
         21   -1    0    0  501  502 -0.00000000000E+00 -0.00000000000E+00 -0.45106072317E+03  0.45106072317E+03  0.00000000000E+00 0.  1.
      99926    2    1    2    0    0  0.00000000000E+00  0.00000000000E+00 -0.33405318469E+03  0.56806826164E+03  0.45946710403E+03 0.  0.
      99925    2    3    3    0    0  0.10722610689E+03  0.46552156551E+02 -0.19506204453E+03  0.34754482429E+03  0.26281868731E+03 0.  0.
         25    1    4    4    0    0  0.96135712099E+02  0.23482189467E+02 -0.11804544757E+03  0.19843317302E+03  0.12509000000E+03 0.  0.
         25    1    4    4    0    0  0.11090394793E+02  0.23069967085E+02 -0.77016596966E+02  0.14911165128E+03  0.12509000000E+03 0.  0.
         25    1    3    3    0    0 -0.10722610689E+03 -0.46552156551E+02 -0.13899114016E+03  0.22052343735E+03  0.12509000000E+03 0.  0.
<mgrwt>
<rscale>  2 0.45946710E+03</rscale>
<asrwt>0</asrwt>
<pdfrwt beam="1">  1       21 0.17206991E-01 0.45946710E+03</pdfrwt>
<pdfrwt beam="2">  1       21 0.66332458E-01 0.45946710E+03</pdfrwt>
<totfact> 0.58590654E+04</totfact>
</mgrwt>
</event>
<event>
 7    0  0.4712189E-002  0.4355374E+03  0.7546771E-02  0.1032125E+00
         21   -1    0    0  502  501  0.00000000000E+00  0.00000000000E+00  0.13872689228E+03  0.13872689228E+03  0.00000000000E+00 0. -1.
         21   -1    0    0  501  502 -0.00000000000E+00 -0.00000000000E+00 -0.34184576306E+03  0.34184576306E+03  0.00000000000E+00 0. -1.
      99926    2    1    2    0    0  0.00000000000E+00  0.00000000000E+00 -0.20311887078E+03  0.48057265533E+03  0.43553737083E+03 0.  0.
      99925    2    3    3    0    0 -0.57420423917E+02  0.27350713083E+02 -0.20618505736E+03  0.34020857093E+03  0.26302932777E+03 0.  0.
         25    1    4    4    0    0 -0.64240115454E+02 -0.67078058750E+01 -0.10616395602E+03  0.17632379519E+03  0.12509000000E+03 0.  0.
         25    1    4    4    0    0  0.68196915368E+01  0.34058518958E+02 -0.10002110134E+03  0.16388477574E+03  0.12509000000E+03 0.  0.
         25    1    3    3    0    0  0.57420423917E+02 -0.27350713083E+02  0.30661865851E+01  0.14036408440E+03  0.12509000000E+03 0.  0.
<mgrwt>
<rscale>  2 0.43553737E+03</rscale>
<asrwt>0</asrwt>
<pdfrwt beam="1">  1       21 0.20401014E-01 0.43553737E+03</pdfrwt>
<pdfrwt beam="2">  1       21 0.50271435E-01 0.43553737E+03</pdfrwt>
<totfact> 0.78036127E+04</totfact>
</mgrwt>
</event>
<event>
 7    0  0.4712189E-002  0.4580658E+03  0.7546771E-02  0.1025344E+00
         21   -1    0    0  502  501  0.00000000000E+00  0.00000000000E+00  0.40845640123E+02  0.40845640123E+02  0.00000000000E+00 0. -1.
         21   -1    0    0  501  502 -0.00000000000E+00 -0.00000000000E+00 -0.12842513592E+04  0.12842513592E+04  0.00000000000E+00 0. -1.
      99926    2    1    2    0    0 -0.71054273576E-14  0.00000000000E+00 -0.12434057191E+04  0.13250969993E+04  0.45806579809E+03 0.  0.
      99925    2    3    3    0    0 -0.35757619436E+02  0.78622201340E+02 -0.10045379844E+04  0.10419621187E+04  0.26292287209E+03 0.  0.
         25    1    4    4    0    0  0.11110141900E+02  0.18459201742E+02 -0.38704140455E+03  0.40732386907E+03  0.12509000000E+03 0.  0.
         25    1    3    3    0    0  0.35757619436E+02 -0.78622201340E+02 -0.23886773464E+03  0.28313488065E+03  0.12509000000E+03 0.  0.
         25    1    4    4    0    0 -0.46867761336E+02  0.60162999598E+02 -0.61749657990E+03  0.63463824960E+03  0.12509000000E+03 0.  0.
<mgrwt>
<rscale>  2 0.45806580E+03</rscale>
<asrwt>0</asrwt>
<pdfrwt beam="1">  1       21 0.60067130E-02 0.45806580E+03</pdfrwt>
<pdfrwt beam="2">  1       21 0.18886046E+00 0.45806580E+03</pdfrwt>
<totfact> 0.27727575E+04</totfact>
</mgrwt>
</event>
<event>
 7    0  0.4712189E-002  0.4559887E+03  0.7546771E-02  0.1025951E+00
         21   -1    0    0  502  501  0.00000000000E+00  0.00000000000E+00  0.21848821965E+03  0.21848821965E+03  0.00000000000E+00 0. -1.
         21   -1    0    0  501  502 -0.00000000000E+00 -0.00000000000E+00 -0.23791408669E+03  0.23791408669E+03  0.00000000000E+00 0. -1.
      99926    2    1    2    0    0  0.00000000000E+00 -0.35527136788E-14 -0.19425867042E+02  0.45640230633E+03  0.45598870700E+03 0.  0.
      99925    2    3    3    0    0  0.85387653615E+02 -0.20801339517E+02 -0.84902970546E+02  0.29009383902E+03  0.26310107167E+03 0.  0.
         25    1    4    4    0    0  0.27846236242E+02 -0.46722481867E+02 -0.53424184259E+02  0.14649250748E+03  0.12509000000E+03 0.  0.
         25    1    4    4    0    0  0.57541417373E+02  0.25921142350E+02 -0.31478786288E+02  0.14360133154E+03  0.12509000000E+03 0.  0.
         25    1    3    3    0    0 -0.85387653615E+02  0.20801339517E+02  0.65477103504E+02  0.16630846731E+03  0.12509000000E+03 0.  0.
<mgrwt>
<rscale>  2 0.45598871E+03</rscale>
<asrwt>0</asrwt>
<pdfrwt beam="1">  1       21 0.32130621E-01 0.45598871E+03</pdfrwt>
<pdfrwt beam="2">  1       21 0.34987365E-01 0.45598871E+03</pdfrwt>
<totfact> 0.67905926E+04</totfact>
</mgrwt>
</event>
<event>
 7    0  0.4712189E-002  0.4554443E+03  0.7546771E-02  0.1026111E+00
         21   -1    0    0  502  501  0.00000000000E+00  0.00000000000E+00  0.45677881609E+03  0.45677881609E+03  0.00000000000E+00 0. -1.
         21   -1    0    0  501  502 -0.00000000000E+00 -0.00000000000E+00 -0.11352844132E+03  0.11352844132E+03  0.00000000000E+00 0. -1.
      99926    2    1    2    0    0 -0.35527136788E-14  0.17763568394E-14  0.34325037477E+03  0.57030725741E+03  0.45544434136E+03 0.  0.
      99925    2    3    3    0    0  0.15103577440E+02  0.94639470231E+01  0.75505648468E+02  0.27424572511E+03  0.26304359039E+03 0.  0.
         25    1    4    4    0    0 -0.20677255981E+02 -0.15235151944E+02  0.14765938157E+02  0.12855037845E+03  0.12509000000E+03 0.  0.
         25    1    3    3    0    0 -0.15103577440E+02 -0.94639470231E+01  0.26774472630E+03  0.29606153230E+03  0.12509000000E+03 0.  0.
         25    1    4    4    0    0  0.35780833420E+02  0.24699098967E+02  0.60739710312E+02  0.14569534666E+03  0.12509000000E+03 0.  0.
<mgrwt>
<rscale>  2 0.45544434E+03</rscale>
<asrwt>0</asrwt>
<pdfrwt beam="1">  1       21 0.67173355E-01 0.45544434E+03</pdfrwt>
<pdfrwt beam="2">  1       21 0.16695359E-01 0.45544434E+03</pdfrwt>
<totfact> 0.60331930E+04</totfact>
</mgrwt>
</event>
<event>
 7    0  0.4712189E-002  0.4551298E+03  0.7546771E-02  0.1026203E+00
         21   -1    0    0  502  501  0.00000000000E+00  0.00000000000E+00  0.13151653976E+03  0.13151653976E+03  0.00000000000E+00 0.  1.
         21   -1    0    0  501  502 -0.00000000000E+00 -0.00000000000E+00 -0.39375866377E+03  0.39375866377E+03  0.00000000000E+00 0.  1.
      99926    2    1    2    0    0  0.00000000000E+00  0.00000000000E+00 -0.26224212401E+03  0.52527520353E+03  0.45512977033E+03 0.  0.
      99925    2    3    3    0    0 -0.21978737550E+01 -0.10976118465E+03 -0.13287131901E+03  0.31447515232E+03  0.26303514158E+03 0.  0.
         25    1    4    4    0    0  0.11363621902E+01 -0.93915580780E+02 -0.93960517213E+02  0.18247606563E+03  0.12509000000E+03 0.  0.
         25    1    4    4    0    0 -0.33342359452E+01 -0.15845603866E+02 -0.38910801798E+02  0.13199908669E+03  0.12509000000E+03 0.  0.
         25    1    3    3    0    0  0.21978737550E+01  0.10976118465E+03 -0.12937080500E+03  0.21080005121E+03  0.12509000000E+03 0.  0.
<mgrwt>
<rscale>  2 0.45512977E+03</rscale>
<asrwt>0</asrwt>
<pdfrwt beam="1">  1       21 0.19340668E-01 0.45512977E+03</pdfrwt>
<pdfrwt beam="2">  1       21 0.57905685E-01 0.45512977E+03</pdfrwt>
<totfact> 0.63462184E+04</totfact>
</mgrwt>
</event>
<event>
 7    0  0.4712189E-002  0.4541415E+03  0.7546771E-02  0.1026494E+00
         21   -1    0    0  502  501  0.00000000000E+00  0.00000000000E+00  0.29106383344E+04  0.29106383344E+04  0.00000000000E+00 0. -1.
         21   -1    0    0  501  502 -0.00000000000E+00 -0.00000000000E+00 -0.17714715739E+02  0.17714715739E+02  0.00000000000E+00 0. -1.
      99926    2    1    2    0    0 -0.14210854715E-13 -0.35527136788E-14  0.28929236187E+04  0.29283530502E+04  0.45414152293E+03 0.  0.
      99925    2    3    3    0    0 -0.10760906584E+03 -0.27957372262E+02  0.19277414498E+04  0.19487687236E+04  0.26296599568E+03 0.  0.
         25    1    4    4    0    0 -0.65395877467E+02  0.32432550784E+01  0.12200539012E+04  0.12281963074E+04  0.12509000000E+03 0.  0.
         25    1    4    4    0    0 -0.42213188373E+02 -0.31200627340E+02  0.70768754860E+03  0.72057241618E+03  0.12509000000E+03 0.  0.
         25    1    3    3    0    0  0.10760906584E+03  0.27957372262E+02  0.96518216885E+03  0.97958432658E+03  0.12509000000E+03 0.  0.
<mgrwt>
<rscale>  2 0.45414152E+03</rscale>
<asrwt>0</asrwt>
<pdfrwt beam="1">  1       21 0.42803472E+00 0.45414152E+03</pdfrwt>
<pdfrwt beam="2">  1       21 0.26051073E-02 0.45414152E+03</pdfrwt>
<totfact> 0.36909338E+03</totfact>
</mgrwt>
</event>
<event>
 7    0  0.4712189E-002  0.4536422E+03  0.7546771E-02  0.1026641E+00
         21   -1    0    0  502  501  0.00000000000E+00  0.00000000000E+00  0.32446947042E+03  0.32446947042E+03  0.00000000000E+00 0.  1.
         21   -1    0    0  501  502 -0.00000000000E+00 -0.00000000000E+00 -0.15855981722E+03  0.15855981722E+03  0.00000000000E+00 0.  1.
      99926    2    1    2    0    0 -0.71054273576E-14 -0.71054273576E-14  0.16590965320E+03  0.48302928764E+03  0.45364223755E+03 0.  0.
      99925    2    3    3    0    0 -0.40991271568E+02  0.55444927491E+02  0.19846076356E+03  0.33653182276E+03  0.26289269432E+03 0.  0.
         25    1    3    3    0    0  0.40991271568E+02 -0.55444927491E+02 -0.32551110362E+02  0.14649746488E+03  0.12509000000E+03 0.  0.
         25    1    4    4    0    0 -0.47429363889E+02  0.47964804659E+02  0.75843328123E+02  0.16108968175E+03  0.12509000000E+03 0.  0.
         25    1    4    4    0    0  0.64380923201E+01  0.74801228317E+01  0.12261743544E+03  0.17544214101E+03  0.12509000000E+03 0.  0.
<mgrwt>
<rscale>  2 0.45364224E+03</rscale>
<asrwt>0</asrwt>
<pdfrwt beam="1">  1       21 0.47716098E-01 0.45364224E+03</pdfrwt>
<pdfrwt beam="2">  1       21 0.23317620E-01 0.45364224E+03</pdfrwt>
<totfact> 0.67201643E+04</totfact>
</mgrwt>
</event>
<event>
 7    0  0.4712189E-002  0.4515701E+03  0.7546771E-02  0.1027255E+00
         21   -1    0    0  502  501  0.00000000000E+00  0.00000000000E+00  0.25480729260E+03  0.25480729260E+03  0.00000000000E+00 0. -1.
         21   -1    0    0  501  502 -0.00000000000E+00 -0.00000000000E+00 -0.20006844939E+03  0.20006844939E+03  0.00000000000E+00 0. -1.
      99926    2    1    2    0    0  0.00000000000E+00  0.00000000000E+00  0.54738843203E+02  0.45487574199E+03  0.45157014925E+03 0.  0.
      99925    2    3    3    0    0  0.26176080022E+02  0.79335789368E+02  0.10653526211E+03  0.29578541623E+03  0.26298269095E+03 0.  0.
         25    1    4    4    0    0 -0.83370836006E+00  0.34452023999E+00  0.39968368650E+02  0.13132323616E+03  0.12509000000E+03 0.  0.
         25    1    4    4    0    0  0.27009788382E+02  0.78991269128E+02  0.66566893460E+02  0.16446218007E+03  0.12509000000E+03 0.  0.
         25    1    3    3    0    0 -0.26176080022E+02 -0.79335789368E+02 -0.51796418906E+02  0.15909032576E+03  0.12509000000E+03 0.  0.
<mgrwt>
<rscale>  2 0.45157015E+03</rscale>
<asrwt>0</asrwt>
<pdfrwt beam="1">  1       21 0.37471661E-01 0.45157015E+03</pdfrwt>
<pdfrwt beam="2">  1       21 0.29421831E-01 0.45157015E+03</pdfrwt>
<totfact> 0.70463319E+04</totfact>
</mgrwt>
</event>
<event>
 7    0  0.4712189E-002  0.4536235E+03  0.7546771E-02  0.1026647E+00
         21   -1    0    0  502  501  0.00000000000E+00  0.00000000000E+00  0.67784320446E+02  0.67784320446E+02  0.00000000000E+00 0.  1.
         21   -1    0    0  501  502 -0.00000000000E+00 -0.00000000000E+00 -0.75893023067E+03  0.75893023067E+03  0.00000000000E+00 0.  1.
      99926    2    1    2    0    0  0.35527136788E-14  0.14210854715E-13 -0.69114591022E+03  0.82671455112E+03  0.45362350006E+03 0.  0.
      99925    2    3    3    0    0 -0.21509586434E+02 -0.77186091265E+02 -0.29309321512E+03  0.40184538164E+03  0.26297475735E+03 0.  0.
         25    1    4    4    0    0 -0.76149194339E+01 -0.75092023007E+02 -0.12799645903E+03  0.19423542556E+03  0.12509000000E+03 0.  0.
         25    1    3    3    0    0  0.21509586434E+02  0.77186091265E+02 -0.39805269510E+03  0.42486916948E+03  0.12509000000E+03 0.  0.
         25    1    4    4    0    0 -0.13894667000E+02 -0.20940682581E+01 -0.16509675609E+03  0.20760995608E+03  0.12509000000E+03 0.  0.
<mgrwt>
<rscale>  2 0.45362350E+03</rscale>
<asrwt>0</asrwt>
<pdfrwt beam="1">  1       21 0.99682822E-02 0.45362350E+03</pdfrwt>
<pdfrwt beam="2">  1       21 0.11160739E+00 0.45362350E+03</pdfrwt>
<totfact> 0.47005275E+04</totfact>
</mgrwt>
</event>
<event>
 7    0  0.4712189E-002  0.4535277E+03  0.7546771E-02  0.1026675E+00
         21   -1    0    0  502  501  0.00000000000E+00  0.00000000000E+00  0.33210814825E+02  0.33210814825E+02  0.00000000000E+00 0.  1.
         21   -1    0    0  501  502 -0.00000000000E+00 -0.00000000000E+00 -0.15483465017E+04  0.15483465017E+04  0.00000000000E+00 0.  1.
      99926    2    1    2    0    0  0.00000000000E+00  0.00000000000E+00 -0.15151356868E+04  0.15815573165E+04  0.45352772330E+03 0.  0.
      99925    2    3    3    0    0 -0.51245430391E+02 -0.97369059070E+02 -0.88518564049E+03  0.92995053568E+03  0.26295922285E+03 0.  0.
         25    1    3    3    0    0  0.51245430391E+02  0.97369059070E+02 -0.62995004633E+03  0.65160678079E+03  0.12509000000E+03 0.  0.
         25    1    4    4    0    0 -0.51572280800E+02 -0.75231647045E+02 -0.55443357139E+03  0.57564189741E+03  0.12509000000E+03 0.  0.
         25    1    4    4    0    0  0.32685040837E+00 -0.22137412025E+02 -0.33075206910E+03  0.35430863827E+03  0.12509000000E+03 0.  0.
<mgrwt>
<rscale>  2 0.45352772E+03</rscale>
<asrwt>0</asrwt>
<pdfrwt beam="1">  1       21 0.48839421E-02 0.45352772E+03</pdfrwt>
<pdfrwt beam="2">  1       21 0.22769807E+00 0.45352772E+03</pdfrwt>
<totfact> 0.22100750E+04</totfact>
</mgrwt>
</event>
<event>
 7    0  0.4712189E-002  0.4522267E+03  0.7546771E-02  0.1027060E+00
         21   -1    0    0  502  501  0.00000000000E+00  0.00000000000E+00  0.34887890776E+03  0.34887890776E+03  0.00000000000E+00 0. -1.
         21   -1    0    0  501  502 -0.00000000000E+00 -0.00000000000E+00 -0.14654723775E+03  0.14654723775E+03  0.00000000000E+00 0. -1.
      99926    2    1    2    0    0  0.14210854715E-13  0.00000000000E+00  0.20233167001E+03  0.49542614551E+03  0.45222666989E+03 0.  0.
      99925    2    3    3    0    0  0.97873218888E+02 -0.51009039747E+02  0.12060443629E+03  0.30966302230E+03  0.26299176454E+03 0.  0.
         25    1    4    4    0    0  0.88524387664E+02 -0.43921230671E+02  0.72553054655E+02  0.17514878120E+03  0.12509000000E+03 0.  0.
         25    1    3    3    0    0 -0.97873218888E+02  0.51009039747E+02  0.81727233719E+02  0.18576312320E+03  0.12509000000E+03 0.  0.
         25    1    4    4    0    0  0.93488312233E+01 -0.70878090762E+01  0.48051381635E+02  0.13451424110E+03  0.12509000000E+03 0.  0.
<mgrwt>
<rscale>  2 0.45222667E+03</rscale>
<asrwt>0</asrwt>
<pdfrwt beam="1">  1       21 0.51305722E-01 0.45222667E+03</pdfrwt>
<pdfrwt beam="2">  1       21 0.21551064E-01 0.45222667E+03</pdfrwt>
<totfact> 0.67057396E+04</totfact>
</mgrwt>
</event>
<event>
 6    0  0.4712189E-002  0.4509684E+03  0.7546771E-02  0.1027434E+00
         21   -1    0    0  502  501  0.00000000000E+00  0.00000000000E+00  0.21894341513E+03  0.21894341513E+03  0.00000000000E+00 0. -1.
         21   -1    0    0  501  502 -0.00000000000E+00 -0.00000000000E+00 -0.23222035091E+03  0.23222035091E+03  0.00000000000E+00 0. -1.
      99926    2    1    2    0    0  0.00000000000E+00  0.71054273576E-14 -0.13276935782E+02  0.45116376605E+03  0.45096836560E+03 0.  0.
         25    1    3    3    0    0 -0.83355942811E+02  0.58689070074E+02  0.24025245538E+02  0.16314821688E+03  0.12509000000E+03 0.  0.
         25    1    3    3    0    0  0.45925817909E+02 -0.76224845853E+02 -0.13146856529E+02  0.15407710996E+03  0.12509000000E+03 0.  0.
         25    1    3    3    0    0  0.37430124902E+02  0.17535775779E+02 -0.24155324791E+02  0.13393843921E+03  0.12509000000E+03 0.  0.
<mgrwt>
<rscale>  2 0.45096837E+03</rscale>
<asrwt>0</asrwt>
<pdfrwt beam="1">  1       21 0.32197561E-01 0.45096837E+03</pdfrwt>
<pdfrwt beam="2">  1       21 0.34150052E-01 0.45096837E+03</pdfrwt>
<totfact> 0.71087125E+04</totfact>
</mgrwt>
</event>
<event>
 7    0  0.4712189E-002  0.4558000E+03  0.7546771E-02  0.1026006E+00
         21   -1    0    0  502  501  0.00000000000E+00  0.00000000000E+00  0.21160798582E+02  0.21160798582E+02  0.00000000000E+00 0. -1.
         21   -1    0    0  501  502 -0.00000000000E+00 -0.00000000000E+00 -0.24544634153E+04  0.24544634153E+04  0.00000000000E+00 0. -1.
      99926    2    1    2    0    0 -0.71054273576E-14  0.00000000000E+00 -0.24333026167E+04  0.24756242138E+04  0.45579998226E+03 0.  0.
      99925    2    3    3    0    0  0.42339668742E+02  0.28156943701E+02 -0.97663263161E+03  0.10127091737E+04  0.26302682837E+03 0.  0.
         25    1    4    4    0    0 -0.36449870765E+01  0.20567314267E+02 -0.59609939560E+03  0.60944097161E+03  0.12509000000E+03 0.  0.
         25    1    4    4    0    0  0.45984655819E+02  0.75896294339E+01 -0.38053323601E+03  0.40326820213E+03  0.12509000000E+03 0.  0.
         25    1    3    3    0    0 -0.42339668742E+02 -0.28156943701E+02 -0.14566699851E+04  0.14629150401E+04  0.12509000000E+03 0.  0.
<mgrwt>
<rscale>  2 0.45579998E+03</rscale>
<asrwt>0</asrwt>
<pdfrwt beam="1">  1       21 0.31118826E-02 0.45579998E+03</pdfrwt>
<pdfrwt beam="2">  1       21 0.36095045E+00 0.45579998E+03</pdfrwt>
<totfact> 0.73387001E+03</totfact>
</mgrwt>
</event>
<event>
 7    0  0.4712189E-002  0.4490875E+03  0.7546771E-02  0.1027994E+00
         21   -1    0    0  502  501  0.00000000000E+00  0.00000000000E+00  0.43542819872E+02  0.43542819872E+02  0.00000000000E+00 0. -1.
         21   -1    0    0  501  502 -0.00000000000E+00 -0.00000000000E+00 -0.11579384635E+04  0.11579384635E+04  0.00000000000E+00 0. -1.
      99926    2    1    2    0    0  0.00000000000E+00  0.00000000000E+00 -0.11143956436E+04  0.12014812834E+04  0.44908754576E+03 0.  0.
      99925    2    3    3    0    0 -0.17847549526E+02 -0.90317021884E+02 -0.55651355094E+03  0.62238229623E+03  0.26301462091E+03 0.  0.
         25    1    4    4    0    0  0.13567913954E+02 -0.96857051012E+01 -0.23664976104E+03  0.26819492664E+03  0.12509000000E+03 0.  0.
         25    1    4    4    0    0 -0.31415463480E+02 -0.80631316783E+02 -0.31986378989E+03  0.35418736959E+03  0.12509000000E+03 0.  0.
         25    1    3    3    0    0  0.17847549526E+02  0.90317021884E+02 -0.55788209269E+03  0.57909898714E+03  0.12509000000E+03 0.  0.
<mgrwt>
<rscale>  2 0.44908755E+03</rscale>
<asrwt>0</asrwt>
<pdfrwt beam="1">  1       21 0.64033561E-02 0.44908755E+03</pdfrwt>
<pdfrwt beam="2">  1       21 0.17028506E+00 0.44908755E+03</pdfrwt>
<totfact> 0.33631498E+04</totfact>
</mgrwt>
</event>
<event>
 7    0  0.4712189E-002  0.4554489E+03  0.7546771E-02  0.1026109E+00
         21   -1    0    0  502  501  0.00000000000E+00  0.00000000000E+00  0.49949412635E+02  0.49949412635E+02  0.00000000000E+00 0. -1.
         21   -1    0    0  501  502 -0.00000000000E+00 -0.00000000000E+00 -0.10382189359E+04  0.10382189359E+04  0.00000000000E+00 0. -1.
      99926    2    1    2    0    0 -0.71054273576E-14  0.71054273576E-14 -0.98826952330E+03  0.10881683486E+04  0.45544890399E+03 0.  0.
      99925    2    3    3    0    0 -0.39616415694E+02  0.56562662390E+02 -0.40629536212E+03  0.48891028434E+03  0.26303716407E+03 0.  0.
         25    1    3    3    0    0  0.39616415694E+02 -0.56562662390E+02 -0.58197416118E+03  0.59925806423E+03  0.12509000000E+03 0.  0.
         25    1    4    4    0    0 -0.30068220405E+02  0.30095685247E+02 -0.13528944388E+03  0.18910470611E+03  0.12509000000E+03 0.  0.
         25    1    4    4    0    0 -0.95481952883E+01  0.26466977143E+02 -0.27100591825E+03  0.29980557823E+03  0.12509000000E+03 0.  0.
<mgrwt>
<rscale>  2 0.45544890E+03</rscale>
<asrwt>0</asrwt>
<pdfrwt beam="1">  1       21 0.73455024E-02 0.45544890E+03</pdfrwt>
<pdfrwt beam="2">  1       21 0.15267924E+00 0.45544890E+03</pdfrwt>
<totfact> 0.35781744E+04</totfact>
</mgrwt>
</event>
<event>
 7    0  0.4712189E-002  0.4579678E+03  0.7546771E-02  0.1025372E+00
         21   -1    0    0  502  501  0.00000000000E+00  0.00000000000E+00  0.69527930083E+02  0.69527930083E+02  0.00000000000E+00 0.  1.
         21   -1    0    0  501  502 -0.00000000000E+00 -0.00000000000E+00 -0.75413773005E+03  0.75413773005E+03  0.00000000000E+00 0.  1.
      99926    2    1    2    0    0  0.00000000000E+00  0.00000000000E+00 -0.68460979997E+03  0.82366566013E+03  0.45796783891E+03 0.  0.
      99925    2    3    3    0    0 -0.66011652384E+02  0.82559124009E+02 -0.51583621971E+03  0.58849428283E+03  0.26280214641E+03 0.  0.
         25    1    4    4    0    0 -0.14804322991E+02  0.51970418672E+02 -0.18467117887E+03  0.22950173159E+03  0.12509000000E+03 0.  0.
         25    1    4    4    0    0 -0.51207329393E+02  0.30588705337E+02 -0.33116504083E+03  0.35899255124E+03  0.12509000000E+03 0.  0.
         25    1    3    3    0    0  0.66011652384E+02 -0.82559124009E+02 -0.16877358026E+03  0.23517137730E+03  0.12509000000E+03 0.  0.
<mgrwt>
<rscale>  2 0.45796784E+03</rscale>
<asrwt>0</asrwt>
<pdfrwt beam="1">  1       21 0.10224696E-01 0.45796784E+03</pdfrwt>
<pdfrwt beam="2">  1       21 0.11090261E+00 0.45796784E+03</pdfrwt>
<totfact> 0.45570830E+04</totfact>
</mgrwt>
</event>
<event>
 7    0  0.4712189E-002  0.4597025E+03  0.7546771E-02  0.1024868E+00
         21   -1    0    0  502  501  0.00000000000E+00  0.00000000000E+00  0.19462546606E+03  0.19462546606E+03  0.00000000000E+00 0.  1.
         21   -1    0    0  501  502 -0.00000000000E+00 -0.00000000000E+00 -0.27145260633E+03  0.27145260633E+03  0.00000000000E+00 0.  1.
      99926    2    1    2    0    0 -0.71054273576E-14  0.00000000000E+00 -0.76827140268E+02  0.46607807240E+03  0.45970246909E+03 0.  0.
      99925    2    3    3    0    0 -0.38861076782E+02  0.73262284438E+02  0.36322225670E+02  0.27812107539E+03  0.26297239949E+03 0.  0.
         25    1    4    4    0    0 -0.29128138031E+02  0.45925633408E+02  0.57409176554E+02  0.14798964113E+03  0.12509000000E+03 0.  0.
         25    1    4    4    0    0 -0.97329387516E+01  0.27336651030E+02 -0.21086950884E+02  0.13013143426E+03  0.12509000000E+03 0.  0.
         25    1    3    3    0    0  0.38861076782E+02 -0.73262284438E+02 -0.11314936594E+03  0.18795699700E+03  0.12509000000E+03 0.  0.
<mgrwt>
<rscale>  2 0.45970247E+03</rscale>
<asrwt>0</asrwt>
<pdfrwt beam="1">  1       21 0.28621392E-01 0.45970247E+03</pdfrwt>
<pdfrwt beam="2">  1       21 0.39919501E-01 0.45970247E+03</pdfrwt>
<totfact> 0.65256424E+04</totfact>
</mgrwt>
</event>
<event>
 7    0  0.4712189E-002  0.4568849E+03  0.7546771E-02  0.1025689E+00
         21   -1    0    0  502  501  0.00000000000E+00  0.00000000000E+00  0.24393693153E+03  0.24393693153E+03  0.00000000000E+00 0. -1.
         21   -1    0    0  501  502 -0.00000000000E+00 -0.00000000000E+00 -0.21393219409E+03  0.21393219409E+03  0.00000000000E+00 0. -1.
      99926    2    1    2    0    0  0.00000000000E+00  0.35527136788E-14  0.30004737436E+02  0.45786912562E+03  0.45688494386E+03 0.  0.
      99925    2    3    3    0    0 -0.10113678947E+03 -0.24060156816E+02  0.68033825712E+02  0.29083242011E+03  0.26295884434E+03 0.  0.
         25    1    4    4    0    0 -0.61740609422E+02  0.24729516055E+02  0.47397418734E+02  0.14939034513E+03  0.12509000000E+03 0.  0.
         25    1    4    4    0    0 -0.39396180053E+02 -0.48789672871E+02  0.20636406978E+02  0.14144207498E+03  0.12509000000E+03 0.  0.
         25    1    3    3    0    0  0.10113678947E+03  0.24060156816E+02 -0.38029088276E+02  0.16703670551E+03  0.12509000000E+03 0.  0.
<mgrwt>
<rscale>  2 0.45688494E+03</rscale>
<asrwt>0</asrwt>
<pdfrwt beam="1">  1       21 0.35873078E-01 0.45688494E+03</pdfrwt>
<pdfrwt beam="2">  1       21 0.31460617E-01 0.45688494E+03</pdfrwt>
<totfact> 0.67318003E+04</totfact>
</mgrwt>
</event>
<event>
 7    0  0.4712189E-002  0.4694232E+03  0.7546771E-02  0.1022083E+00
         21   -1    0    0  502  501  0.00000000000E+00  0.00000000000E+00  0.46691526529E+03  0.46691526529E+03  0.00000000000E+00 0.  1.
         21   -1    0    0  501  502 -0.00000000000E+00 -0.00000000000E+00 -0.11798614685E+03  0.11798614685E+03  0.00000000000E+00 0.  1.
      99926    2    1    2    0    0  0.00000000000E+00  0.00000000000E+00  0.34892911844E+03  0.58490141214E+03  0.46942319098E+03 0.  0.
      99925    2    3    3    0    0 -0.21132064313E+02  0.11583256497E+03  0.16030824363E+03  0.32977577689E+03  0.26303912789E+03 0.  0.
         25    1    4    4    0    0 -0.15146822925E+02  0.80347910158E+02  0.45499292081E+02  0.15621429701E+03  0.12509000000E+03 0.  0.
         25    1    4    4    0    0 -0.59852413879E+01  0.35484654809E+02  0.11480895155E+03  0.17356147988E+03  0.12509000000E+03 0.  0.
         25    1    3    3    0    0  0.21132064313E+02 -0.11583256497E+03  0.18862087481E+03  0.25512563526E+03  0.12509000000E+03 0.  0.
<mgrwt>
<rscale>  2 0.46942319E+03</rscale>
<asrwt>0</asrwt>
<pdfrwt beam="1">  1       21 0.68664009E-01 0.46942319E+03</pdfrwt>
<pdfrwt beam="2">  1       21 0.17350904E-01 0.46942319E+03</pdfrwt>
<totfact> 0.53277950E+04</totfact>
</mgrwt>
</event>
<event>
 7    0  0.4712189E-002  0.4587083E+03  0.7546771E-02  0.1025157E+00
         21   -1    0    0  502  501  0.00000000000E+00  0.00000000000E+00  0.45397847536E+02  0.45397847536E+02  0.00000000000E+00 0. -1.
         21   -1    0    0  501  502 -0.00000000000E+00 -0.00000000000E+00 -0.11587186833E+04  0.11587186833E+04  0.00000000000E+00 0. -1.
      99926    2    1    2    0    0  0.00000000000E+00  0.00000000000E+00 -0.11133208358E+04  0.12041165308E+04  0.45870833487E+03 0.  0.
      99925    2    3    3    0    0  0.78430163333E+02  0.70236817119E+02 -0.83103758331E+03  0.87790211712E+03  0.26268643164E+03 0.  0.
         25    1    4    4    0    0  0.25758853622E+02  0.43121850640E+02 -0.52486252854E+03  0.54189592590E+03  0.12509000000E+03 0.  0.
         25    1    4    4    0    0  0.52671309711E+02  0.27114966479E+02 -0.30617505477E+03  0.33600619122E+03  0.12509000000E+03 0.  0.
         25    1    3    3    0    0 -0.78430163333E+02 -0.70236817119E+02 -0.28228325245E+03  0.32621441371E+03  0.12509000000E+03 0.  0.
<mgrwt>
<rscale>  2 0.45870833E+03</rscale>
<asrwt>0</asrwt>
<pdfrwt beam="1">  1       21 0.66761541E-02 0.45870833E+03</pdfrwt>
<pdfrwt beam="2">  1       21 0.17039981E+00 0.45870833E+03</pdfrwt>
<totfact> 0.31117116E+04</totfact>
</mgrwt>
</event>
<event>
 7    0  0.4712189E-002  0.4523665E+03  0.7546771E-02  0.1027019E+00
         21   -1    0    0  502  501  0.00000000000E+00  0.00000000000E+00  0.27045665091E+03  0.27045665091E+03  0.00000000000E+00 0.  1.
         21   -1    0    0  501  502 -0.00000000000E+00 -0.00000000000E+00 -0.18915733172E+03  0.18915733172E+03  0.00000000000E+00 0.  1.
      99926    2    1    2    0    0 -0.71054273576E-14  0.00000000000E+00  0.81299319189E+02  0.45961398262E+03  0.45236648165E+03 0.  0.
      99925    2    3    3    0    0  0.44738230906E+02 -0.56975575502E+02  0.13627104111E+03  0.30496236181E+03  0.26302950398E+03 0.  0.
         25    1    4    4    0    0 -0.28319994676E+01 -0.60130556361E+02  0.64578565593E+02  0.15310650954E+03  0.12509000000E+03 0.  0.
         25    1    4    4    0    0  0.47570230374E+02  0.31549808588E+01  0.71692475521E+02  0.15185585227E+03  0.12509000000E+03 0.  0.
         25    1    3    3    0    0 -0.44738230906E+02  0.56975575502E+02 -0.54971721925E+02  0.15465162081E+03  0.12509000000E+03 0.  0.
<mgrwt>
<rscale>  2 0.45236648E+03</rscale>
<asrwt>0</asrwt>
<pdfrwt beam="1">  1       21 0.39773037E-01 0.45236648E+03</pdfrwt>
<pdfrwt beam="2">  1       21 0.27817255E-01 0.45236648E+03</pdfrwt>
<totfact> 0.69658715E+04</totfact>
</mgrwt>
</event>
<event>
 7    0  0.4712189E-002  0.4538802E+03  0.7546771E-02  0.1026571E+00
         21   -1    0    0  502  501  0.00000000000E+00  0.00000000000E+00  0.69888019006E+03  0.69888019006E+03  0.00000000000E+00 0.  1.
         21   -1    0    0  501  502 -0.00000000000E+00 -0.00000000000E+00 -0.73691906365E+02  0.73691906365E+02  0.00000000000E+00 0.  1.
      99926    2    1    2    0    0  0.14210854715E-13 -0.71054273576E-14  0.62518828370E+03  0.77257209642E+03  0.45388022000E+03 0.  0.
      99925    2    3    3    0    0  0.96387680213E+02 -0.50447236517E+02  0.43861281587E+03  0.52298559466E+03  0.26324365407E+03 0.  0.
         25    1    4    4    0    0  0.14211826150E+02  0.29257345797E+01  0.19176255275E+03  0.22941429917E+03  0.12509000000E+03 0.  0.
         25    1    3    3    0    0 -0.96387680213E+02  0.50447236517E+02  0.18657546783E+03  0.24958650177E+03  0.12509000000E+03 0.  0.
         25    1    4    4    0    0  0.82175854062E+02 -0.53372971097E+02  0.24685026311E+03  0.29357129549E+03  0.12509000000E+03 0.  0.
<mgrwt>
<rscale>  2 0.45388022E+03</rscale>
<asrwt>0</asrwt>
<pdfrwt beam="1">  1       21 0.10277649E+00 0.45388022E+03</pdfrwt>
<pdfrwt beam="2">  1       21 0.10837045E-01 0.45388022E+03</pdfrwt>
<totfact> 0.49554223E+04</totfact>
</mgrwt>
</event>
<event>
 7    0  0.4712189E-002  0.4530374E+03  0.7546771E-02  0.1026820E+00
         21   -1    0    0  502  501  0.00000000000E+00  0.00000000000E+00  0.14384852084E+04  0.14384852084E+04  0.00000000000E+00 0. -1.
         21   -1    0    0  501  502 -0.00000000000E+00 -0.00000000000E+00 -0.35669973842E+02  0.35669973842E+02  0.00000000000E+00 0. -1.
      99926    2    1    2    0    0  0.00000000000E+00  0.00000000000E+00  0.14028152346E+04  0.14741551822E+04  0.45303743666E+03 0.  0.
      99925    2    3    3    0    0 -0.51771781849E+02 -0.79159700999E+02  0.69355654584E+03  0.74776549944E+03  0.26303228740E+03 0.  0.
         25    1    4    4    0    0 -0.49777173763E+02 -0.73820561246E+02  0.35438004663E+03  0.38621233517E+03  0.12509000000E+03 0.  0.
         25    1    4    4    0    0 -0.19946080858E+01 -0.53391397527E+01  0.33917649921E+03  0.36155316426E+03  0.12509000000E+03 0.  0.
         25    1    3    3    0    0  0.51771781849E+02  0.79159700999E+02  0.70925868872E+03  0.72638968280E+03  0.12509000000E+03 0.  0.
<mgrwt>
<rscale>  2 0.45303744E+03</rscale>
<asrwt>0</asrwt>
<pdfrwt beam="1">  1       21 0.21154190E+00 0.45303744E+03</pdfrwt>
<pdfrwt beam="2">  1       21 0.52455854E-02 0.45303744E+03</pdfrwt>
<totfact> 0.24795569E+04</totfact>
</mgrwt>
</event>
<event>
 7    0  0.4712189E-002  0.4534082E+03  0.7546771E-02  0.1026711E+00
         21   -1    0    0  502  501  0.00000000000E+00  0.00000000000E+00  0.21231598482E+03  0.21231598482E+03  0.00000000000E+00 0.  1.
         21   -1    0    0  501  502 -0.00000000000E+00 -0.00000000000E+00 -0.24206728731E+03  0.24206728731E+03  0.00000000000E+00 0.  1.
      99926    2    1    2    0    0  0.00000000000E+00 -0.71054273576E-14 -0.29751302496E+02  0.45438327213E+03  0.45340822444E+03 0.  0.
      99925    2    3    3    0    0  0.85166360629E+02 -0.48110432517E+02  0.35396902657E+02  0.28274493307E+03  0.26291411860E+03 0.  0.
         25    1    3    3    0    0 -0.85166360629E+02  0.48110432517E+02 -0.65148205153E+02  0.17163833906E+03  0.12509000000E+03 0.  0.
         25    1    4    4    0    0  0.82741952377E+02 -0.12829530268E+02  0.19341105770E+02  0.15176433706E+03  0.12509000000E+03 0.  0.
         25    1    4    4    0    0  0.24244082517E+01 -0.35280902249E+02  0.16055796888E+02  0.13098059602E+03  0.12509000000E+03 0.  0.
<mgrwt>
<rscale>  2 0.45340822E+03</rscale>
<asrwt>0</asrwt>
<pdfrwt beam="1">  1       21 0.31222939E-01 0.45340822E+03</pdfrwt>
<pdfrwt beam="2">  1       21 0.35598130E-01 0.45340822E+03</pdfrwt>
<totfact> 0.69469138E+04</totfact>
</mgrwt>
</event>
<event>
 7    0  0.4712189E-002  0.4556765E+03  0.7546771E-02  0.1026043E+00
         21   -1    0    0  502  501  0.00000000000E+00  0.00000000000E+00  0.29167802737E+03  0.29167802737E+03  0.00000000000E+00 0.  1.
         21   -1    0    0  501  502 -0.00000000000E+00 -0.00000000000E+00 -0.17797116771E+03  0.17797116771E+03  0.00000000000E+00 0.  1.
      99926    2    1    2    0    0  0.00000000000E+00 -0.35527136788E-14  0.11370685966E+03  0.46964919508E+03  0.45567654812E+03 0.  0.
      99925    2    3    3    0    0  0.11099854295E+03 -0.22873779373E+02  0.81919259061E+02  0.29788818096E+03  0.26302607671E+03 0.  0.
         25    1    3    3    0    0 -0.11099854295E+03  0.22873779373E+02  0.31787600603E+02  0.17176101412E+03  0.12509000000E+03 0.  0.
         25    1    4    4    0    0  0.52122427890E+02 -0.30561802431E+02  0.39406348042E+01  0.13897412694E+03  0.12509000000E+03 0.  0.
         25    1    4    4    0    0  0.58876115057E+02  0.76880230575E+01  0.77978624257E+02  0.15891405402E+03  0.12509000000E+03 0.  0.
<mgrwt>
<rscale>  2 0.45567655E+03</rscale>
<asrwt>0</asrwt>
<pdfrwt beam="1">  1       21 0.42893827E-01 0.45567655E+03</pdfrwt>
<pdfrwt beam="2">  1       21 0.26172231E-01 0.45567655E+03</pdfrwt>
<totfact> 0.67101001E+04</totfact>
</mgrwt>
</event>
<event>
 7    0  0.4712189E-002  0.4976372E+03  0.7546771E-02  0.1014397E+00
         21   -1    0    0  502  501  0.00000000000E+00  0.00000000000E+00  0.26133734407E+02  0.26133734407E+02  0.00000000000E+00 0. -1.
         21   -1    0    0  501  502 -0.00000000000E+00 -0.00000000000E+00 -0.23689951558E+04  0.23689951558E+04  0.00000000000E+00 0. -1.
      99926    2    1    2    0    0 -0.14210854715E-13  0.00000000000E+00 -0.23428614214E+04  0.23951288902E+04  0.49763717792E+03 0.  0.
      99925    2    3    3    0    0  0.76274032915E+02  0.33455830422E+02 -0.20229267933E+04  0.20416565503E+04  0.26304303424E+03 0.  0.
         25    1    4    4    0    0  0.24338230133E+02  0.14642794238E+02 -0.12655589795E+04  0.12720431594E+04  0.12509000000E+03 0.  0.
         25    1    4    4    0    0  0.51935802782E+02  0.18813036184E+02 -0.75736781382E+03  0.76961339090E+03  0.12509000000E+03 0.  0.
         25    1    3    3    0    0 -0.76274032915E+02 -0.33455830422E+02 -0.31993462806E+03  0.35347233982E+03  0.12509000000E+03 0.  0.
<mgrwt>
<rscale>  2 0.49763718E+03</rscale>
<asrwt>0</asrwt>
<pdfrwt beam="1">  1       21 0.38431954E-02 0.49763718E+03</pdfrwt>
<pdfrwt beam="2">  1       21 0.34838171E+00 0.49763718E+03</pdfrwt>
<totfact> 0.60130069E+03</totfact>
</mgrwt>
</event>
<event>
 7    0  0.4712189E-002  0.4545175E+03  0.7546771E-02  0.1026383E+00
         21   -1    0    0  502  501  0.00000000000E+00  0.00000000000E+00  0.58039904107E+03  0.58039904107E+03  0.00000000000E+00 0. -1.
         21   -1    0    0  501  502 -0.00000000000E+00 -0.00000000000E+00 -0.88984548071E+02  0.88984548071E+02  0.00000000000E+00 0. -1.
      99926    2    1    2    0    0  0.00000000000E+00  0.71054273576E-14  0.49141449300E+03  0.66938358914E+03  0.45451753045E+03 0.  0.
      99925    2    3    3    0    0  0.10551662026E+03  0.39759576100E+02  0.30946130551E+03  0.42145405968E+03  0.26294988832E+03 0.  0.
         25    1    4    4    0    0  0.47553153003E+02 -0.14848923887E+02  0.17869931960E+03  0.22374706216E+03  0.12509000000E+03 0.  0.
         25    1    4    4    0    0  0.57963467257E+02  0.54608499987E+02  0.13076198591E+03  0.19770699751E+03  0.12509000000E+03 0.  0.
         25    1    3    3    0    0 -0.10551662026E+03 -0.39759576100E+02  0.18195318749E+03  0.24792952946E+03  0.12509000000E+03 0.  0.
<mgrwt>
<rscale>  2 0.45451753E+03</rscale>
<asrwt>0</asrwt>
<pdfrwt beam="1">  1       21 0.85352798E-01 0.45451753E+03</pdfrwt>
<pdfrwt beam="2">  1       21 0.13085963E-01 0.45451753E+03</pdfrwt>
<totfact> 0.54805146E+04</totfact>
</mgrwt>
</event>
<event>
 7    0  0.4712189E-002  0.4608629E+03  0.7546771E-02  0.1024531E+00
         21   -1    0    0  502  501  0.00000000000E+00  0.00000000000E+00  0.52291360159E+02  0.52291360159E+02  0.00000000000E+00 0. -1.
         21   -1    0    0  501  502 -0.00000000000E+00 -0.00000000000E+00 -0.10154383540E+04  0.10154383540E+04  0.00000000000E+00 0. -1.
      99926    2    1    2    0    0  0.00000000000E+00  0.00000000000E+00 -0.96314699389E+03  0.10677297142E+04  0.46086289801E+03 0.  0.
      99925    2    3    3    0    0  0.10640526259E+03 -0.49891178991E+02 -0.56327907985E+03  0.63258253631E+03  0.26280436413E+03 0.  0.
         25    1    4    4    0    0  0.71715991861E+02 -0.21311887908E+02 -0.37307375214E+03  0.40053578203E+03  0.12509000000E+03 0.  0.
         25    1    3    3    0    0 -0.10640526259E+03  0.49891178991E+02 -0.39986791404E+03  0.43514717789E+03  0.12509000000E+03 0.  0.
         25    1    4    4    0    0  0.34689270734E+02 -0.28579291083E+02 -0.19020532771E+03  0.23204675428E+03  0.12509000000E+03 0.  0.
<mgrwt>
<rscale>  2 0.46086290E+03</rscale>
<asrwt>0</asrwt>
<pdfrwt beam="1">  1       21 0.76899049E-02 0.46086290E+03</pdfrwt>
<pdfrwt beam="2">  1       21 0.14932919E+00 0.46086290E+03</pdfrwt>
<totfact> 0.35004291E+04</totfact>
</mgrwt>
</event>
<event>
 7    0  0.4712189E-002  0.4543173E+03  0.7546771E-02  0.1026442E+00
         21   -1    0    0  502  501  0.00000000000E+00  0.00000000000E+00  0.60320235727E+02  0.60320235727E+02  0.00000000000E+00 0.  1.
         21   -1    0    0  501  502 -0.00000000000E+00 -0.00000000000E+00 -0.85545181819E+03  0.85545181819E+03  0.00000000000E+00 0.  1.
      99926    2    1    2    0    0  0.00000000000E+00  0.00000000000E+00 -0.79513158246E+03  0.91577205391E+03  0.45431731345E+03 0.  0.
      99925    2    3    3    0    0 -0.10065466474E+03  0.50133926731E+02 -0.48369052953E+03  0.56181187297E+03  0.26273804466E+03 0.  0.
         25    1    3    3    0    0  0.10065466474E+03 -0.50133926731E+02 -0.31144105293E+03  0.35396018094E+03  0.12509000000E+03 0.  0.
         25    1    4    4    0    0 -0.45330853465E+02  0.65215699143E+02 -0.25306139743E+03  0.29324998323E+03  0.12509000000E+03 0.  0.
         25    1    4    4    0    0 -0.55323811271E+02 -0.15081772412E+02 -0.23062913210E+03  0.26856188975E+03  0.12509000000E+03 0.  0.
<mgrwt>
<rscale>  2 0.45431731E+03</rscale>
<asrwt>0</asrwt>
<pdfrwt beam="1">  1       21 0.88706230E-02 0.45431731E+03</pdfrwt>
<pdfrwt beam="2">  1       21 0.12580174E+00 0.45431731E+03</pdfrwt>
<totfact> 0.42786925E+04</totfact>
</mgrwt>
</event>
<event>
 7    0  0.4712189E-002  0.4611887E+03  0.7546771E-02  0.1024437E+00
         21   -1    0    0  502  501  0.00000000000E+00  0.00000000000E+00  0.76552752214E+03  0.76552752214E+03  0.00000000000E+00 0.  1.
         21   -1    0    0  501  502 -0.00000000000E+00 -0.00000000000E+00 -0.69460275254E+02  0.69460275254E+02  0.00000000000E+00 0.  1.
      99926    2    1    2    0    0  0.00000000000E+00  0.00000000000E+00  0.69606724689E+03  0.83498779740E+03  0.46118869198E+03 0.  0.
      99925    2    3    3    0    0 -0.65387216788E+02  0.94047459388E+02  0.49334451184E+03  0.57066899719E+03  0.26297126127E+03 0.  0.
         25    1    4    4    0    0 -0.38525203813E+02  0.37319476640E+02  0.32095592450E+03  0.34862178394E+03  0.12509000000E+03 0.  0.
         25    1    4    4    0    0 -0.26862012975E+02  0.56727982748E+02  0.17238858734E+03  0.22204721326E+03  0.12509000000E+03 0.  0.
         25    1    3    3    0    0  0.65387216788E+02 -0.94047459388E+02  0.20272273504E+03  0.26431880020E+03  0.12509000000E+03 0.  0.
<mgrwt>
<rscale>  2 0.46118869E+03</rscale>
<asrwt>0</asrwt>
<pdfrwt beam="1">  1       21 0.11257757E+00 0.46118869E+03</pdfrwt>
<pdfrwt beam="2">  1       21 0.10214747E-01 0.46118869E+03</pdfrwt>
<totfact> 0.43945610E+04</totfact>
</mgrwt>
</event>
<event>
 7    0  0.4712189E-002  0.4531287E+03  0.7546771E-02  0.1026793E+00
         21   -1    0    0  502  501  0.00000000000E+00  0.00000000000E+00  0.13826469496E+04  0.13826469496E+04  0.00000000000E+00 0. -1.
         21   -1    0    0  501  502 -0.00000000000E+00 -0.00000000000E+00 -0.37125455230E+02  0.37125455230E+02  0.00000000000E+00 0. -1.
      99926    2    1    2    0    0  0.88817841970E-15 -0.14210854715E-13  0.13455214944E+04  0.14197724049E+04  0.45312866794E+03 0.  0.
      99925    2    3    3    0    0  0.67832749210E+01 -0.98576908199E+02  0.68663328310E+03  0.74187521300E+03  0.26296415449E+03 0.  0.
         25    1    4    4    0    0 -0.18416074758E+01 -0.83071415188E+01  0.33950773573E+03  0.36191906669E+03  0.12509000000E+03 0.  0.
         25    1    4    4    0    0  0.86248823969E+01 -0.90269766680E+02  0.34712554738E+03  0.37995614630E+03  0.12509000000E+03 0.  0.
         25    1    3    3    0    0 -0.67832749210E+01  0.98576908199E+02  0.65888821131E+03  0.67789719188E+03  0.12509000000E+03 0.  0.
<mgrwt>
<rscale>  2 0.45312867E+03</rscale>
<asrwt>0</asrwt>
<pdfrwt beam="1">  1       21 0.20333040E+00 0.45312867E+03</pdfrwt>
<pdfrwt beam="2">  1       21 0.54596267E-02 0.45312867E+03</pdfrwt>
<totfact> 0.26188603E+04</totfact>
</mgrwt>
</event>
<event>
 7    0  0.4712189E-002  0.4555652E+03  0.7546771E-02  0.1026075E+00
         21   -1    0    0  502  501  0.00000000000E+00  0.00000000000E+00  0.24605739734E+03  0.24605739734E+03  0.00000000000E+00 0.  1.
         21   -1    0    0  501  502 -0.00000000000E+00 -0.00000000000E+00 -0.21086505623E+03  0.21086505623E+03  0.00000000000E+00 0.  1.
      99926    2    1    2    0    0  0.14210854715E-13  0.00000000000E+00  0.35192341109E+02  0.45692245357E+03  0.45556517394E+03 0.  0.
      99925    2    3    3    0    0 -0.96436038611E+02  0.50710483190E+02 -0.10026710197E+02  0.28498137835E+03  0.26313948476E+03 0.  0.
         25    1    4    4    0    0 -0.66982298287E+02 -0.64348601776E+01 -0.22393853954E+02  0.14379509207E+03  0.12509000000E+03 0.  0.
         25    1    3    3    0    0  0.96436038611E+02 -0.50710483190E+02  0.45219051306E+02  0.17194107522E+03  0.12509000000E+03 0.  0.
         25    1    4    4    0    0 -0.29453740324E+02  0.57145343367E+02  0.12367143757E+02  0.14118628628E+03  0.12509000000E+03 0.  0.
<mgrwt>
<rscale>  2 0.45556517E+03</rscale>
<asrwt>0</asrwt>
<pdfrwt beam="1">  1       21 0.36184912E-01 0.45556517E+03</pdfrwt>
<pdfrwt beam="2">  1       21 0.31009567E-01 0.45556517E+03</pdfrwt>
<totfact> 0.68097623E+04</totfact>
</mgrwt>
</event>
<event>
 7    0  0.4712189E-002  0.4515374E+03  0.7546771E-02  0.1027265E+00
         21   -1    0    0  502  501  0.00000000000E+00  0.00000000000E+00  0.24499190040E+03  0.24499190040E+03  0.00000000000E+00 0.  1.
         21   -1    0    0  501  502 -0.00000000000E+00 -0.00000000000E+00 -0.20805388593E+03  0.20805388593E+03  0.00000000000E+00 0.  1.
      99926    2    1    2    0    0  0.00000000000E+00  0.00000000000E+00  0.36938014476E+02  0.45304578633E+03  0.45153744872E+03 0.  0.
      99925    2    3    3    0    0  0.39829125800E+02  0.18535060325E+02  0.12424888566E+03  0.29429880510E+03  0.26314272434E+03 0.  0.
         25    1    4    4    0    0  0.17268144566E+02  0.44415434722E+02  0.40327322414E+02  0.13980243450E+03  0.12509000000E+03 0.  0.
         25    1    3    3    0    0 -0.39829125800E+02 -0.18535060325E+02 -0.87310871182E+02  0.15874698123E+03  0.12509000000E+03 0.  0.
         25    1    4    4    0    0  0.22560981234E+02 -0.25880374397E+02  0.83921563243E+02  0.15449637061E+03  0.12509000000E+03 0.  0.
<mgrwt>
<rscale>  2 0.45153745E+03</rscale>
<asrwt>0</asrwt>
<pdfrwt beam="1">  1       21 0.36028221E-01 0.45153745E+03</pdfrwt>
<pdfrwt beam="2">  1       21 0.30596160E-01 0.45153745E+03</pdfrwt>
<totfact> 0.70620147E+04</totfact>
</mgrwt>
</event>
<event>
 7    0  0.4712189E-002  0.4521602E+03  0.7546771E-02  0.1027080E+00
         21   -1    0    0  502  501  0.00000000000E+00  0.00000000000E+00  0.36932865277E+03  0.36932865277E+03  0.00000000000E+00 0. -1.
         21   -1    0    0  501  502 -0.00000000000E+00 -0.00000000000E+00 -0.13839220944E+03  0.13839220944E+03  0.00000000000E+00 0. -1.
      99926    2    1    2    0    0  0.71054273576E-14 -0.17763568394E-14  0.23093644333E+03  0.50772086221E+03  0.45216018518E+03 0.  0.
      99925    2    3    3    0    0  0.63786153975E+02 -0.14665010958E+02  0.45935560131E+02  0.27500521840E+03  0.26312365625E+03 0.  0.
         25    1    4    4    0    0 -0.16133023332E+01 -0.88399020913E+01  0.46426074842E+02  0.13372970926E+03  0.12509000000E+03 0.  0.
         25    1    4    4    0    0  0.65399456308E+02 -0.58251088667E+01 -0.49051471084E+00  0.14127550914E+03  0.12509000000E+03 0.  0.
         25    1    3    3    0    0 -0.63786153975E+02  0.14665010958E+02  0.18500088320E+03  0.23271564380E+03  0.12509000000E+03 0.  0.
<mgrwt>
<rscale>  2 0.45216019E+03</rscale>
<asrwt>0</asrwt>
<pdfrwt beam="1">  1       21 0.54313037E-01 0.45216019E+03</pdfrwt>
<pdfrwt beam="2">  1       21 0.20351796E-01 0.45216019E+03</pdfrwt>
<totfact> 0.66211313E+04</totfact>
</mgrwt>
</event>
<event>
 7    0  0.4712189E-002  0.4533592E+03  0.7546771E-02  0.1026725E+00
         21   -1    0    0  502  501  0.00000000000E+00  0.00000000000E+00  0.83506593190E+03  0.83506593190E+03  0.00000000000E+00 0. -1.
         21   -1    0    0  501  502 -0.00000000000E+00 -0.00000000000E+00 -0.61532435248E+02  0.61532435248E+02  0.00000000000E+00 0. -1.
      99926    2    1    2    0    0 -0.44408920985E-15  0.14210854715E-13  0.77353349665E+03  0.89659836715E+03  0.45335919703E+03 0.  0.
      99925    2    3    3    0    0 -0.16467383394E+01 -0.11153883908E+03  0.49633142179E+03  0.57266608598E+03  0.26297897523E+03 0.  0.
         25    1    4    4    0    0 -0.16185060756E+02 -0.71284210840E+02  0.18931118168E+03  0.23838965271E+03  0.12509000000E+03 0.  0.
         25    1    4    4    0    0  0.14538322416E+02 -0.40254628237E+02  0.30702024010E+03  0.33427643328E+03  0.12509000000E+03 0.  0.
         25    1    3    3    0    0  0.16467383394E+01  0.11153883908E+03  0.27720207487E+03  0.32393228116E+03  0.12509000000E+03 0.  0.
<mgrwt>
<rscale>  2 0.45335920E+03</rscale>
<asrwt>0</asrwt>
<pdfrwt beam="1">  1       21 0.12280381E+00 0.45335920E+03</pdfrwt>
<pdfrwt beam="2">  1       21 0.90488881E-02 0.45335920E+03</pdfrwt>
<totfact> 0.43942917E+04</totfact>
</mgrwt>
</event>
<event>
 7    0  0.4712189E-002  0.4539514E+03  0.7546771E-02  0.1026550E+00
         21   -1    0    0  502  501  0.00000000000E+00  0.00000000000E+00  0.18954728508E+03  0.18954728508E+03  0.00000000000E+00 0.  1.
         21   -1    0    0  501  502 -0.00000000000E+00 -0.00000000000E+00 -0.27179479115E+03  0.27179479115E+03  0.00000000000E+00 0.  1.
      99926    2    1    2    0    0  0.00000000000E+00  0.35527136788E-14 -0.82247506078E+02  0.46134207623E+03  0.45395138401E+03 0.  0.
      99925    2    3    3    0    0 -0.61814971987E+02 -0.31431985101E+02 -0.14247340583E+03  0.30615274815E+03  0.26195757935E+03 0.  0.
         25    1    3    3    0    0  0.61814971987E+02  0.31431985101E+02  0.60225899752E+02  0.15518932808E+03  0.12509000000E+03 0.  0.
         25    1    4    4    0    0 -0.21657727034E+02  0.47280055758E+01 -0.10504279281E+03  0.16484206865E+03  0.12509000000E+03 0.  0.
         25    1    4    4    0    0 -0.40157244952E+02 -0.36159990677E+02 -0.37430613020E+02  0.14131067949E+03  0.12509000000E+03 0.  0.
<mgrwt>
<rscale>  2 0.45395138E+03</rscale>
<asrwt>0</asrwt>
<pdfrwt beam="1">  1       21 0.27874601E-01 0.45395138E+03</pdfrwt>
<pdfrwt beam="2">  1       21 0.39969822E-01 0.45395138E+03</pdfrwt>
<totfact> 0.68653019E+04</totfact>
</mgrwt>
</event>
<event>
 7    0  0.4712189E-002  0.4532150E+03  0.7546771E-02  0.1026768E+00
         21   -1    0    0  502  501  0.00000000000E+00  0.00000000000E+00  0.78732399321E+03  0.78732399321E+03  0.00000000000E+00 0. -1.
         21   -1    0    0  501  502 -0.00000000000E+00 -0.00000000000E+00 -0.65222138574E+02  0.65222138574E+02  0.00000000000E+00 0. -1.
      99926    2    1    2    0    0  0.00000000000E+00  0.00000000000E+00  0.72210185463E+03  0.85254613178E+03  0.45321498028E+03 0.  0.
      99925    2    3    3    0    0 -0.96893306999E+02  0.32043199652E+02  0.53947702974E+03  0.60879541004E+03  0.26302339454E+03 0.  0.
         25    1    3    3    0    0  0.96893306999E+02 -0.32043199652E+02  0.18262482489E+03  0.24375072175E+03  0.12509000000E+03 0.  0.
         25    1    4    4    0    0 -0.51538362468E+02 -0.16986629774E+02  0.31547910370E+03  0.34368491583E+03  0.12509000000E+03 0.  0.
         25    1    4    4    0    0 -0.45354944531E+02  0.49029829426E+02  0.22399792604E+03  0.26511049420E+03  0.12509000000E+03 0.  0.
<mgrwt>
<rscale>  2 0.45321498E+03</rscale>
<asrwt>0</asrwt>
<pdfrwt beam="1">  1       21 0.11578293E+00 0.45321498E+03</pdfrwt>
<pdfrwt beam="2">  1       21 0.95914914E-02 0.45321498E+03</pdfrwt>
<totfact> 0.45965943E+04</totfact>
</mgrwt>
</event>
<event>
 7    0  0.4712189E-002  0.4563575E+03  0.7546771E-02  0.1025843E+00
         21   -1    0    0  502  501  0.00000000000E+00  0.00000000000E+00  0.14573594300E+04  0.14573594300E+04  0.00000000000E+00 0. -1.
         21   -1    0    0  501  502 -0.00000000000E+00 -0.00000000000E+00 -0.35725950266E+02  0.35725950266E+02  0.00000000000E+00 0. -1.
      99926    2    1    2    0    0  0.00000000000E+00  0.00000000000E+00  0.14216334797E+04  0.14930853802E+04  0.45635753753E+03 0.  0.
      99925    2    3    3    0    0  0.95712168712E+02 -0.16897834883E+02  0.69549690997E+03  0.74987061849E+03  0.26295177627E+03 0.  0.
         25    1    4    4    0    0  0.75218911050E+02  0.22292490127E+02  0.36861296503E+03  0.39708672325E+03  0.12509000000E+03 0.  0.
         25    1    3    3    0    0 -0.95712168712E+02  0.16897834883E+02  0.72613656975E+03  0.74321476175E+03  0.12509000000E+03 0.  0.
         25    1    4    4    0    0  0.20493257662E+02 -0.39190325010E+02  0.32688394494E+03  0.35278389524E+03  0.12509000000E+03 0.  0.
<mgrwt>
<rscale>  2 0.45635754E+03</rscale>
<asrwt>0</asrwt>
<pdfrwt beam="1">  1       21 0.21431752E+00 0.45635754E+03</pdfrwt>
<pdfrwt beam="2">  1       21 0.52538172E-02 0.45635754E+03</pdfrwt>
<totfact> 0.23698229E+04</totfact>
</mgrwt>
</event>
<event>
 7    0  0.4712189E-002  0.4622562E+03  0.7546771E-02  0.1024129E+00
         21   -1    0    0  502  501  0.00000000000E+00  0.00000000000E+00  0.79701255823E+03  0.79701255823E+03  0.00000000000E+00 0. -1.
         21   -1    0    0  501  502 -0.00000000000E+00 -0.00000000000E+00 -0.67025551576E+02  0.67025551576E+02  0.00000000000E+00 0. -1.
      99926    2    1    2    0    0  0.00000000000E+00 -0.17763568394E-14  0.72998700666E+03  0.86403810981E+03  0.46225623340E+03 0.  0.
      99925    2    3    3    0    0 -0.27481795189E+02 -0.11182718334E+02  0.23922307300E+03  0.35671469330E+03  0.26293990094E+03 0.  0.
         25    1    4    4    0    0 -0.34732459277E+02  0.18203514327E+02  0.86799772221E+02  0.15722410826E+03  0.12509000000E+03 0.  0.
         25    1    3    3    0    0  0.27481795189E+02  0.11182718334E+02  0.49076393366E+03  0.50732341651E+03  0.12509000000E+03 0.  0.
         25    1    4    4    0    0  0.72506640872E+01 -0.29386232661E+02  0.15242330078E+03  0.19949058504E+03  0.12509000000E+03 0.  0.
<mgrwt>
<rscale>  2 0.46225623E+03</rscale>
<asrwt>0</asrwt>
<pdfrwt beam="1">  1       21 0.11720772E+00 0.46225623E+03</pdfrwt>
<pdfrwt beam="2">  1       21 0.98566992E-02 0.46225623E+03</pdfrwt>
<totfact> 0.42355216E+04</totfact>
</mgrwt>
</event>
<event>
 6    0  0.4712189E-002  0.4572891E+03  0.7546771E-02  0.1025570E+00
         21   -1    0    0  502  501  0.00000000000E+00  0.00000000000E+00  0.59047476608E+03  0.59047476608E+03  0.00000000000E+00 0. -1.
         21   -1    0    0  501  502 -0.00000000000E+00 -0.00000000000E+00 -0.88536089351E+02  0.88536089351E+02  0.00000000000E+00 0. -1.
      99926    2    1    2    0    0  0.00000000000E+00  0.00000000000E+00  0.50193867673E+03  0.67901085543E+03  0.45728908427E+03 0.  0.
         25    1    3    3    0    0 -0.82924024987E+02 -0.33524317777E+02  0.28469161825E+03  0.32356931160E+03  0.12509000000E+03 0.  0.
         25    1    3    3    0    0  0.79664857884E+02  0.18407038361E+02  0.81575989118E+02  0.17025703728E+03  0.12509000000E+03 0.  0.
         25    1    3    3    0    0  0.32591671028E+01  0.15117279416E+02  0.13567106935E+03  0.18518450655E+03  0.12509000000E+03 0.  0.
<mgrwt>
<rscale>  2 0.45728908E+03</rscale>
<asrwt>0</asrwt>
<pdfrwt beam="1">  1       21 0.86834522E-01 0.45728908E+03</pdfrwt>
<pdfrwt beam="2">  1       21 0.13020013E-01 0.45728908E+03</pdfrwt>
<totfact> 0.53093815E+04</totfact>
</mgrwt>
</event>
<event>
 7    0  0.4712189E-002  0.4574161E+03  0.7546771E-02  0.1025533E+00
         21   -1    0    0  502  501  0.00000000000E+00  0.00000000000E+00  0.48817460075E+02  0.48817460075E+02  0.00000000000E+00 0. -1.
         21   -1    0    0  501  502 -0.00000000000E+00 -0.00000000000E+00 -0.10714888416E+04  0.10714888416E+04  0.00000000000E+00 0. -1.
      99926    2    1    2    0    0 -0.44408920985E-15  0.00000000000E+00 -0.10226713816E+04  0.11203063017E+04  0.45741606333E+03 0.  0.
      99925    2    3    3    0    0 -0.25346432009E+01 -0.33708204958E+02 -0.37175590969E+03  0.45661877951E+03  0.26297449671E+03 0.  0.
         25    1    4    4    0    0  0.23446301806E+01 -0.56886478950E+02 -0.20530110543E+03  0.24705792999E+03  0.12509000000E+03 0.  0.
         25    1    4    4    0    0 -0.48792733815E+01  0.23178273992E+02 -0.16645480426E+03  0.20956084953E+03  0.12509000000E+03 0.  0.
         25    1    3    3    0    0  0.25346432009E+01  0.33708204958E+02 -0.65091547189E+03  0.66368752221E+03  0.12509000000E+03 0.  0.
<mgrwt>
<rscale>  2 0.45741606E+03</rscale>
<asrwt>0</asrwt>
<pdfrwt beam="1">  1       21 0.71790386E-02 0.45741606E+03</pdfrwt>
<pdfrwt beam="2">  1       21 0.15757188E+00 0.45741606E+03</pdfrwt>
<totfact> 0.34141726E+04</totfact>
</mgrwt>
</event>
<event>
 7    0  0.4712189E-002  0.4565182E+03  0.7546771E-02  0.1025796E+00
         21   -1    0    0  502  501  0.00000000000E+00  0.00000000000E+00  0.23483580491E+03  0.23483580491E+03  0.00000000000E+00 0. -1.
         21   -1    0    0  501  502 -0.00000000000E+00 -0.00000000000E+00 -0.22186657811E+03  0.22186657811E+03  0.00000000000E+00 0. -1.
      99926    2    1    2    0    0  0.00000000000E+00  0.00000000000E+00  0.12969226792E+02  0.45670238302E+03  0.45651819878E+03 0.  0.
      99925    2    3    3    0    0 -0.10045521237E+03  0.51260547474E+02 -0.96259074658E+01  0.28677021534E+03  0.26348739039E+03 0.  0.
         25    1    4    4    0    0 -0.49333324697E+02  0.60042651369E+02 -0.28644526398E+02  0.15002304457E+03  0.12509000000E+03 0.  0.
         25    1    4    4    0    0 -0.51121887677E+02 -0.87821038951E+01  0.19018618932E+02  0.13674717077E+03  0.12509000000E+03 0.  0.
         25    1    3    3    0    0  0.10045521237E+03 -0.51260547474E+02  0.22595134258E+02  0.16993216768E+03  0.12509000000E+03 0.  0.
<mgrwt>
<rscale>  2 0.45651820E+03</rscale>
<asrwt>0</asrwt>
<pdfrwt beam="1">  1       21 0.34534677E-01 0.45651820E+03</pdfrwt>
<pdfrwt beam="2">  1       21 0.32627438E-01 0.45651820E+03</pdfrwt>
<totfact> 0.67598684E+04</totfact>
</mgrwt>
</event>
<event>
 7    0  0.4712189E-002  0.4481109E+03  0.7546771E-02  0.1028287E+00
         21   -1    0    0  502  501  0.00000000000E+00  0.00000000000E+00  0.73520204052E+03  0.73520204052E+03  0.00000000000E+00 0. -1.
         21   -1    0    0  501  502 -0.00000000000E+00 -0.00000000000E+00 -0.68281690040E+02  0.68281690040E+02  0.00000000000E+00 0. -1.
      99926    2    1    2    0    0 -0.71054273576E-14 -0.71054273576E-14  0.66692035048E+03  0.80348373056E+03  0.44811086953E+03 0.  0.
      99925    2    3    3    0    0  0.35446304619E+02 -0.43407768493E+02  0.25982489478E+03  0.37393176278E+03  0.26301200047E+03 0.  0.
         25    1    3    3    0    0 -0.35446304619E+02  0.43407768493E+02  0.40709545569E+03  0.42955196778E+03  0.12509000000E+03 0.  0.
         25    1    4    4    0    0  0.53314359556E+02 -0.18214403042E+02  0.10663659439E+03  0.17376149394E+03  0.12509000000E+03 0.  0.
         25    1    4    4    0    0 -0.17868054937E+02 -0.25193365451E+02  0.15318830039E+03  0.20017026884E+03  0.12509000000E+03 0.  0.
<mgrwt>
<rscale>  2 0.44811087E+03</rscale>
<asrwt>0</asrwt>
<pdfrwt beam="1">  1       21 0.10811794E+00 0.44811087E+03</pdfrwt>
<pdfrwt beam="2">  1       21 0.10041425E-01 0.44811087E+03</pdfrwt>
<totfact> 0.50259367E+04</totfact>
</mgrwt>
</event>
<event>
 7    0  0.4712189E-002  0.4565081E+03  0.7546771E-02  0.1025799E+00
         21   -1    0    0  502  501  0.00000000000E+00  0.00000000000E+00  0.61610500189E+03  0.61610500189E+03  0.00000000000E+00 0.  1.
         21   -1    0    0  501  502 -0.00000000000E+00 -0.00000000000E+00 -0.84563357576E+02  0.84563357576E+02  0.00000000000E+00 0.  1.
      99926    2    1    2    0    0 -0.35527136788E-14  0.14210854715E-13  0.53154164431E+03  0.70066835947E+03  0.45650808352E+03 0.  0.
      99925    2    3    3    0    0 -0.23577396241E+02  0.10399200640E+03  0.26919425089E+03  0.39108170932E+03  0.26288614959E+03 0.  0.
         25    1    3    3    0    0  0.23577396241E+02 -0.10399200640E+03  0.26234739343E+03  0.30958665014E+03  0.12509000000E+03 0.  0.
         25    1    4    4    0    0 -0.37557581126E+02  0.22180230954E+02  0.14336488061E+03  0.19520125931E+03  0.12509000000E+03 0.  0.
         25    1    4    4    0    0  0.13980184885E+02  0.81811775450E+02  0.12582937028E+03  0.19588045001E+03  0.12509000000E+03 0.  0.
<mgrwt>
<rscale>  2 0.45650808E+03</rscale>
<asrwt>0</asrwt>
<pdfrwt beam="1">  1       21 0.90603674E-01 0.45650808E+03</pdfrwt>
<pdfrwt beam="2">  1       21 0.12435788E-01 0.45650808E+03</pdfrwt>
<totfact> 0.52243879E+04</totfact>
</mgrwt>
</event>
<event>
 7    0  0.4712189E-002  0.4513861E+03  0.7546771E-02  0.1027309E+00
         21   -1    0    0  502  501  0.00000000000E+00  0.00000000000E+00  0.20828195093E+03  0.20828195093E+03  0.00000000000E+00 0.  1.
         21   -1    0    0  501  502 -0.00000000000E+00 -0.00000000000E+00 -0.24455964555E+03  0.24455964555E+03  0.00000000000E+00 0.  1.
      99926    2    1    2    0    0 -0.71054273576E-14  0.00000000000E+00 -0.36277694621E+02  0.45284159649E+03  0.45138613224E+03 0.  0.
      99925    2    3    3    0    0  0.39749420187E+02 -0.71946501376E+02  0.49952102104E+02  0.28010074605E+03  0.26306824204E+03 0.  0.
         25    1    4    4    0    0  0.30463977578E+02 -0.10166101262E+02  0.54566558680E+02  0.14020135866E+03  0.12509000000E+03 0.  0.
         25    1    3    3    0    0 -0.39749420187E+02  0.71946501376E+02 -0.86229796725E+02  0.17274085043E+03  0.12509000000E+03 0.  0.
         25    1    4    4    0    0  0.92854426092E+01 -0.61780400115E+02 -0.46144565757E+01  0.13989938739E+03  0.12509000000E+03 0.  0.
<mgrwt>
<rscale>  2 0.45138613E+03</rscale>
<asrwt>0</asrwt>
<pdfrwt beam="1">  1       21 0.30629699E-01 0.45138613E+03</pdfrwt>
<pdfrwt beam="2">  1       21 0.35964654E-01 0.45138613E+03</pdfrwt>
<totfact> 0.70721526E+04</totfact>
</mgrwt>
</event>
<event>
 7    0  0.4712189E-002  0.4575601E+03  0.7546771E-02  0.1025491E+00
         21   -1    0    0  502  501  0.00000000000E+00  0.00000000000E+00  0.24956961291E+03  0.24956961291E+03  0.00000000000E+00 0.  1.
         21   -1    0    0  501  502 -0.00000000000E+00 -0.00000000000E+00 -0.20972226370E+03  0.20972226370E+03  0.00000000000E+00 0.  1.
      99926    2    1    2    0    0  0.00000000000E+00  0.00000000000E+00  0.39847349211E+02  0.45929187662E+03  0.45756006894E+03 0.  0.
      99925    2    3    3    0    0 -0.84908292502E+02  0.72292500881E+02 -0.69103744363E+01  0.28531079535E+03  0.26252404242E+03 0.  0.
         25    1    3    3    0    0  0.84908292502E+02 -0.72292500881E+02  0.46757723647E+02  0.17398108127E+03  0.12509000000E+03 0.  0.
         25    1    4    4    0    0 -0.51261209568E+02  0.71367623424E+02 -0.23677629682E+02  0.15469061874E+03  0.12509000000E+03 0.  0.
         25    1    4    4    0    0 -0.33647082934E+02  0.92487745635E+00  0.16767255246E+02  0.13062017661E+03  0.12509000000E+03 0.  0.
<mgrwt>
<rscale>  2 0.45756007E+03</rscale>
<asrwt>0</asrwt>
<pdfrwt beam="1">  1       21 0.36701414E-01 0.45756007E+03</pdfrwt>
<pdfrwt beam="2">  1       21 0.30841509E-01 0.45756007E+03</pdfrwt>
<totfact> 0.66856458E+04</totfact>
</mgrwt>
</event>
<event>
 7    0  0.4712189E-002  0.4596091E+03  0.7546771E-02  0.1024895E+00
         21   -1    0    0  502  501  0.00000000000E+00  0.00000000000E+00  0.11654586642E+03  0.11654586642E+03  0.00000000000E+00 0. -1.
         21   -1    0    0  501  502 -0.00000000000E+00 -0.00000000000E+00 -0.45312739569E+03  0.45312739569E+03  0.00000000000E+00 0. -1.
      99926    2    1    2    0    0  0.35527136788E-14 -0.35527136788E-14 -0.33658152927E+03  0.56967326211E+03  0.45960907271E+03 0.  0.
      99925    2    3    3    0    0  0.24479713490E+02 -0.11689479741E+02 -0.35242028769E+03  0.44069933189E+03  0.26321083117E+03 0.  0.
         25    1    4    4    0    0 -0.34841073138E+00 -0.30427983227E+02 -0.12587246685E+03  0.18004824233E+03  0.12509000000E+03 0.  0.
         25    1    4    4    0    0  0.24828124222E+02  0.18738503485E+02 -0.22654782083E+03  0.26065108956E+03  0.12509000000E+03 0.  0.
         25    1    3    3    0    0 -0.24479713490E+02  0.11689479741E+02  0.15838758414E+02  0.12897393022E+03  0.12509000000E+03 0.  0.
<mgrwt>
<rscale>  2 0.45960907E+03</rscale>
<asrwt>0</asrwt>
<pdfrwt beam="1">  1       21 0.17139098E-01 0.45960907E+03</pdfrwt>
<pdfrwt beam="2">  1       21 0.66636383E-01 0.45960907E+03</pdfrwt>
<totfact> 0.58426058E+04</totfact>
</mgrwt>
</event>
<event>
 7    0  0.4712189E-002  0.4555247E+03  0.7546771E-02  0.1026087E+00
         21   -1    0    0  502  501  0.00000000000E+00  0.00000000000E+00  0.77359268558E+03  0.77359268558E+03  0.00000000000E+00 0.  1.
         21   -1    0    0  501  502 -0.00000000000E+00 -0.00000000000E+00 -0.67058156458E+02  0.67058156458E+02  0.00000000000E+00 0.  1.
      99926    2    1    2    0    0  0.00000000000E+00  0.00000000000E+00  0.70653452912E+03  0.84065084204E+03  0.45552474947E+03 0.  0.
      99925    2    3    3    0    0  0.86530189508E+02  0.47647520496E+02  0.54779950622E+03  0.61570179114E+03  0.26314755687E+03 0.  0.
         25    1    3    3    0    0 -0.86530189508E+02 -0.47647520496E+02  0.15873502290E+03  0.22494905090E+03  0.12509000000E+03 0.  0.
         25    1    4    4    0    0  0.61245306681E+02  0.45610700112E+02  0.22432125759E+03  0.26795308967E+03  0.12509000000E+03 0.  0.
         25    1    4    4    0    0  0.25284882827E+02  0.20368203847E+01  0.32347824863E+03  0.34774870147E+03  0.12509000000E+03 0.  0.
<mgrwt>
<rscale>  2 0.45552475E+03</rscale>
<asrwt>0</asrwt>
<pdfrwt beam="1">  1       21 0.11376363E+00 0.45552475E+03</pdfrwt>
<pdfrwt beam="2">  1       21 0.98614940E-02 0.45552475E+03</pdfrwt>
<totfact> 0.45672223E+04</totfact>
</mgrwt>
</event>
<event>
 7    0  0.4712189E-002  0.4545817E+03  0.7546771E-02  0.1026364E+00
         21   -1    0    0  502  501  0.00000000000E+00  0.00000000000E+00  0.18510280880E+03  0.18510280880E+03  0.00000000000E+00 0.  1.
         21   -1    0    0  501  502 -0.00000000000E+00 -0.00000000000E+00 -0.27909423380E+03  0.27909423380E+03  0.00000000000E+00 0.  1.
      99926    2    1    2    0    0  0.66613381478E-15  0.00000000000E+00 -0.93991424991E+02  0.46419704260E+03  0.45458168286E+03 0.  0.
      99925    2    3    3    0    0  0.10590776883E+01 -0.11141050316E+03 -0.76915230929E+02  0.29581495815E+03  0.26301542703E+03 0.  0.
         25    1    4    4    0    0 -0.31257365739E+02 -0.28431699154E+02 -0.38526776167E+02  0.13753983064E+03  0.12509000000E+03 0.  0.
         25    1    4    4    0    0  0.32316443427E+02 -0.82978804008E+02 -0.38388454762E+02  0.15827512751E+03  0.12509000000E+03 0.  0.
         25    1    3    3    0    0 -0.10590776883E+01  0.11141050316E+03 -0.17076194062E+02  0.16838208445E+03  0.12509000000E+03 0.  0.
<mgrwt>
<rscale>  2 0.45458168E+03</rscale>
<asrwt>0</asrwt>
<pdfrwt beam="1">  1       21 0.27221002E-01 0.45458168E+03</pdfrwt>
<pdfrwt beam="2">  1       21 0.41043269E-01 0.45458168E+03</pdfrwt>
<totfact> 0.68096086E+04</totfact>
</mgrwt>
</event>
<event>
 7    0  0.4712189E-002  0.4539414E+03  0.7546771E-02  0.1026553E+00
         21   -1    0    0  502  501  0.00000000000E+00  0.00000000000E+00  0.37189677051E+03  0.37189677051E+03  0.00000000000E+00 0. -1.
         21   -1    0    0  501  502 -0.00000000000E+00 -0.00000000000E+00 -0.13852147639E+03  0.13852147639E+03  0.00000000000E+00 0. -1.
      99926    2    1    2    0    0  0.00000000000E+00  0.00000000000E+00  0.23337529412E+03  0.51041824689E+03  0.45394136059E+03 0.  0.
      99925    2    3    3    0    0 -0.36747973931E+02 -0.16859698685E+02  0.26529612932E+03  0.37513664856E+03  0.26212746104E+03 0.  0.
         25    1    4    4    0    0 -0.47653296458E+02 -0.31121034923E+02  0.15755559142E+03  0.20907086829E+03  0.12509000000E+03 0.  0.
         25    1    4    4    0    0  0.10905322527E+02  0.14261336238E+02  0.10774053790E+03  0.16606578027E+03  0.12509000000E+03 0.  0.
         25    1    3    3    0    0  0.36747973931E+02  0.16859698685E+02 -0.31920835200E+02  0.13528159833E+03  0.12509000000E+03 0.  0.
<mgrwt>
<rscale>  2 0.45394136E+03</rscale>
<asrwt>0</asrwt>
<pdfrwt beam="1">  1       21 0.54690702E-01 0.45394136E+03</pdfrwt>
<pdfrwt beam="2">  1       21 0.20370805E-01 0.45394136E+03</pdfrwt>
<totfact> 0.65089902E+04</totfact>
</mgrwt>
</event>
<event>
 7    0  0.4712189E-002  0.4468803E+03  0.7546771E-02  0.1028656E+00
         21   -1    0    0  502  501  0.00000000000E+00  0.00000000000E+00  0.18044898247E+04  0.18044898247E+04  0.00000000000E+00 0. -1.
         21   -1    0    0  501  502 -0.00000000000E+00 -0.00000000000E+00 -0.27667381527E+02  0.27667381527E+02  0.00000000000E+00 0. -1.
      99926    2    1    2    0    0  0.00000000000E+00  0.00000000000E+00  0.17768224431E+04  0.18321572062E+04  0.44688033494E+03 0.  0.
      99925    2    3    3    0    0  0.92599595093E+02 -0.47628775258E+02  0.11058513692E+04  0.11417277200E+04  0.26418128360E+03 0.  0.
         25    1    3    3    0    0 -0.92599595093E+02  0.47628775258E+02  0.67097107393E+03  0.69042948618E+03  0.12509000000E+03 0.  0.
         25    1    4    4    0    0  0.66635607900E+02 -0.11558968568E+02  0.42815970300E+03  0.45115646218E+03  0.12509000000E+03 0.  0.
         25    1    4    4    0    0  0.25963987193E+02 -0.36069806690E+02  0.67769166621E+03  0.69057125782E+03  0.12509000000E+03 0.  0.
<mgrwt>
<rscale>  2 0.44688033E+03</rscale>
<asrwt>0</asrwt>
<pdfrwt beam="1">  1       21 0.26536607E+00 0.44688033E+03</pdfrwt>
<pdfrwt beam="2">  1       21 0.40687338E-02 0.44688033E+03</pdfrwt>
<totfact> 0.17741553E+04</totfact>
</mgrwt>
</event>
<event>
 7    0  0.4712189E-002  0.4451030E+03  0.7546771E-02  0.1029193E+00
         21   -1    0    0  502  501  0.00000000000E+00  0.00000000000E+00  0.28939851528E+03  0.28939851528E+03  0.00000000000E+00 0.  1.
         21   -1    0    0  501  502 -0.00000000000E+00 -0.00000000000E+00 -0.17114517990E+03  0.17114517990E+03  0.00000000000E+00 0.  1.
      99926    2    1    2    0    0  0.00000000000E+00  0.17763568394E-14  0.11825333538E+03  0.46054369518E+03  0.44510295870E+03 0.  0.
      99925    2    3    3    0    0  0.70530958543E+02  0.99732844719E+01 -0.27186231839E+01  0.27251230053E+03  0.26302372614E+03 0.  0.
         25    1    4    4    0    0  0.40994997015E+01 -0.11646011949E+02 -0.23072054451E+02  0.12779774368E+03  0.12509000000E+03 0.  0.
         25    1    4    4    0    0  0.66431458841E+02  0.21619296421E+02  0.20353431267E+02  0.14471455686E+03  0.12509000000E+03 0.  0.
         25    1    3    3    0    0 -0.70530958543E+02 -0.99732844719E+01  0.12097195856E+03  0.18803139465E+03  0.12509000000E+03 0.  0.
<mgrwt>
<rscale>  2 0.44510296E+03</rscale>
<asrwt>0</asrwt>
<pdfrwt beam="1">  1       21 0.42558605E-01 0.44510296E+03</pdfrwt>
<pdfrwt beam="2">  1       21 0.25168409E-01 0.44510296E+03</pdfrwt>
<totfact> 0.73769190E+04</totfact>
</mgrwt>
</event>
<event>
 7    0  0.4712189E-002  0.4506197E+03  0.7546771E-02  0.1027537E+00
         21   -1    0    0  502  501  0.00000000000E+00  0.00000000000E+00  0.10816026836E+03  0.10816026836E+03  0.00000000000E+00 0.  1.
         21   -1    0    0  501  502 -0.00000000000E+00 -0.00000000000E+00 -0.46934543432E+03  0.46934543432E+03  0.00000000000E+00 0.  1.
      99926    2    1    2    0    0  0.17763568394E-14  0.00000000000E+00 -0.36118516596E+03  0.57750570268E+03  0.45061969833E+03 0.  0.
      99925    2    3    3    0    0  0.14846971939E+02 -0.10773384853E+03 -0.23709523696E+03  0.37044814239E+03  0.26304117570E+03 0.  0.
         25    1    4    4    0    0  0.38475561754E+02 -0.68979026261E+02 -0.15409377067E+03  0.21361384126E+03  0.12509000000E+03 0.  0.
         25    1    4    4    0    0 -0.23628589815E+02 -0.38754822269E+02 -0.83001466283E+02  0.15683430113E+03  0.12509000000E+03 0.  0.
         25    1    3    3    0    0 -0.14846971939E+02  0.10773384853E+03 -0.12408992901E+03  0.20705756030E+03  0.12509000000E+03 0.  0.
<mgrwt>
<rscale>  2 0.45061970E+03</rscale>
<asrwt>0</asrwt>
<pdfrwt beam="1">  1       21 0.15905922E-01 0.45061970E+03</pdfrwt>
<pdfrwt beam="2">  1       21 0.69021387E-01 0.45061970E+03</pdfrwt>
<totfact> 0.62211287E+04</totfact>
</mgrwt>
</event>
<event>
 7    0  0.4712189E-002  0.4603469E+03  0.7546771E-02  0.1024681E+00
         21   -1    0    0  502  501  0.00000000000E+00  0.00000000000E+00  0.44822766256E+03  0.44822766256E+03  0.00000000000E+00 0. -1.
         21   -1    0    0  501  502 -0.00000000000E+00 -0.00000000000E+00 -0.11819843215E+03  0.11819843215E+03  0.00000000000E+00 0. -1.
      99926    2    1    2    0    0  0.00000000000E+00  0.00000000000E+00  0.33002923041E+03  0.56642609470E+03  0.46034685601E+03 0.  0.
      99925    2    3    3    0    0 -0.79361819442E+02 -0.69576777245E+02  0.27198559655E+03  0.39277184670E+03  0.26297211357E+03 0.  0.
         25    1    4    4    0    0 -0.23341083459E+02 -0.24164132835E+02  0.78872928365E+02  0.15164814019E+03  0.12509000000E+03 0.  0.
         25    1    3    3    0    0  0.79361819442E+02  0.69576777245E+02  0.58043633865E+02  0.17365424800E+03  0.12509000000E+03 0.  0.
         25    1    4    4    0    0 -0.56020735983E+02 -0.45412644410E+02  0.19311266818E+03  0.24112370652E+03  0.12509000000E+03 0.  0.
<mgrwt>
<rscale>  2 0.46034686E+03</rscale>
<asrwt>0</asrwt>
<pdfrwt beam="1">  1       21 0.65915832E-01 0.46034686E+03</pdfrwt>
<pdfrwt beam="2">  1       21 0.17382123E-01 0.46034686E+03</pdfrwt>
<totfact> 0.58289682E+04</totfact>
</mgrwt>
</event>
<event>
 7    0  0.4712189E-002  0.4506871E+03  0.7546771E-02  0.1027517E+00
         21   -1    0    0  502  501  0.00000000000E+00  0.00000000000E+00  0.17875327989E+04  0.17875327989E+04  0.00000000000E+00 0.  1.
         21   -1    0    0  501  502 -0.00000000000E+00 -0.00000000000E+00 -0.28407709467E+02  0.28407709467E+02  0.00000000000E+00 0.  1.
      99926    2    1    2    0    0  0.00000000000E+00  0.00000000000E+00  0.17591250894E+04  0.18159405084E+04  0.45068708618E+03 0.  0.
      99925    2    3    3    0    0 -0.66275136436E+02 -0.86181312123E+02  0.10763567259E+04  0.11133454908E+04  0.26301096627E+03 0.  0.
         25    1    4    4    0    0 -0.39866141414E+02 -0.38062443399E+02  0.38306078471E+03  0.40671996719E+03  0.12509000000E+03 0.  0.
         25    1    4    4    0    0 -0.26408995022E+02 -0.48118868724E+02  0.69329594114E+03  0.70662552363E+03  0.12509000000E+03 0.  0.
         25    1    3    3    0    0  0.66275136436E+02  0.86181312123E+02  0.68276836357E+03  0.70259501754E+03  0.12509000000E+03 0.  0.
<mgrwt>
<rscale>  2 0.45068709E+03</rscale>
<asrwt>0</asrwt>
<pdfrwt beam="1">  1       21 0.26287239E+00 0.45068709E+03</pdfrwt>
<pdfrwt beam="2">  1       21 0.41776056E-02 0.45068709E+03</pdfrwt>
<totfact> 0.17534858E+04</totfact>
</mgrwt>
</event>
<event>
 7    0  0.4712189E-002  0.4739336E+03  0.7546771E-02  0.1020816E+00
         21   -1    0    0  502  501  0.00000000000E+00  0.00000000000E+00  0.15121855806E+03  0.15121855806E+03  0.00000000000E+00 0.  1.
         21   -1    0    0  501  502 -0.00000000000E+00 -0.00000000000E+00 -0.37133839643E+03  0.37133839643E+03  0.00000000000E+00 0.  1.
      99926    2    1    2    0    0  0.00000000000E+00  0.71054273576E-14 -0.22011983836E+03  0.52255695449E+03  0.47393356860E+03 0.  0.
      99925    2    3    3    0    0 -0.64813862023E+02 -0.62793803520E+02 -0.33005387122E+02  0.28006319285E+03  0.26306299234E+03 0.  0.
         25    1    3    3    0    0  0.64813862023E+02  0.62793803520E+02 -0.18711445124E+03  0.24249376164E+03  0.12509000000E+03 0.  0.
         25    1    4    4    0    0 -0.29525743708E+02 -0.47139122104E+02 -0.54594136670E+02  0.14738349376E+03  0.12509000000E+03 0.  0.
         25    1    4    4    0    0 -0.35288118315E+02 -0.15654681417E+02  0.21588749548E+02  0.13267969909E+03  0.12509000000E+03 0.  0.
<mgrwt>
<rscale>  2 0.47393357E+03</rscale>
<asrwt>0</asrwt>
<pdfrwt beam="1">  1       21 0.22238024E-01 0.47393357E+03</pdfrwt>
<pdfrwt beam="2">  1       21 0.54608586E-01 0.47393357E+03</pdfrwt>
<totfact> 0.54976783E+04</totfact>
</mgrwt>
</event>
<event>
 7    0  0.4712189E-002  0.4513083E+03  0.7546771E-02  0.1027333E+00
         21   -1    0    0  502  501  0.00000000000E+00  0.00000000000E+00  0.92168074047E+02  0.92168074047E+02  0.00000000000E+00 0. -1.
         21   -1    0    0  501  502 -0.00000000000E+00 -0.00000000000E+00 -0.55246663285E+03  0.55246663285E+03  0.00000000000E+00 0. -1.
      99926    2    1    2    0    0  0.00000000000E+00  0.00000000000E+00 -0.46029855880E+03  0.64463470690E+03  0.45130825618E+03 0.  0.
      99925    2    3    3    0    0  0.36102654389E+02  0.97976332617E+02 -0.24273115239E+03  0.37281519354E+03  0.26300188742E+03 0.  0.
         25    1    4    4    0    0  0.24703290080E+02  0.90752028932E+02 -0.12193713442E+03  0.19839948625E+03  0.12509000000E+03 0.  0.
         25    1    4    4    0    0  0.11399364309E+02  0.72243036847E+01 -0.12079401797E+03  0.17441570729E+03  0.12509000000E+03 0.  0.
         25    1    3    3    0    0 -0.36102654389E+02 -0.97976332617E+02 -0.21756740641E+03  0.27181951336E+03  0.12509000000E+03 0.  0.
<mgrwt>
<rscale>  2 0.45130826E+03</rscale>
<asrwt>0</asrwt>
<pdfrwt beam="1">  1       21 0.13554128E-01 0.45130826E+03</pdfrwt>
<pdfrwt beam="2">  1       21 0.81245096E-01 0.45130826E+03</pdfrwt>
<totfact> 0.57673296E+04</totfact>
</mgrwt>
</event>
<event>
 7    0  0.4712189E-002  0.4406132E+03  0.7546771E-02  0.1030559E+00
         21   -1    0    0  502  501  0.00000000000E+00  0.00000000000E+00  0.10432522357E+03  0.10432522357E+03  0.00000000000E+00 0. -1.
         21   -1    0    0  501  502 -0.00000000000E+00 -0.00000000000E+00 -0.46522791926E+03  0.46522791926E+03  0.00000000000E+00 0. -1.
      99926    2    1    2    0    0  0.88817841970E-15 -0.14210854715E-13 -0.36090269570E+03  0.56955314283E+03  0.44061323941E+03 0.  0.
      99925    2    3    3    0    0 -0.13992792167E+01  0.98885295516E+02 -0.22795469758E+03  0.36194067222E+03  0.26316809534E+03 0.  0.
         25    1    3    3    0    0  0.13992792167E+01 -0.98885295516E+02 -0.13294799811E+03  0.20761247061E+03  0.12509000000E+03 0.  0.
         25    1    4    4    0    0  0.36450890491E+02  0.66096958055E+02 -0.11028273826E+03  0.18304989959E+03  0.12509000000E+03 0.  0.
         25    1    4    4    0    0 -0.37850169707E+02  0.32788337461E+02 -0.11767195932E+03  0.17889077263E+03  0.12509000000E+03 0.  0.
<mgrwt>
<rscale>  2 0.44061324E+03</rscale>
<asrwt>0</asrwt>
<pdfrwt beam="1">  1       21 0.15341944E-01 0.44061324E+03</pdfrwt>
<pdfrwt beam="2">  1       21 0.68415872E-01 0.44061324E+03</pdfrwt>
<totfact> 0.68005308E+04</totfact>
</mgrwt>
</event>
<event>
 7    0  0.4712189E-002  0.4523294E+03  0.7546771E-02  0.1027030E+00
         21   -1    0    0  502  501  0.00000000000E+00  0.00000000000E+00  0.11133830726E+03  0.11133830726E+03  0.00000000000E+00 0. -1.
         21   -1    0    0  501  502 -0.00000000000E+00 -0.00000000000E+00 -0.45941475911E+03  0.45941475911E+03  0.00000000000E+00 0. -1.
      99926    2    1    2    0    0  0.00000000000E+00 -0.14210854715E-13 -0.34807645185E+03  0.57075306637E+03  0.45232935616E+03 0.  0.
      99925    2    3    3    0    0 -0.54730986451E+02  0.91663359824E+02 -0.18322735462E+03  0.33790035462E+03  0.26307172741E+03 0.  0.
         25    1    3    3    0    0  0.54730986451E+02 -0.91663359824E+02 -0.16484909723E+03  0.23285271175E+03  0.12509000000E+03 0.  0.
         25    1    4    4    0    0 -0.29889295905E+02  0.64381490956E+01 -0.10237056459E+03  0.16450550255E+03  0.12509000000E+03 0.  0.
         25    1    4    4    0    0 -0.24841690547E+02  0.85225210728E+02 -0.80856790030E+02  0.17339485208E+03  0.12509000000E+03 0.  0.
<mgrwt>
<rscale>  2 0.45232936E+03</rscale>
<asrwt>0</asrwt>
<pdfrwt beam="1">  1       21 0.16373280E-01 0.45232936E+03</pdfrwt>
<pdfrwt beam="2">  1       21 0.67560995E-01 0.45232936E+03</pdfrwt>
<totfact> 0.61810641E+04</totfact>
</mgrwt>
</event>
<event>
 7    0  0.4712189E-002  0.4600809E+03  0.7546771E-02  0.1024758E+00
         21   -1    0    0  502  501  0.00000000000E+00  0.00000000000E+00  0.42120452884E+02  0.42120452884E+02  0.00000000000E+00 0.  1.
         21   -1    0    0  501  502 -0.00000000000E+00 -0.00000000000E+00 -0.12563637965E+04  0.12563637965E+04  0.00000000000E+00 0.  1.
      99926    2    1    2    0    0  0.00000000000E+00  0.00000000000E+00 -0.12142433436E+04  0.12984842494E+04  0.46008091504E+03 0.  0.
      99925    2    3    3    0    0  0.66881233679E+02  0.69363936124E+02 -0.56906435891E+03  0.63426449248E+03  0.26300712308E+03 0.  0.
         25    1    3    3    0    0 -0.66881233679E+02 -0.69363936124E+02 -0.64517898472E+03  0.66421975692E+03  0.12509000000E+03 0.  0.
         25    1    4    4    0    0  0.16650408277E+02  0.23109243419E+02 -0.35148697305E+03  0.37416824230E+03  0.12509000000E+03 0.  0.
         25    1    4    4    0    0  0.50230825402E+02  0.46254692705E+02 -0.21757738586E+03  0.26009625018E+03  0.12509000000E+03 0.  0.
<mgrwt>
<rscale>  2 0.46008092E+03</rscale>
<asrwt>0</asrwt>
<pdfrwt beam="1">  1       21 0.61941853E-02 0.46008092E+03</pdfrwt>
<pdfrwt beam="2">  1       21 0.18475935E+00 0.46008092E+03</pdfrwt>
<totfact> 0.28034241E+04</totfact>
</mgrwt>
</event>
<event>
 7    0  0.4712189E-002  0.4558298E+03  0.7546771E-02  0.1025998E+00
         21   -1    0    0  502  501  0.00000000000E+00  0.00000000000E+00  0.50889674167E+03  0.50889674167E+03  0.00000000000E+00 0. -1.
         21   -1    0    0  501  502 -0.00000000000E+00 -0.00000000000E+00 -0.10207413332E+03  0.10207413332E+03  0.00000000000E+00 0. -1.
      99926    2    1    2    0    0  0.00000000000E+00  0.00000000000E+00  0.40682260835E+03  0.61097087499E+03  0.45582976583E+03 0.  0.
      99925    2    3    3    0    0 -0.16104122176E+02  0.10645671424E+03  0.20586651335E+03  0.35092619618E+03  0.26301292571E+03 0.  0.
         25    1    4    4    0    0 -0.16103117438E+02  0.12137173540E+02  0.78802070156E+02  0.14921091024E+03  0.12509000000E+03 0.  0.
         25    1    4    4    0    0 -0.10047380311E-02  0.94319540705E+02  0.12706444320E+03  0.20171528595E+03  0.12509000000E+03 0.  0.
         25    1    3    3    0    0  0.16104122176E+02 -0.10645671424E+03  0.20095609499E+03  0.26004467880E+03  0.12509000000E+03 0.  0.
<mgrwt>
<rscale>  2 0.45582977E+03</rscale>
<asrwt>0</asrwt>
<pdfrwt beam="1">  1       21 0.74837755E-01 0.45582977E+03</pdfrwt>
<pdfrwt beam="2">  1       21 0.15010902E-01 0.45582977E+03</pdfrwt>
<totfact> 0.57629377E+04</totfact>
</mgrwt>
</event>
<event>
 7    0  0.4712189E-002  0.4624917E+03  0.7546771E-02  0.1024061E+00
         21   -1    0    0  502  501  0.00000000000E+00  0.00000000000E+00  0.30681780512E+03  0.30681780512E+03  0.00000000000E+00 0.  1.
         21   -1    0    0  501  502 -0.00000000000E+00 -0.00000000000E+00 -0.17428792292E+03  0.17428792292E+03  0.00000000000E+00 0.  1.
      99926    2    1    2    0    0 -0.35527136788E-14 -0.14210854715E-13  0.13252988221E+03  0.48110572804E+03  0.46249167763E+03 0.  0.
      99925    2    3    3    0    0  0.23720995846E+02  0.58996292149E+02 -0.23098395289E+02  0.27155640930E+03  0.26299448556E+03 0.  0.
         25    1    4    4    0    0 -0.23437816068E+02  0.81504266126E+01 -0.12433517490E+02  0.12813220178E+03  0.12509000000E+03 0.  0.
         25    1    4    4    0    0  0.47158811914E+02  0.50845865536E+02 -0.10664877799E+02  0.14342420752E+03  0.12509000000E+03 0.  0.
         25    1    3    3    0    0 -0.23720995846E+02 -0.58996292149E+02  0.15562827749E+03  0.20954931875E+03  0.12509000000E+03 0.  0.
<mgrwt>
<rscale>  2 0.46249168E+03</rscale>
<asrwt>0</asrwt>
<pdfrwt beam="1">  1       21 0.45120266E-01 0.46249168E+03</pdfrwt>
<pdfrwt beam="2">  1       21 0.25630577E-01 0.46249168E+03</pdfrwt>
<totfact> 0.62801796E+04</totfact>
</mgrwt>
</event>
<event>
 7    0  0.4712189E-002  0.4511076E+03  0.7546771E-02  0.1027392E+00
         21   -1    0    0  502  501  0.00000000000E+00  0.00000000000E+00  0.36315493001E+02  0.36315493001E+02  0.00000000000E+00 0.  1.
         21   -1    0    0  501  502 -0.00000000000E+00 -0.00000000000E+00 -0.14009038404E+04  0.14009038404E+04  0.00000000000E+00 0.  1.
      99926    2    1    2    0    0  0.00000000000E+00 -0.17763568394E-14 -0.13645883474E+04  0.14372193334E+04  0.45110758632E+03 0.  0.
      99925    2    3    3    0    0 -0.45359721749E+02 -0.57582820038E+01 -0.11783688995E+04  0.12082742460E+04  0.26321612426E+03 0.  0.
         25    1    4    4    0    0 -0.40797646355E+02 -0.28692192407E+02 -0.48625014228E+03  0.50455366297E+03  0.12509000000E+03 0.  0.
         25    1    4    4    0    0 -0.45620753940E+01  0.22933910403E+02 -0.69211875719E+03  0.70372058299E+03  0.12509000000E+03 0.  0.
         25    1    3    3    0    0  0.45359721749E+02  0.57582820038E+01 -0.18621944789E+03  0.22894508739E+03  0.12509000000E+03 0.  0.
<mgrwt>
<rscale>  2 0.45110759E+03</rscale>
<asrwt>0</asrwt>
<pdfrwt beam="1">  1       21 0.53405132E-02 0.45110759E+03</pdfrwt>
<pdfrwt beam="2">  1       21 0.20601529E+00 0.45110759E+03</pdfrwt>
<totfact> 0.26138490E+04</totfact>
</mgrwt>
</event>
<event>
 7    0  0.4712189E-002  0.4283518E+03  0.7546771E-02  0.1034382E+00
         21   -1    0    0  502  501  0.00000000000E+00  0.00000000000E+00  0.16486821824E+03  0.16486821824E+03  0.00000000000E+00 0.  1.
         21   -1    0    0  501  502 -0.00000000000E+00 -0.00000000000E+00 -0.27823013150E+03  0.27823013150E+03  0.00000000000E+00 0.  1.
      99926    2    1    2    0    0  0.00000000000E+00  0.00000000000E+00 -0.11336191326E+03  0.44309834974E+03  0.42835175284E+03 0.  0.
      99925    2    3    3    0    0 -0.82807664010E+02 -0.19571625995E+02 -0.84410318520E+02  0.28906633781E+03  0.26304769153E+03 0.  0.
         25    1    3    3    0    0  0.82807664010E+02  0.19571625995E+02 -0.28951594740E+02  0.15403201194E+03  0.12509000000E+03 0.  0.
         25    1    4    4    0    0 -0.73510536641E+02  0.12098418067E+02 -0.29649249619E+02  0.14858249163E+03  0.12509000000E+03 0.  0.
         25    1    4    4    0    0 -0.92971273698E+01 -0.31670044062E+02 -0.54761068901E+02  0.14048384617E+03  0.12509000000E+03 0.  0.
<mgrwt>
<rscale>  2 0.42835175E+03</rscale>
<asrwt>0</asrwt>
<pdfrwt beam="1">  1       21 0.24245327E-01 0.42835175E+03</pdfrwt>
<pdfrwt beam="2">  1       21 0.40916195E-01 0.42835175E+03</pdfrwt>
<totfact> 0.86348358E+04</totfact>
</mgrwt>
</event>
<event>
 7    0  0.4712189E-002  0.4528236E+03  0.7546771E-02  0.1026883E+00
         21   -1    0    0  502  501  0.00000000000E+00  0.00000000000E+00  0.55752685848E+03  0.55752685848E+03  0.00000000000E+00 0.  1.
         21   -1    0    0  501  502 -0.00000000000E+00 -0.00000000000E+00 -0.91945890928E+02  0.91945890928E+02  0.00000000000E+00 0.  1.
      99926    2    1    2    0    0  0.00000000000E+00 -0.14210854715E-13  0.46558096756E+03  0.64947274941E+03  0.45282360239E+03 0.  0.
      99925    2    3    3    0    0 -0.42486952031E+02 -0.10029604827E+03  0.32265522950E+03  0.43052135505E+03  0.26339666217E+03 0.  0.
         25    1    4    4    0    0 -0.35688372352E+02 -0.91806039666E+02  0.18936205370E+03  0.24740150428E+03  0.12509000000E+03 0.  0.
         25    1    4    4    0    0 -0.67985796792E+01 -0.84900086064E+01  0.13329317579E+03  0.18311985077E+03  0.12509000000E+03 0.  0.
         25    1    3    3    0    0  0.42486952031E+02  0.10029604827E+03  0.14292573806E+03  0.21895139436E+03  0.12509000000E+03 0.  0.
<mgrwt>
<rscale>  2 0.45282360E+03</rscale>
<asrwt>0</asrwt>
<pdfrwt beam="1">  1       21 0.81989243E-01 0.45282360E+03</pdfrwt>
<pdfrwt beam="2">  1       21 0.13521455E-01 0.45282360E+03</pdfrwt>
<totfact> 0.56699117E+04</totfact>
</mgrwt>
</event>
<event>
 7    0  0.4712189E-002  0.4903390E+03  0.7546771E-02  0.1016332E+00
         21   -1    0    0  502  501  0.00000000000E+00  0.00000000000E+00  0.12547166682E+03  0.12547166682E+03  0.00000000000E+00 0. -1.
         21   -1    0    0  501  502 -0.00000000000E+00 -0.00000000000E+00 -0.47905701710E+03  0.47905701710E+03  0.00000000000E+00 0. -1.
      99926    2    1    2    0    0  0.17763568394E-14  0.00000000000E+00 -0.35358535028E+03  0.60452868392E+03  0.49033899473E+03 0.  0.
      99925    2    3    3    0    0 -0.12554924495E+02  0.13539412337E+03 -0.15882262580E+03  0.33607157055E+03  0.26311647476E+03 0.  0.
         25    1    4    4    0    0 -0.43400995123E+02  0.84499851801E+02 -0.73898904268E+02  0.17358694503E+03  0.12509000000E+03 0.  0.
         25    1    3    3    0    0  0.12554924495E+02 -0.13539412337E+03 -0.19476272448E+03  0.26845711337E+03  0.12509000000E+03 0.  0.
         25    1    4    4    0    0  0.30846070628E+02  0.50894271574E+02 -0.84923721533E+02  0.16248462552E+03  0.12509000000E+03 0.  0.
<mgrwt>
<rscale>  2 0.49033899E+03</rscale>
<asrwt>0</asrwt>
<pdfrwt beam="1">  1       21 0.18451715E-01 0.49033899E+03</pdfrwt>
<pdfrwt beam="2">  1       21 0.70449563E-01 0.49033899E+03</pdfrwt>
<totfact> 0.44584079E+04</totfact>
</mgrwt>
</event>
<event>
 7    0  0.4712189E-002  0.4609472E+03  0.7546771E-02  0.1024507E+00
         21   -1    0    0  502  501  0.00000000000E+00  0.00000000000E+00  0.69769609080E+03  0.69769609080E+03  0.00000000000E+00 0. -1.
         21   -1    0    0  501  502 -0.00000000000E+00 -0.00000000000E+00 -0.76133542354E+02  0.76133542354E+02  0.00000000000E+00 0. -1.
      99926    2    1    2    0    0  0.17763568394E-14 -0.14210854715E-13  0.62156254845E+03  0.77382963316E+03  0.46094717649E+03 0.  0.
      99925    2    3    3    0    0 -0.13525729621E+02 -0.11319509511E+03  0.44426353096E+03  0.52872042357E+03  0.26301925109E+03 0.  0.
         25    1    4    4    0    0 -0.27822108339E+02 -0.93112873041E+02  0.26518187035E+03  0.30888996309E+03  0.12509000000E+03 0.  0.
         25    1    4    4    0    0  0.14296378718E+02 -0.20082222074E+02  0.17908166061E+03  0.21983046048E+03  0.12509000000E+03 0.  0.
         25    1    3    3    0    0  0.13525729621E+02  0.11319509511E+03  0.17729901749E+03  0.24510920959E+03  0.12509000000E+03 0.  0.
<mgrwt>
<rscale>  2 0.46094718E+03</rscale>
<asrwt>0</asrwt>
<pdfrwt beam="1">  1       21 0.10260236E+00 0.46094718E+03</pdfrwt>
<pdfrwt beam="2">  1       21 0.11196110E-01 0.46094718E+03</pdfrwt>
<totfact> 0.46831847E+04</totfact>
</mgrwt>
</event>
<event>
 7    0  0.4712189E-002  0.4559876E+03  0.7546771E-02  0.1025951E+00
         21   -1    0    0  502  501  0.00000000000E+00  0.00000000000E+00  0.25159113866E+03  0.25159113866E+03  0.00000000000E+00 0.  1.
         21   -1    0    0  501  502 -0.00000000000E+00 -0.00000000000E+00 -0.20660972851E+03  0.20660972851E+03  0.00000000000E+00 0.  1.
      99926    2    1    2    0    0  0.00000000000E+00  0.71054273576E-14  0.44981410152E+02  0.45820086718E+03  0.45598761762E+03 0.  0.
      99925    2    3    3    0    0  0.93201546924E+02  0.58939210493E+02 -0.96889348449E+00  0.28522891169E+03  0.26304796982E+03 0.  0.
         25    1    4    4    0    0  0.50433070779E+02  0.68326622254E+02  0.14066465830E+02  0.15184661833E+03  0.12509000000E+03 0.  0.
         25    1    4    4    0    0  0.42768476145E+02 -0.93874117617E+01 -0.15035359315E+02  0.13338229336E+03  0.12509000000E+03 0.  0.
         25    1    3    3    0    0 -0.93201546924E+02 -0.58939210493E+02  0.45950303636E+02  0.17297195549E+03  0.12509000000E+03 0.  0.
<mgrwt>
<rscale>  2 0.45598762E+03</rscale>
<asrwt>0</asrwt>
<pdfrwt beam="1">  1       21 0.36998697E-01 0.45598762E+03</pdfrwt>
<pdfrwt beam="2">  1       21 0.30383783E-01 0.45598762E+03</pdfrwt>
<totfact> 0.67776290E+04</totfact>
</mgrwt>
</event>
<event>
 7    0  0.4712189E-002  0.4592385E+03  0.7546771E-02  0.1025002E+00
         21   -1    0    0  502  501  0.00000000000E+00  0.00000000000E+00  0.54123299962E+02  0.54123299962E+02  0.00000000000E+00 0.  1.
         21   -1    0    0  501  502 -0.00000000000E+00 -0.00000000000E+00 -0.97416470634E+03  0.97416470634E+03  0.00000000000E+00 0.  1.
      99926    2    1    2    0    0  0.00000000000E+00  0.00000000000E+00 -0.92004140637E+03  0.10282880063E+04  0.45923853764E+03 0.  0.
      99925    2    3    3    0    0 -0.72509326013E+02  0.90892497351E+02 -0.60880969592E+03  0.67327852174E+03  0.26293663411E+03 0.  0.
         25    1    4    4    0    0 -0.36968664569E+02  0.83122118783E+02 -0.28541402005E+03  0.32463000436E+03  0.12509000000E+03 0.  0.
         25    1    4    4    0    0 -0.35540661444E+02  0.77703785684E+01 -0.32339567588E+03  0.34864851739E+03  0.12509000000E+03 0.  0.
         25    1    3    3    0    0  0.72509326013E+02 -0.90892497351E+02 -0.31123171045E+03  0.35500948455E+03  0.12509000000E+03 0.  0.
<mgrwt>
<rscale>  2 0.45923854E+03</rscale>
<asrwt>0</asrwt>
<pdfrwt beam="1">  1       21 0.79593094E-02 0.45923854E+03</pdfrwt>
<pdfrwt beam="2">  1       21 0.14325951E+00 0.45923854E+03</pdfrwt>
<totfact> 0.36849729E+04</totfact>
</mgrwt>
</event>
<event>
 7    0  0.4712189E-002  0.4594193E+03  0.7546771E-02  0.1024950E+00
         21   -1    0    0  502  501  0.00000000000E+00  0.00000000000E+00  0.34438204774E+03  0.34438204774E+03  0.00000000000E+00 0.  1.
         21   -1    0    0  501  502 -0.00000000000E+00 -0.00000000000E+00 -0.15322090039E+03  0.15322090039E+03  0.00000000000E+00 0.  1.
      99926    2    1    2    0    0  0.00000000000E+00  0.00000000000E+00  0.19116114735E+03  0.49760294813E+03  0.45941931798E+03 0.  0.
      99925    2    3    3    0    0  0.40697852438E+02  0.98089480963E+02  0.17312013797E+03  0.33252464069E+03  0.26329487846E+03 0.  0.
         25    1    4    4    0    0  0.26694715534E+01  0.49566167364E+02  0.41673594200E+02  0.14088338291E+03  0.12509000000E+03 0.  0.
         25    1    3    3    0    0 -0.40697852438E+02 -0.98089480963E+02  0.18041009389E+02  0.16507830744E+03  0.12509000000E+03 0.  0.
         25    1    4    4    0    0  0.38028380884E+02  0.48523313599E+02  0.13144654377E+03  0.19164125778E+03  0.12509000000E+03 0.  0.
<mgrwt>
<rscale>  2 0.45941932E+03</rscale>
<asrwt>0</asrwt>
<pdfrwt beam="1">  1       21 0.50644419E-01 0.45941932E+03</pdfrwt>
<pdfrwt beam="2">  1       21 0.22532485E-01 0.45941932E+03</pdfrwt>
<totfact> 0.63193126E+04</totfact>
</mgrwt>
</event>
<event>
 7    0  0.4712189E-002  0.4631761E+03  0.7546771E-02  0.1023864E+00
         21   -1    0    0  502  501  0.00000000000E+00  0.00000000000E+00  0.24779094984E+03  0.24779094984E+03  0.00000000000E+00 0. -1.
         21   -1    0    0  501  502 -0.00000000000E+00 -0.00000000000E+00 -0.21644462878E+03  0.21644462878E+03  0.00000000000E+00 0. -1.
      99926    2    1    2    0    0  0.71054273576E-14  0.00000000000E+00  0.31346321057E+02  0.46423557861E+03  0.46317607948E+03 0.  0.
      99925    2    3    3    0    0 -0.62413645987E+02 -0.10254218034E+03  0.67685408546E+01  0.28913007518E+03  0.26294490919E+03 0.  0.
         25    1    4    4    0    0 -0.69915820925E+02 -0.49954575450E+02 -0.10564582957E+02  0.15212757849E+03  0.12509000000E+03 0.  0.
         25    1    3    3    0    0  0.62413645987E+02  0.10254218034E+03  0.24577780203E+02  0.17510550344E+03  0.12509000000E+03 0.  0.
         25    1    4    4    0    0  0.75021749384E+01 -0.52587604892E+02  0.17333123811E+02  0.13700249669E+03  0.12509000000E+03 0.  0.
<mgrwt>
<rscale>  2 0.46317608E+03</rscale>
<asrwt>0</asrwt>
<pdfrwt beam="1">  1       21 0.36439845E-01 0.46317608E+03</pdfrwt>
<pdfrwt beam="2">  1       21 0.31830093E-01 0.46317608E+03</pdfrwt>
<totfact> 0.63621693E+04</totfact>
</mgrwt>
</event>
<event>
 7    0  0.4712189E-002  0.4561637E+03  0.7546771E-02  0.1025900E+00
         21   -1    0    0  502  501  0.00000000000E+00  0.00000000000E+00  0.32209600075E+03  0.32209600075E+03  0.00000000000E+00 0. -1.
         21   -1    0    0  501  502 -0.00000000000E+00 -0.00000000000E+00 -0.16150878340E+03  0.16150878340E+03  0.00000000000E+00 0. -1.
      99926    2    1    2    0    0  0.00000000000E+00  0.71054273576E-14  0.16058721735E+03  0.48360478415E+03  0.45616371280E+03 0.  0.
      99925    2    3    3    0    0  0.70287499919E+02  0.61482811035E+02  0.17077764916E+03  0.32717006391E+03  0.26297295786E+03 0.  0.
         25    1    3    3    0    0 -0.70287499919E+02 -0.61482811035E+02 -0.10190431809E+02  0.15643472024E+03  0.12509000000E+03 0.  0.
         25    1    4    4    0    0  0.73175913111E+02  0.36556450710E+02  0.72456650601E+02  0.16609805136E+03  0.12509000000E+03 0.  0.
         25    1    4    4    0    0 -0.28884131924E+01  0.24926360325E+02  0.98320998558E+02  0.16107201255E+03  0.12509000000E+03 0.  0.
<mgrwt>
<rscale>  2 0.45616371E+03</rscale>
<asrwt>0</asrwt>
<pdfrwt beam="1">  1       21 0.47367059E-01 0.45616371E+03</pdfrwt>
<pdfrwt beam="2">  1       21 0.23751292E-01 0.45616371E+03</pdfrwt>
<totfact> 0.65828420E+04</totfact>
</mgrwt>
</event>
<event>
 7    0  0.4712189E-002  0.4522619E+03  0.7546771E-02  0.1027050E+00
         21   -1    0    0  502  501  0.00000000000E+00  0.00000000000E+00  0.70226366339E+02  0.70226366339E+02  0.00000000000E+00 0.  1.
         21   -1    0    0  501  502 -0.00000000000E+00 -0.00000000000E+00 -0.72814835755E+03  0.72814835755E+03  0.00000000000E+00 0.  1.
      99926    2    1    2    0    0  0.00000000000E+00  0.00000000000E+00 -0.65792199121E+03  0.79837472388E+03  0.45226192989E+03 0.  0.
      99925    2    3    3    0    0  0.49965194131E+02  0.88128408532E+02 -0.49429476870E+03  0.56884365178E+03  0.26266450996E+03 0.  0.
         25    1    4    4    0    0  0.21544019575E+02  0.29692429057E+02 -0.31400619809E+03  0.33998997876E+03  0.12509000000E+03 0.  0.
         25    1    3    3    0    0 -0.49965194131E+02 -0.88128408532E+02 -0.16362722250E+03  0.22953107210E+03  0.12509000000E+03 0.  0.
         25    1    4    4    0    0  0.28421174556E+02  0.58435979476E+02 -0.18028857062E+03  0.22885367302E+03  0.12509000000E+03 0.  0.
<mgrwt>
<rscale>  2 0.45226193E+03</rscale>
<asrwt>0</asrwt>
<pdfrwt beam="1">  1       21 0.10327407E-01 0.45226193E+03</pdfrwt>
<pdfrwt beam="2">  1       21 0.10708064E+00 0.45226193E+03</pdfrwt>
<totfact> 0.48885548E+04</totfact>
</mgrwt>
</event>
<event>
 7    0  0.4712189E-002  0.4569203E+03  0.7546771E-02  0.1025678E+00
         21   -1    0    0  502  501  0.00000000000E+00  0.00000000000E+00  0.11664501176E+03  0.11664501176E+03  0.00000000000E+00 0.  1.
         21   -1    0    0  501  502 -0.00000000000E+00 -0.00000000000E+00 -0.44746063606E+03  0.44746063606E+03  0.00000000000E+00 0.  1.
      99926    2    1    2    0    0  0.00000000000E+00  0.00000000000E+00 -0.33081562430E+03  0.56410564781E+03  0.45692034822E+03 0.  0.
      99925    2    3    3    0    0  0.10609158373E+03  0.16060956458E+02 -0.15717564199E+03  0.32470696357E+03  0.26309133641E+03 0.  0.
         25    1    4    4    0    0  0.10267524957E+02  0.38286966303E+01 -0.59930260397E+02  0.13913743277E+03  0.12509000000E+03 0.  0.
         25    1    4    4    0    0  0.95824058776E+02  0.12232259827E+02 -0.97245381598E+02  0.18556953080E+03  0.12509000000E+03 0.  0.
         25    1    3    3    0    0 -0.10609158373E+03 -0.16060956458E+02 -0.17363998231E+03  0.23939868424E+03  0.12509000000E+03 0.  0.
<mgrwt>
<rscale>  2 0.45692035E+03</rscale>
<asrwt>0</asrwt>
<pdfrwt beam="1">  1       21 0.17153678E-01 0.45692035E+03</pdfrwt>
<pdfrwt beam="2">  1       21 0.65803034E-01 0.45692035E+03</pdfrwt>
<totfact> 0.60027002E+04</totfact>
</mgrwt>
</event>
<event>
 7    0  0.4712189E-002  0.4543400E+03  0.7546771E-02  0.1026436E+00
         21   -1    0    0  502  501  0.00000000000E+00  0.00000000000E+00  0.13771486393E+03  0.13771486393E+03  0.00000000000E+00 0.  1.
         21   -1    0    0  501  502 -0.00000000000E+00 -0.00000000000E+00 -0.37473232052E+03  0.37473232052E+03  0.00000000000E+00 0.  1.
      99926    2    1    2    0    0  0.00000000000E+00  0.00000000000E+00 -0.23701745659E+03  0.51244718445E+03  0.45434000718E+03 0.  0.
      99925    2    3    3    0    0 -0.78137353335E+02  0.75122976794E+02 -0.18412762453E+03  0.33868369559E+03  0.26278271616E+03 0.  0.
         25    1    4    4    0    0 -0.17139830560E+02  0.59100585293E+02 -0.60972147451E+02  0.15215703677E+03  0.12509000000E+03 0.  0.
         25    1    4    4    0    0 -0.60997522775E+02  0.16022391501E+02 -0.12315547708E+03  0.18652665882E+03  0.12509000000E+03 0.  0.
         25    1    3    3    0    0  0.78137353335E+02 -0.75122976794E+02 -0.52889832060E+02  0.17376348887E+03  0.12509000000E+03 0.  0.
<mgrwt>
<rscale>  2 0.45434001E+03</rscale>
<asrwt>0</asrwt>
<pdfrwt beam="1">  1       21 0.20252186E-01 0.45434001E+03</pdfrwt>
<pdfrwt beam="2">  1       21 0.55107694E-01 0.45434001E+03</pdfrwt>
<totfact> 0.64743186E+04</totfact>
</mgrwt>
</event>
<event>
 7    0  0.4712189E-002  0.4609940E+03  0.7546771E-02  0.1024493E+00
         21   -1    0    0  502  501  0.00000000000E+00  0.00000000000E+00  0.17782189070E+02  0.17782189070E+02  0.00000000000E+00 0. -1.
         21   -1    0    0  501  502 -0.00000000000E+00 -0.00000000000E+00 -0.29877569449E+04  0.29877569449E+04  0.00000000000E+00 0. -1.
      99926    2    1    2    0    0  0.00000000000E+00  0.00000000000E+00 -0.29699747558E+04  0.30055391339E+04  0.46099396478E+03 0.  0.
      99925    2    3    3    0    0 -0.10184969305E+03  0.60913417765E+02 -0.18438042948E+04  0.18662449578E+04  0.26300600865E+03 0.  0.
         25    1    3    3    0    0  0.10184969305E+03 -0.60913417765E+02 -0.11261704610E+04  0.11392941762E+04  0.12509000000E+03 0.  0.
         25    1    4    4    0    0 -0.44413284967E+02  0.65780351381E+02 -0.10812769635E+04  0.10913784744E+04  0.12509000000E+03 0.  0.
         25    1    4    4    0    0 -0.57436408081E+02 -0.48669336165E+01 -0.76252733124E+03  0.77486648334E+03  0.12509000000E+03 0.  0.
<mgrwt>
<rscale>  2 0.46099396E+03</rscale>
<asrwt>0</asrwt>
<pdfrwt beam="1">  1       21 0.26150301E-02 0.46099396E+03</pdfrwt>
<pdfrwt beam="2">  1       21 0.43937563E+00 0.46099396E+03</pdfrwt>
<totfact> 0.30709684E+03</totfact>
</mgrwt>
</event>
<event>
 7    0  0.4712189E-002  0.4488173E+03  0.7546771E-02  0.1028075E+00
         21   -1    0    0  502  501  0.00000000000E+00  0.00000000000E+00  0.38999747390E+02  0.38999747390E+02  0.00000000000E+00 0. -1.
         21   -1    0    0  501  502 -0.00000000000E+00 -0.00000000000E+00 -0.12912711431E+04  0.12912711431E+04  0.00000000000E+00 0. -1.
      99926    2    1    2    0    0  0.35527136788E-14  0.00000000000E+00 -0.12522713957E+04  0.13302708905E+04  0.44881732762E+03 0.  0.
      99925    2    3    3    0    0  0.56366296787E+01 -0.97630970483E+02 -0.92381188626E+03  0.96544663768E+03  0.26285971737E+03 0.  0.
         25    1    4    4    0    0  0.28766263262E+02 -0.57624310354E+02 -0.37112829548E+03  0.39690273223E+03  0.12509000000E+03 0.  0.
         25    1    4    4    0    0 -0.23129633584E+02 -0.40006660129E+02 -0.55268359078E+03  0.56854390545E+03  0.12509000000E+03 0.  0.
         25    1    3    3    0    0 -0.56366296787E+01  0.97630970483E+02 -0.32845950945E+03  0.36482425282E+03  0.12509000000E+03 0.  0.
<mgrwt>
<rscale>  2 0.44881733E+03</rscale>
<asrwt>0</asrwt>
<pdfrwt beam="1">  1       21 0.57352573E-02 0.44881733E+03</pdfrwt>
<pdfrwt beam="2">  1       21 0.18989280E+00 0.44881733E+03</pdfrwt>
<totfact> 0.29647995E+04</totfact>
</mgrwt>
</event>
<event>
 7    0  0.4712189E-002  0.4445444E+03  0.7546771E-02  0.1029362E+00
         21   -1    0    0  502  501  0.00000000000E+00  0.00000000000E+00  0.21812012680E+03  0.21812012680E+03  0.00000000000E+00 0. -1.
         21   -1    0    0  501  502 -0.00000000000E+00 -0.00000000000E+00 -0.22650327008E+03  0.22650327008E+03  0.00000000000E+00 0. -1.
      99926    2    1    2    0    0  0.00000000000E+00  0.00000000000E+00 -0.83831432738E+01  0.44462339688E+03  0.44454435995E+03 0.  0.
      99925    2    3    3    0    0  0.23103399107E+02  0.69955488834E+01 -0.10548200386E+03  0.28444099590E+03  0.26305421924E+03 0.  0.
         25    1    4    4    0    0  0.26193164701E+02  0.25594891102E+02 -0.20250394442E+02  0.13190438546E+03  0.12509000000E+03 0.  0.
         25    1    4    4    0    0 -0.30897655939E+01 -0.18599342218E+02 -0.85231609421E+02  0.15253661045E+03  0.12509000000E+03 0.  0.
         25    1    3    3    0    0 -0.23103399107E+02 -0.69955488834E+01  0.97098860589E+02  0.16018240098E+03  0.12509000000E+03 0.  0.
<mgrwt>
<rscale>  2 0.44454436E+03</rscale>
<asrwt>0</asrwt>
<pdfrwt beam="1">  1       21 0.32076489E-01 0.44454436E+03</pdfrwt>
<pdfrwt beam="2">  1       21 0.33309304E-01 0.44454436E+03</pdfrwt>
<totfact> 0.75410220E+04</totfact>
</mgrwt>
</event>
<event>
 7    0  0.4712189E-002  0.4535347E+03  0.7546771E-02  0.1026673E+00
         21   -1    0    0  502  501  0.00000000000E+00  0.00000000000E+00  0.28387046704E+03  0.28387046704E+03  0.00000000000E+00 0.  1.
         21   -1    0    0  501  502 -0.00000000000E+00 -0.00000000000E+00 -0.18115106564E+03  0.18115106564E+03  0.00000000000E+00 0.  1.
      99926    2    1    2    0    0  0.00000000000E+00  0.00000000000E+00  0.10271940141E+03  0.46502153268E+03  0.45353472902E+03 0.  0.
      99925    2    3    3    0    0  0.32414619526E+02 -0.10475609725E+03  0.87219799170E+02  0.29795180700E+03  0.26295139942E+03 0.  0.
         25    1    3    3    0    0 -0.32414619526E+02  0.10475609725E+03  0.15499602237E+02  0.16706972568E+03  0.12509000000E+03 0.  0.
         25    1    4    4    0    0 -0.96925938517E+01 -0.34169607204E+02  0.68894366567E+02  0.14715790932E+03  0.12509000000E+03 0.  0.
         25    1    4    4    0    0  0.42107213378E+02 -0.70586490044E+02  0.18325432602E+02  0.15079389767E+03  0.12509000000E+03 0.  0.
<mgrwt>
<rscale>  2 0.45353473E+03</rscale>
<asrwt>0</asrwt>
<pdfrwt beam="1">  1       21 0.41745657E-01 0.45353473E+03</pdfrwt>
<pdfrwt beam="2">  1       21 0.26639863E-01 0.45353473E+03</pdfrwt>
<totfact> 0.68602022E+04</totfact>
</mgrwt>
</event>
<event>
 7    0  0.4712189E-002  0.4447552E+03  0.7546771E-02  0.1029298E+00
         21   -1    0    0  502  501  0.00000000000E+00  0.00000000000E+00  0.13329650985E+03  0.13329650985E+03  0.00000000000E+00 0.  1.
         21   -1    0    0  501  502 -0.00000000000E+00 -0.00000000000E+00 -0.37099095999E+03  0.37099095999E+03  0.00000000000E+00 0.  1.
      99926    2    1    2    0    0  0.00000000000E+00  0.00000000000E+00 -0.23769445013E+03  0.50428746984E+03  0.44475521427E+03 0.  0.
      99925    2    3    3    0    0  0.67114509370E+02 -0.41807604674E+02 -0.76126716385E+02  0.28518960617E+03  0.26322158222E+03 0.  0.
         25    1    4    4    0    0  0.16920540171E+02 -0.41083526640E+02 -0.51249447392E+01  0.13284552683E+03  0.12509000000E+03 0.  0.
         25    1    3    3    0    0 -0.67114509370E+02  0.41807604674E+02 -0.16156773375E+03  0.21909786367E+03  0.12509000000E+03 0.  0.
         25    1    4    4    0    0  0.50193969199E+02 -0.72407803395E+00 -0.71001771645E+02  0.15234407934E+03  0.12509000000E+03 0.  0.
<mgrwt>
<rscale>  2 0.44475521E+03</rscale>
<asrwt>0</asrwt>
<pdfrwt beam="1">  1       21 0.19602428E-01 0.44475521E+03</pdfrwt>
<pdfrwt beam="2">  1       21 0.54557494E-01 0.44475521E+03</pdfrwt>
<totfact> 0.70533064E+04</totfact>
</mgrwt>
</event>
<event>
 7    0  0.4712189E-002  0.4635749E+03  0.7546771E-02  0.1023749E+00
         21   -1    0    0  502  501  0.00000000000E+00  0.00000000000E+00  0.33097557374E+03  0.33097557374E+03  0.00000000000E+00 0.  1.
         21   -1    0    0  501  502 -0.00000000000E+00 -0.00000000000E+00 -0.16232441058E+03  0.16232441058E+03  0.00000000000E+00 0.  1.
      99926    2    1    2    0    0  0.00000000000E+00  0.00000000000E+00  0.16865116316E+03  0.49329998433E+03  0.46357486958E+03 0.  0.
      99925    2    3    3    0    0  0.79618334732E+02 -0.21669500083E+02  0.11097834322E+02  0.27586216336E+03  0.26299833609E+03 0.  0.
         25    1    3    3    0    0 -0.79618334732E+02  0.21669500083E+02  0.15755332884E+03  0.21743782097E+03  0.12509000000E+03 0.  0.
         25    1    4    4    0    0  0.17037242552E+02 -0.26197912380E+01 -0.28095422755E+02  0.12935993128E+03  0.12509000000E+03 0.  0.
         25    1    4    4    0    0  0.62581092179E+02 -0.19049708845E+02  0.39193257077E+02  0.14650223208E+03  0.12509000000E+03 0.  0.
<mgrwt>
<rscale>  2 0.46357487E+03</rscale>
<asrwt>0</asrwt>
<pdfrwt beam="1">  1       21 0.48672878E-01 0.46357487E+03</pdfrwt>
<pdfrwt beam="2">  1       21 0.23871237E-01 0.46357487E+03</pdfrwt>
<totfact> 0.61452977E+04</totfact>
</mgrwt>
</event>
<event>
 7    0  0.4712189E-002  0.4509186E+03  0.7546771E-02  0.1027448E+00
         21   -1    0    0  502  501  0.00000000000E+00  0.00000000000E+00  0.91883764403E+02  0.91883764403E+02  0.00000000000E+00 0.  1.
         21   -1    0    0  501  502 -0.00000000000E+00 -0.00000000000E+00 -0.55321948555E+03  0.55321948555E+03  0.00000000000E+00 0.  1.
      99926    2    1    2    0    0  0.71054273576E-14  0.00000000000E+00 -0.46133572114E+03  0.64510324995E+03  0.45091856858E+03 0.  0.
      99925    2    3    3    0    0 -0.32410992383E+02 -0.72580178728E+02 -0.39891448159E+03  0.48428573219E+03  0.26283369649E+03 0.  0.
         25    1    3    3    0    0  0.32410992383E+02  0.72580178728E+02 -0.62421239554E+02  0.16081751776E+03  0.12509000000E+03 0.  0.
         25    1    4    4    0    0  0.23505618747E+02 -0.27871921308E+02 -0.19784075972E+03  0.23689202691E+03  0.12509000000E+03 0.  0.
         25    1    4    4    0    0 -0.55916611129E+02 -0.44708257421E+02 -0.20107372187E+03  0.24739370527E+03  0.12509000000E+03 0.  0.
<mgrwt>
<rscale>  2 0.45091857E+03</rscale>
<asrwt>0</asrwt>
<pdfrwt beam="1">  1       21 0.13512319E-01 0.45091857E+03</pdfrwt>
<pdfrwt beam="2">  1       21 0.81355805E-01 0.45091857E+03</pdfrwt>
<totfact> 0.57824172E+04</totfact>
</mgrwt>
</event>
<event>
 7    0  0.4712189E-002  0.4447459E+03  0.7546771E-02  0.1029301E+00
         21   -1    0    0  502  501  0.00000000000E+00  0.00000000000E+00  0.78762415893E+03  0.78762415893E+03  0.00000000000E+00 0. -1.
         21   -1    0    0  501  502 -0.00000000000E+00 -0.00000000000E+00 -0.62783419369E+02  0.62783419369E+02  0.00000000000E+00 0. -1.
      99926    2    1    2    0    0  0.17763568394E-14  0.22204460493E-15  0.72484073956E+03  0.85040757830E+03  0.44474594040E+03 0.  0.
      99925    2    3    3    0    0  0.70789334421E+01  0.13267182540E+01  0.65733383370E+03  0.70808202923E+03  0.26313593388E+03 0.  0.
         25    1    3    3    0    0 -0.70789334421E+01 -0.13267182540E+01  0.67506905853E+02  0.14232554907E+03  0.12509000000E+03 0.  0.
         25    1    4    4    0    0 -0.22845421975E+02 -0.24014275658E+02  0.37749236605E+03  0.39905713033E+03  0.12509000000E+03 0.  0.
         25    1    4    4    0    0  0.29924355417E+02  0.25340993912E+02  0.27984146766E+03  0.30902489890E+03  0.12509000000E+03 0.  0.
<mgrwt>
<rscale>  2 0.44474594E+03</rscale>
<asrwt>0</asrwt>
<pdfrwt beam="1">  1       21 0.11582708E+00 0.44474594E+03</pdfrwt>
<pdfrwt beam="2">  1       21 0.92328562E-02 0.44474594E+03</pdfrwt>
<totfact> 0.49265957E+04</totfact>
</mgrwt>
</event>
<event>
 7    0  0.4712189E-002  0.4531465E+03  0.7546771E-02  0.1026788E+00
         21   -1    0    0  502  501  0.00000000000E+00  0.00000000000E+00  0.11037358028E+03  0.11037358028E+03  0.00000000000E+00 0. -1.
         21   -1    0    0  501  502 -0.00000000000E+00 -0.00000000000E+00 -0.46510611942E+03  0.46510611942E+03  0.00000000000E+00 0. -1.
      99926    2    1    2    0    0 -0.35527136788E-14  0.14210854715E-13 -0.35473253914E+03  0.57547969970E+03  0.45314645584E+03 0.  0.
      99925    2    3    3    0    0  0.11471074616E+02 -0.90346893722E+02 -0.30506924091E+03  0.41297401349E+03  0.26303259744E+03 0.  0.
         25    1    4    4    0    0 -0.22942097111E+02 -0.28966282705E+02 -0.10896773784E+03  0.16996135250E+03  0.12509000000E+03 0.  0.
         25    1    3    3    0    0 -0.11471074616E+02  0.90346893722E+02 -0.49663298231E+02  0.16250568621E+03  0.12509000000E+03 0.  0.
         25    1    4    4    0    0  0.34413171727E+02 -0.61380611018E+02 -0.19610150307E+03  0.24301266100E+03  0.12509000000E+03 0.  0.
<mgrwt>
<rscale>  2 0.45314646E+03</rscale>
<asrwt>0</asrwt>
<pdfrwt beam="1">  1       21 0.16231409E-01 0.45314646E+03</pdfrwt>
<pdfrwt beam="2">  1       21 0.68397958E-01 0.45314646E+03</pdfrwt>
<totfact> 0.61104111E+04</totfact>
</mgrwt>
</event>
<event>
 6    0  0.4712189E-002  0.4555591E+03  0.7546771E-02  0.1026077E+00
         21   -1    0    0  502  501  0.00000000000E+00  0.00000000000E+00  0.39625671575E+02  0.39625671575E+02  0.00000000000E+00 0. -1.
         21   -1    0    0  501  502 -0.00000000000E+00 -0.00000000000E+00 -0.13093412508E+04  0.13093412508E+04  0.00000000000E+00 0. -1.
      99926    2    1    2    0    0  0.00000000000E+00  0.00000000000E+00 -0.12697155793E+04  0.13489669224E+04  0.45555911311E+03 0.  0.
         25    1    3    3    0    0 -0.22087278521E+02  0.59166503966E+02 -0.43585921487E+03  0.45783106748E+03  0.12509000000E+03 0.  0.
         25    1    3    3    0    0 -0.64666785066E+02 -0.21298518026E+02 -0.53474791355E+03  0.55338798244E+03  0.12509000000E+03 0.  0.
         25    1    3    3    0    0  0.86754063587E+02 -0.37867985940E+02 -0.29910845084E+03  0.33774787249E+03  0.12509000000E+03 0.  0.
<mgrwt>
<rscale>  2 0.45555911E+03</rscale>
<asrwt>0</asrwt>
<pdfrwt beam="1">  1       21 0.58273055E-02 0.45555911E+03</pdfrwt>
<pdfrwt beam="2">  1       21 0.19255016E+00 0.45555911E+03</pdfrwt>
<totfact> 0.27604060E+04</totfact>
</mgrwt>
</event>
<event>
 7    0  0.4712189E-002  0.4514741E+03  0.7546771E-02  0.1027283E+00
         21   -1    0    0  502  501  0.00000000000E+00  0.00000000000E+00  0.43067578192E+02  0.43067578192E+02  0.00000000000E+00 0. -1.
         21   -1    0    0  501  502 -0.00000000000E+00 -0.00000000000E+00 -0.11831922700E+04  0.11831922700E+04  0.00000000000E+00 0. -1.
      99926    2    1    2    0    0  0.14210854715E-13  0.00000000000E+00 -0.11401246918E+04  0.12262598482E+04  0.45147414369E+03 0.  0.
      99925    2    3    3    0    0 -0.89176325787E+02  0.46125553813E+02 -0.84051838992E+03  0.88641955037E+03  0.26303701582E+03 0.  0.
         25    1    3    3    0    0  0.89176325787E+02 -0.46125553813E+02 -0.29960630192E+03  0.33984029785E+03  0.12509000000E+03 0.  0.
         25    1    4    4    0    0 -0.11300649178E+02  0.42705961244E+02 -0.44394517956E+03  0.46334256695E+03  0.12509000000E+03 0.  0.
         25    1    4    4    0    0 -0.77875676609E+02  0.34195925692E+01 -0.39657321036E+03  0.42307698342E+03  0.12509000000E+03 0.  0.
<mgrwt>
<rscale>  2 0.45147414E+03</rscale>
<asrwt>0</asrwt>
<pdfrwt beam="1">  1       21 0.63334675E-02 0.45147414E+03</pdfrwt>
<pdfrwt beam="2">  1       21 0.17399886E+00 0.45147414E+03</pdfrwt>
<totfact> 0.32208873E+04</totfact>
</mgrwt>
</event>
<event>
 7    0  0.4712189E-002  0.4619978E+03  0.7546771E-02  0.1024203E+00
         21   -1    0    0  502  501  0.00000000000E+00  0.00000000000E+00  0.52019125164E+02  0.52019125164E+02  0.00000000000E+00 0.  1.
         21   -1    0    0  501  502 -0.00000000000E+00 -0.00000000000E+00 -0.10257858260E+04  0.10257858260E+04  0.00000000000E+00 0.  1.
      99926    2    1    2    0    0 -0.14210854715E-13  0.00000000000E+00 -0.97376670082E+03  0.10778049512E+04  0.46199775443E+03 0.  0.
      99925    2    3    3    0    0  0.90460459639E+02  0.74460200563E+02 -0.66504244141E+03  0.72469647961E+03  0.26301354044E+03 0.  0.
         25    1    3    3    0    0 -0.90460459639E+02 -0.74460200563E+02 -0.30872425942E+03  0.35310847155E+03  0.12509000000E+03 0.  0.
         25    1    4    4    0    0  0.63994679197E+02  0.55478323266E+02 -0.43952545313E+03  0.46476154678E+03  0.12509000000E+03 0.  0.
         25    1    4    4    0    0  0.26465780442E+02  0.18981877297E+02 -0.22551698828E+03  0.25993493282E+03  0.12509000000E+03 0.  0.
<mgrwt>
<rscale>  2 0.46199775E+03</rscale>
<asrwt>0</asrwt>
<pdfrwt beam="1">  1       21 0.76498720E-02 0.46199775E+03</pdfrwt>
<pdfrwt beam="2">  1       21 0.15085084E+00 0.46199775E+03</pdfrwt>
<totfact> 0.34358596E+04</totfact>
</mgrwt>
</event>
<event>
 7    0  0.4712189E-002  0.4572733E+03  0.7546771E-02  0.1025575E+00
         21   -1    0    0  502  501  0.00000000000E+00  0.00000000000E+00  0.21260410381E+03  0.21260410381E+03  0.00000000000E+00 0. -1.
         21   -1    0    0  501  502 -0.00000000000E+00 -0.00000000000E+00 -0.24587824348E+03  0.24587824348E+03  0.00000000000E+00 0. -1.
      99926    2    1    2    0    0  0.00000000000E+00  0.38857805862E-15 -0.33274139667E+02  0.45848234730E+03  0.45727332572E+03 0.  0.
      99925    2    3    3    0    0 -0.11329297206E+03 -0.32195289455E+00  0.76151725082E-01  0.28644993405E+03  0.26309343919E+03 0.  0.
         25    1    3    3    0    0  0.11329297206E+03  0.32195289455E+00 -0.33350291393E+02  0.17203241325E+03  0.12509000000E+03 0.  0.
         25    1    4    4    0    0 -0.21618837077E+02 -0.95781473806E+01  0.23122129601E+02  0.12938800563E+03  0.12509000000E+03 0.  0.
         25    1    4    4    0    0 -0.91674134985E+02  0.92561944860E+01 -0.23045977875E+02  0.15706192842E+03  0.12509000000E+03 0.  0.
<mgrwt>
<rscale>  2 0.45727333E+03</rscale>
<asrwt>0</asrwt>
<pdfrwt beam="1">  1       21 0.31265309E-01 0.45727333E+03</pdfrwt>
<pdfrwt beam="2">  1       21 0.36158565E-01 0.45727333E+03</pdfrwt>
<totfact> 0.67066708E+04</totfact>
</mgrwt>
</event>
<event>
 7    0  0.4712189E-002  0.4489861E+03  0.7546771E-02  0.1028025E+00
         21   -1    0    0  502  501  0.00000000000E+00  0.00000000000E+00  0.79915743789E+02  0.79915743789E+02  0.00000000000E+00 0. -1.
         21   -1    0    0  501  502 -0.00000000000E+00 -0.00000000000E+00 -0.63062835957E+03  0.63062835957E+03  0.00000000000E+00 0. -1.
      99926    2    1    2    0    0  0.00000000000E+00  0.17763568394E-14 -0.55071261578E+03  0.71054410336E+03  0.44898612188E+03 0.  0.
      99925    2    3    3    0    0 -0.77292660116E+02  0.12809977721E+02 -0.23189361051E+03  0.35921616957E+03  0.26291321581E+03 0.  0.
         25    1    3    3    0    0  0.77292660116E+02 -0.12809977721E+02 -0.31881900527E+03  0.35132793378E+03  0.12509000000E+03 0.  0.
         25    1    4    4    0    0 -0.45094772103E+02 -0.18466490729E+02 -0.75644751492E+02  0.15409148672E+03  0.12509000000E+03 0.  0.
         25    1    4    4    0    0 -0.32197888014E+02  0.31276468450E+02 -0.15624885902E+03  0.20512468286E+03  0.12509000000E+03 0.  0.
<mgrwt>
<rscale>  2 0.44898612E+03</rscale>
<asrwt>0</asrwt>
<pdfrwt beam="1">  1       21 0.11752315E-01 0.44898612E+03</pdfrwt>
<pdfrwt beam="2">  1       21 0.92739463E-01 0.44898612E+03</pdfrwt>
<totfact> 0.54885338E+04</totfact>
</mgrwt>
</event>
<event>
 7    0  0.4712189E-002  0.4652142E+03  0.7546771E-02  0.1023280E+00
         21   -1    0    0  502  501  0.00000000000E+00  0.00000000000E+00  0.29603085682E+02  0.29603085682E+02  0.00000000000E+00 0.  1.
         21   -1    0    0  501  502 -0.00000000000E+00 -0.00000000000E+00 -0.18277173429E+04  0.18277173429E+04  0.00000000000E+00 0.  1.
      99926    2    1    2    0    0 -0.14210854715E-13  0.00000000000E+00 -0.17981142572E+04  0.18573204285E+04  0.46521424356E+03 0.  0.
      99925    2    3    3    0    0  0.11967908278E+03 -0.23342774645E+02 -0.10721905852E+04  0.11106741578E+04  0.26293814067E+03 0.  0.
         25    1    4    4    0    0  0.90276866125E+02 -0.22565472383E+02 -0.47934124970E+03  0.50405818599E+03  0.12509000000E+03 0.  0.
         25    1    3    3    0    0 -0.11967908278E+03  0.23342774645E+02 -0.72592367197E+03  0.74664627075E+03  0.12509000000E+03 0.  0.
         25    1    4    4    0    0  0.29402216658E+02 -0.77730226211E+00 -0.59284933550E+03  0.60661597180E+03  0.12509000000E+03 0.  0.
<mgrwt>
<rscale>  2 0.46521424E+03</rscale>
<asrwt>0</asrwt>
<pdfrwt beam="1">  1       21 0.43533941E-02 0.46521424E+03</pdfrwt>
<pdfrwt beam="2">  1       21 0.26878201E+00 0.46521424E+03</pdfrwt>
<totfact> 0.14960682E+04</totfact>
</mgrwt>
</event>
<event>
 7    0  0.4712189E-002  0.4591089E+03  0.7546771E-02  0.1025040E+00
         21   -1    0    0  502  501  0.00000000000E+00  0.00000000000E+00  0.11665319302E+04  0.11665319302E+04  0.00000000000E+00 0.  1.
         21   -1    0    0  501  502 -0.00000000000E+00 -0.00000000000E+00 -0.45172571503E+02  0.45172571503E+02  0.00000000000E+00 0.  1.
      99926    2    1    2    0    0  0.00000000000E+00 -0.14210854715E-13  0.11213593587E+04  0.12117045018E+04  0.45910890660E+03 0.  0.
      99925    2    3    3    0    0 -0.37080994061E+02 -0.69569633206E+02  0.93114029488E+03  0.97077767812E+03  0.26300592695E+03 0.  0.
         25    1    4    4    0    0  0.21212403344E+02 -0.42507722981E+02  0.46867386072E+03  0.48740082929E+03  0.12509000000E+03 0.  0.
         25    1    3    3    0    0  0.37080994061E+02  0.69569633206E+02  0.19021906387E+03  0.24092682363E+03  0.12509000000E+03 0.  0.
         25    1    4    4    0    0 -0.58293397406E+02 -0.27061910225E+02  0.46246643416E+03  0.48337684884E+03  0.12509000000E+03 0.  0.
<mgrwt>
<rscale>  2 0.45910891E+03</rscale>
<asrwt>0</asrwt>
<pdfrwt beam="1">  1       21 0.17154879E+00 0.45910891E+03</pdfrwt>
<pdfrwt beam="2">  1       21 0.66430260E-02 0.45910891E+03</pdfrwt>
<totfact> 0.30789888E+04</totfact>
</mgrwt>
</event>
<event>
 7    0  0.4712189E-002  0.4611029E+03  0.7546771E-02  0.1024462E+00
         21   -1    0    0  502  501  0.00000000000E+00  0.00000000000E+00  0.39091799869E+02  0.39091799869E+02  0.00000000000E+00 0.  1.
         21   -1    0    0  501  502 -0.00000000000E+00 -0.00000000000E+00 -0.13597215049E+04  0.13597215049E+04  0.00000000000E+00 0.  1.
      99926    2    1    2    0    0  0.00000000000E+00 -0.35527136788E-14 -0.13206297050E+04  0.13988133048E+04  0.46110285598E+03 0.  0.
      99925    2    3    3    0    0 -0.93481153049E+02 -0.31883482401E+02 -0.10269517090E+04  0.10646732804E+04  0.26295265541E+03 0.  0.
         25    1    4    4    0    0 -0.38731961357E+02 -0.54646902507E+02 -0.48604574117E+03  0.50633429609E+03  0.12509000000E+03 0.  0.
         25    1    3    3    0    0  0.93481153049E+02  0.31883482401E+02 -0.29367799607E+03  0.33414002439E+03  0.12509000000E+03 0.  0.
         25    1    4    4    0    0 -0.54749191692E+02  0.22763420106E+02 -0.54090596781E+03  0.55833898431E+03  0.12509000000E+03 0.  0.
<mgrwt>
<rscale>  2 0.46110286E+03</rscale>
<asrwt>0</asrwt>
<pdfrwt beam="1">  1       21 0.57487932E-02 0.46110286E+03</pdfrwt>
<pdfrwt beam="2">  1       21 0.19995908E+00 0.46110286E+03</pdfrwt>
<totfact> 0.25149564E+04</totfact>
</mgrwt>
</event>
<event>
 7    0  0.4712189E-002  0.4558114E+03  0.7546771E-02  0.1026003E+00
         21   -1    0    0  502  501  0.00000000000E+00  0.00000000000E+00  0.47246529274E+02  0.47246529274E+02  0.00000000000E+00 0. -1.
         21   -1    0    0  501  502 -0.00000000000E+00 -0.00000000000E+00 -0.10993615371E+04  0.10993615371E+04  0.00000000000E+00 0. -1.
      99926    2    1    2    0    0  0.71054273576E-14  0.14210854715E-13 -0.10521150079E+04  0.11466080664E+04  0.45581143929E+03 0.  0.
      99925    2    3    3    0    0 -0.45468537184E+02  0.10351729373E+03 -0.63078645343E+03  0.69279260077E+03  0.26322389685E+03 0.  0.
         25    1    4    4    0    0 -0.46862379419E+02  0.29511309822E+02 -0.24616206917E+03  0.28162079541E+03  0.12509000000E+03 0.  0.
         25    1    3    3    0    0  0.45468537184E+02 -0.10351729373E+03 -0.42132855443E+03  0.45381546563E+03  0.12509000000E+03 0.  0.
         25    1    4    4    0    0  0.13938422347E+01  0.74005983906E+02 -0.38462438426E+03  0.41117180535E+03  0.12509000000E+03 0.  0.
<mgrwt>
<rscale>  2 0.45581144E+03</rscale>
<asrwt>0</asrwt>
<pdfrwt beam="1">  1       21 0.69480184E-02 0.45581144E+03</pdfrwt>
<pdfrwt beam="2">  1       21 0.16167083E+00 0.45581144E+03</pdfrwt>
<totfact> 0.33682292E+04</totfact>
</mgrwt>
</event>
<event>
 7    0  0.4712189E-002  0.4304364E+03  0.7546771E-02  0.1033722E+00
         21   -1    0    0  502  501  0.00000000000E+00  0.00000000000E+00  0.35106766055E+02  0.35106766055E+02  0.00000000000E+00 0.  1.
         21   -1    0    0  501  502 -0.00000000000E+00 -0.00000000000E+00 -0.13193719799E+04  0.13193719799E+04  0.00000000000E+00 0.  1.
      99926    2    1    2    0    0  0.00000000000E+00  0.35527136788E-14 -0.12842652138E+04  0.13544787460E+04  0.43043644566E+03 0.  0.
      99925    2    3    3    0    0  0.80839495010E+02 -0.19984158659E+02 -0.91882384671E+03  0.95934675350E+03  0.26301053517E+03 0.  0.
         25    1    4    4    0    0  0.27753414815E+02 -0.35029603992E+02 -0.35096969165E+03  0.37526598267E+03  0.12509000000E+03 0.  0.
         25    1    3    3    0    0 -0.80839495010E+02  0.19984158659E+02 -0.36544136714E+03  0.39513199246E+03  0.12509000000E+03 0.  0.
         25    1    4    4    0    0  0.53086080195E+02  0.15045445333E+02 -0.56785415506E+03  0.58408077083E+03  0.12509000000E+03 0.  0.
<mgrwt>
<rscale>  2 0.43043645E+03</rscale>
<asrwt>0</asrwt>
<pdfrwt beam="1">  1       21 0.51627598E-02 0.43043645E+03</pdfrwt>
<pdfrwt beam="2">  1       21 0.19402529E+00 0.43043645E+03</pdfrwt>
<totfact> 0.33530516E+04</totfact>
</mgrwt>
</event>
<event>
 7    0  0.4712189E-002  0.4532787E+03  0.7546771E-02  0.1026749E+00
         21   -1    0    0  502  501  0.00000000000E+00  0.00000000000E+00  0.14353401216E+03  0.14353401216E+03  0.00000000000E+00 0. -1.
         21   -1    0    0  501  502 -0.00000000000E+00 -0.00000000000E+00 -0.35786213149E+03  0.35786213149E+03  0.00000000000E+00 0. -1.
      99926    2    1    2    0    0  0.00000000000E+00 -0.17763568394E-14 -0.21432811933E+03  0.50139614366E+03  0.45327866720E+03 0.  0.
      99925    2    3    3    0    0  0.25844355552E+02 -0.12872991588E+02 -0.25426613566E+03  0.36694839219E+03  0.26299469607E+03 0.  0.
         25    1    3    3    0    0 -0.25844355552E+02  0.12872991588E+02  0.39938016327E+02  0.13444775147E+03  0.12509000000E+03 0.  0.
         25    1    4    4    0    0  0.11918099657E+01  0.31852847804E+02 -0.11449118155E+03  0.17254495958E+03  0.12509000000E+03 0.  0.
         25    1    4    4    0    0  0.24652545586E+02 -0.44725839392E+02 -0.13977495411E+03  0.19440343261E+03  0.12509000000E+03 0.  0.
<mgrwt>
<rscale>  2 0.45327867E+03</rscale>
<asrwt>0</asrwt>
<pdfrwt beam="1">  1       21 0.21107943E-01 0.45327867E+03</pdfrwt>
<pdfrwt beam="2">  1       21 0.52626784E-01 0.45327867E+03</pdfrwt>
<totfact> 0.66070842E+04</totfact>
</mgrwt>
</event>
<event>
 7    0  0.4712189E-002  0.4300715E+03  0.7546771E-02  0.1033837E+00
         21   -1    0    0  502  501  0.00000000000E+00  0.00000000000E+00  0.82256357049E+02  0.82256357049E+02  0.00000000000E+00 0. -1.
         21   -1    0    0  501  502 -0.00000000000E+00 -0.00000000000E+00 -0.56214955009E+03  0.56214955009E+03  0.00000000000E+00 0. -1.
      99926    2    1    2    0    0 -0.35527136788E-14 -0.14210854715E-13 -0.47989319305E+03  0.64440590714E+03  0.43007150153E+03 0.  0.
      99925    2    3    3    0    0 -0.28398273414E+02 -0.70071876218E+02 -0.37686714466E+03  0.46558084035E+03  0.26271685215E+03 0.  0.
         25    1    3    3    0    0  0.28398273414E+02  0.70071876218E+02 -0.10302604838E+03  0.17882506680E+03  0.12509000000E+03 0.  0.
         25    1    4    4    0    0  0.10031679237E+02 -0.60528291702E+02 -0.22746008248E+03  0.26673939699E+03  0.12509000000E+03 0.  0.
         25    1    4    4    0    0 -0.38429952651E+02 -0.95435845154E+01 -0.14940706218E+03  0.19884144335E+03  0.12509000000E+03 0.  0.
<mgrwt>
<rscale>  2 0.43007150E+03</rscale>
<asrwt>0</asrwt>
<pdfrwt beam="1">  1       21 0.12096523E-01 0.43007150E+03</pdfrwt>
<pdfrwt beam="2">  1       21 0.82669053E-01 0.43007150E+03</pdfrwt>
<totfact> 0.68536812E+04</totfact>
</mgrwt>
</event>
<event>
 7    0  0.4712189E-002  0.4411917E+03  0.7546771E-02  0.1030382E+00
         21   -1    0    0  502  501  0.00000000000E+00  0.00000000000E+00  0.71999586187E+03  0.71999586187E+03  0.00000000000E+00 0. -1.
         21   -1    0    0  501  502 -0.00000000000E+00 -0.00000000000E+00 -0.67587242384E+02  0.67587242384E+02  0.00000000000E+00 0. -1.
      99926    2    1    2    0    0  0.00000000000E+00  0.00000000000E+00  0.65240861948E+03  0.78758310425E+03  0.44119172627E+03 0.  0.
      99925    2    3    3    0    0 -0.46743680148E+02  0.17584262347E+02  0.56990825354E+03  0.62963375669E+03  0.26296211170E+03 0.  0.
         25    1    3    3    0    0  0.46743680148E+02 -0.17584262347E+02  0.82500365944E+02  0.15794934757E+03  0.12509000000E+03 0.  0.
         25    1    4    4    0    0 -0.42943604956E+01 -0.15914456978E+02  0.21261603780E+03  0.24723430002E+03  0.12509000000E+03 0.  0.
         25    1    4    4    0    0 -0.42449319652E+02  0.33498719325E+02  0.35729221574E+03  0.38239945667E+03  0.12509000000E+03 0.  0.
<mgrwt>
<rscale>  2 0.44119173E+03</rscale>
<asrwt>0</asrwt>
<pdfrwt beam="1">  1       21 0.10588174E+00 0.44119173E+03</pdfrwt>
<pdfrwt beam="2">  1       21 0.99393008E-02 0.44119173E+03</pdfrwt>
<totfact> 0.53989012E+04</totfact>
</mgrwt>
</event>
<event>
 7    0  0.4712189E-002  0.4460124E+03  0.7546771E-02  0.1028918E+00
         21   -1    0    0  502  501  0.00000000000E+00  0.00000000000E+00  0.46124536944E+02  0.46124536944E+02  0.00000000000E+00 0. -1.
         21   -1    0    0  501  502 -0.00000000000E+00 -0.00000000000E+00 -0.10782060930E+04  0.10782060930E+04  0.00000000000E+00 0. -1.
      99926    2    1    2    0    0  0.00000000000E+00  0.00000000000E+00 -0.10320815561E+04  0.11243306299E+04  0.44601236202E+03 0.  0.
      99925    2    3    3    0    0 -0.47634964553E+02 -0.65866164635E+01 -0.42132218647E+03  0.49904110580E+03  0.26309155650E+03 0.  0.
         25    1    4    4    0    0  0.11170725554E+02  0.16556601915E+02 -0.21715059923E+03  0.25139768699E+03  0.12509000000E+03 0.  0.
         25    1    4    4    0    0 -0.58805690107E+02 -0.23143218379E+02 -0.20417158723E+03  0.24764341881E+03  0.12509000000E+03 0.  0.
         25    1    3    3    0    0  0.47634964553E+02  0.65866164635E+01 -0.61075936959E+03  0.62528952414E+03  0.12509000000E+03 0.  0.
<mgrwt>
<rscale>  2 0.44601236E+03</rscale>
<asrwt>0</asrwt>
<pdfrwt beam="1">  1       21 0.67830205E-02 0.44601236E+03</pdfrwt>
<pdfrwt beam="2">  1       21 0.15855971E+00 0.44601236E+03</pdfrwt>
<totfact> 0.37189214E+04</totfact>
</mgrwt>
</event>
<event>
 7    0  0.4712189E-002  0.4476393E+03  0.7546771E-02  0.1028428E+00
         21   -1    0    0  502  501  0.00000000000E+00  0.00000000000E+00  0.18511769938E+03  0.18511769938E+03  0.00000000000E+00 0. -1.
         21   -1    0    0  501  502 -0.00000000000E+00 -0.00000000000E+00 -0.27061294869E+03  0.27061294869E+03  0.00000000000E+00 0. -1.
      99926    2    1    2    0    0 -0.35527136788E-14  0.00000000000E+00 -0.85495249317E+02  0.45573064807E+03  0.44763934807E+03 0.  0.
      99925    2    3    3    0    0 -0.22846613129E+02  0.74296975949E+02  0.19281293749E+02  0.27498873140E+03  0.26306848108E+03 0.  0.
         25    1    3    3    0    0  0.22846613129E+02 -0.74296975949E+02 -0.10477654307E+03  0.18074191668E+03  0.12509000000E+03 0.  0.
         25    1    4    4    0    0  0.11584203777E+02  0.11330393361E+02 -0.14220312981E+02  0.12693422309E+03  0.12509000000E+03 0.  0.
         25    1    4    4    0    0 -0.34430816906E+02  0.62966582588E+02  0.33501606731E+02  0.14805450830E+03  0.12509000000E+03 0.  0.
<mgrwt>
<rscale>  2 0.44763935E+03</rscale>
<asrwt>0</asrwt>
<pdfrwt beam="1">  1       21 0.27223191E-01 0.44763935E+03</pdfrwt>
<pdfrwt beam="2">  1       21 0.39796022E-01 0.44763935E+03</pdfrwt>
<totfact> 0.72663376E+04</totfact>
</mgrwt>
</event>
<event>
 7    0  0.4712189E-002  0.4544420E+03  0.7546771E-02  0.1026406E+00
         21   -1    0    0  502  501  0.00000000000E+00  0.00000000000E+00  0.32806752946E+03  0.32806752946E+03  0.00000000000E+00 0.  1.
         21   -1    0    0  501  502 -0.00000000000E+00 -0.00000000000E+00 -0.15737426399E+03  0.15737426399E+03  0.00000000000E+00 0.  1.
      99926    2    1    2    0    0 -0.35527136788E-14 -0.14210854715E-13  0.17069326547E+03  0.48544179345E+03  0.45444201385E+03 0.  0.
      99925    2    3    3    0    0 -0.21523918758E+02 -0.93037017388E+02  0.17086263738E+03  0.32806739124E+03  0.26327743287E+03 0.  0.
         25    1    4    4    0    0 -0.15424238208E+02 -0.76542740230E+02  0.12618361755E+03  0.19407862233E+03  0.12509000000E+03 0.  0.
         25    1    3    3    0    0  0.21523918758E+02  0.93037017388E+02 -0.16937191268E+00  0.15737440221E+03  0.12509000000E+03 0.  0.
         25    1    4    4    0    0 -0.60996805498E+01 -0.16494277158E+02  0.44679019827E+02  0.13398876891E+03  0.12509000000E+03 0.  0.
<mgrwt>
<rscale>  2 0.45444201E+03</rscale>
<asrwt>0</asrwt>
<pdfrwt beam="1">  1       21 0.48245225E-01 0.45444201E+03</pdfrwt>
<pdfrwt beam="2">  1       21 0.23143274E-01 0.45444201E+03</pdfrwt>
<totfact> 0.66600586E+04</totfact>
</mgrwt>
</event>
<event>
 7    0  0.4712189E-002  0.4565250E+03  0.7546771E-02  0.1025794E+00
         21   -1    0    0  502  501  0.00000000000E+00  0.00000000000E+00  0.42662071786E+03  0.42662071786E+03  0.00000000000E+00 0.  1.
         21   -1    0    0  501  502 -0.00000000000E+00 -0.00000000000E+00 -0.12213137244E+03  0.12213137244E+03  0.00000000000E+00 0.  1.
      99926    2    1    2    0    0  0.00000000000E+00  0.00000000000E+00  0.30448934542E+03  0.54875209031E+03  0.45652502137E+03 0.  0.
      99925    2    3    3    0    0  0.28552526419E+02  0.84731407596E+02  0.10510833305E+03  0.29696854360E+03  0.26295987529E+03 0.  0.
         25    1    4    4    0    0  0.41294843572E+02  0.66244164962E+02  0.33920614576E+02  0.15129993288E+03  0.12509000000E+03 0.  0.
         25    1    3    3    0    0 -0.28552526419E+02 -0.84731407596E+02  0.19938101237E+03  0.25178354671E+03  0.12509000000E+03 0.  0.
         25    1    4    4    0    0 -0.12742317153E+02  0.18487242635E+02  0.71187718474E+02  0.14566861072E+03  0.12509000000E+03 0.  0.
<mgrwt>
<rscale>  2 0.45652502E+03</rscale>
<asrwt>0</asrwt>
<pdfrwt beam="1">  1       21 0.62738341E-01 0.45652502E+03</pdfrwt>
<pdfrwt beam="2">  1       21 0.17960496E-01 0.45652502E+03</pdfrwt>
<totfact> 0.61207160E+04</totfact>
</mgrwt>
</event>
<event>
 7    0  0.4712189E-002  0.4593935E+03  0.7546771E-02  0.1024957E+00
         21   -1    0    0  502  501  0.00000000000E+00  0.00000000000E+00  0.12849719495E+03  0.12849719495E+03  0.00000000000E+00 0.  1.
         21   -1    0    0  501  502 -0.00000000000E+00 -0.00000000000E+00 -0.41059723358E+03  0.41059723358E+03  0.00000000000E+00 0.  1.
      99926    2    1    2    0    0  0.00000000000E+00 -0.71054273576E-14 -0.28210003863E+03  0.53909442853E+03  0.45939348175E+03 0.  0.
      99925    2    3    3    0    0 -0.79167844945E+02 -0.40339984921E+02 -0.87024891339E+02  0.29090763749E+03  0.26298110157E+03 0.  0.
         25    1    4    4    0    0 -0.57417033289E+02  0.14526594639E+02 -0.32027557745E+02  0.14205988251E+03  0.12509000000E+03 0.  0.
         25    1    3    3    0    0  0.79167844945E+02  0.40339984921E+02 -0.19507514729E+03  0.24818679104E+03  0.12509000000E+03 0.  0.
         25    1    4    4    0    0 -0.21750811656E+02 -0.54866579559E+02 -0.54997333594E+02  0.14884775498E+03  0.12509000000E+03 0.  0.
<mgrwt>
<rscale>  2 0.45939348E+03</rscale>
<asrwt>0</asrwt>
<pdfrwt beam="1">  1       21 0.18896647E-01 0.45939348E+03</pdfrwt>
<pdfrwt beam="2">  1       21 0.60381945E-01 0.45939348E+03</pdfrwt>
<totfact> 0.60462253E+04</totfact>
</mgrwt>
</event>
<event>
 7    0  0.4712189E-002  0.4540038E+03  0.7546771E-02  0.1026535E+00
         21   -1    0    0  502  501  0.00000000000E+00  0.00000000000E+00  0.61573038856E+03  0.61573038856E+03  0.00000000000E+00 0. -1.
         21   -1    0    0  501  502 -0.00000000000E+00 -0.00000000000E+00 -0.83689016614E+02  0.83689016614E+02  0.00000000000E+00 0. -1.
      99926    2    1    2    0    0  0.00000000000E+00 -0.71054273576E-14  0.53204137194E+03  0.69941940517E+03  0.45400383575E+03 0.  0.
      99925    2    3    3    0    0  0.87623922370E+02 -0.41100356952E+02  0.24768612985E+03  0.37403870058E+03  0.26303866541E+03 0.  0.
         25    1    4    4    0    0  0.49065211878E+02  0.59004555051E+01  0.16251149855E+03  0.21094953343E+03  0.12509000000E+03 0.  0.
         25    1    4    4    0    0  0.38558710492E+02 -0.47000812457E+02  0.85174631296E+02  0.16308916715E+03  0.12509000000E+03 0.  0.
         25    1    3    3    0    0 -0.87623922370E+02  0.41100356952E+02  0.28435524209E+03  0.32538070459E+03  0.12509000000E+03 0.  0.
<mgrwt>
<rscale>  2 0.45400384E+03</rscale>
<asrwt>0</asrwt>
<pdfrwt beam="1">  1       21 0.90548584E-01 0.45400384E+03</pdfrwt>
<pdfrwt beam="2">  1       21 0.12307209E-01 0.45400384E+03</pdfrwt>
<totfact> 0.53351525E+04</totfact>
</mgrwt>
</event>
<event>
 7    0  0.4712189E-002  0.4539098E+03  0.7546771E-02  0.1026562E+00
         21   -1    0    0  502  501  0.00000000000E+00  0.00000000000E+00  0.52236376304E+03  0.52236376304E+03  0.00000000000E+00 0. -1.
         21   -1    0    0  501  502 -0.00000000000E+00 -0.00000000000E+00 -0.98606629825E+02  0.98606629825E+02  0.00000000000E+00 0. -1.
      99926    2    1    2    0    0  0.71054273576E-14  0.00000000000E+00  0.42375713322E+03  0.62097039287E+03  0.45390981578E+03 0.  0.
      99925    2    3    3    0    0  0.38269142600E+02 -0.80420539411E+02  0.35992951816E+03  0.45467708880E+03  0.26315395988E+03 0.  0.
         25    1    4    4    0    0 -0.13608990180E+02 -0.64235841054E+02  0.17552539086E+03  0.22531781738E+03  0.12509000000E+03 0.  0.
         25    1    4    4    0    0  0.51878132780E+02 -0.16184698357E+02  0.18440412730E+03  0.22935927142E+03  0.12509000000E+03 0.  0.
         25    1    3    3    0    0 -0.38269142600E+02  0.80420539411E+02  0.63827615054E+02  0.16629330407E+03  0.12509000000E+03 0.  0.
<mgrwt>
<rscale>  2 0.45390982E+03</rscale>
<asrwt>0</asrwt>
<pdfrwt beam="1">  1       21 0.76818199E-01 0.45390982E+03</pdfrwt>
<pdfrwt beam="2">  1       21 0.14500975E-01 0.45390982E+03</pdfrwt>
<totfact> 0.57902541E+04</totfact>
</mgrwt>
</event>
<event>
 7    0  0.4712189E-002  0.4561645E+03  0.7546771E-02  0.1025900E+00
         21   -1    0    0  502  501  0.00000000000E+00  0.00000000000E+00  0.21768691504E+03  0.21768691504E+03  0.00000000000E+00 0. -1.
         21   -1    0    0  501  502 -0.00000000000E+00 -0.00000000000E+00 -0.23897405068E+03  0.23897405068E+03  0.00000000000E+00 0. -1.
      99926    2    1    2    0    0 -0.14210854715E-13 -0.71054273576E-14 -0.21287135640E+02  0.45666096573E+03  0.45616454868E+03 0.  0.
      99925    2    3    3    0    0 -0.73115427448E+02 -0.41026841567E+02  0.64360970395E+02  0.28342074630E+03  0.26297512708E+03 0.  0.
         25    1    3    3    0    0  0.73115427448E+02  0.41026841567E+02 -0.85648106036E+02  0.17324021943E+03  0.12509000000E+03 0.  0.
         25    1    4    4    0    0 -0.23814133599E+02  0.13524007934E+02  0.98919246095E+01  0.12843430236E+03  0.12509000000E+03 0.  0.
         25    1    4    4    0    0 -0.49301293849E+02 -0.54550849500E+02  0.54469045786E+02  0.15498644394E+03  0.12509000000E+03 0.  0.
<mgrwt>
<rscale>  2 0.45616455E+03</rscale>
<asrwt>0</asrwt>
<pdfrwt beam="1">  1       21 0.32012781E-01 0.45616455E+03</pdfrwt>
<pdfrwt beam="2">  1       21 0.35143243E-01 0.45616455E+03</pdfrwt>
<totfact> 0.67792203E+04</totfact>
</mgrwt>
</event>
<event>
 7    0  0.4712189E-002  0.4503741E+03  0.7546771E-02  0.1027611E+00
         21   -1    0    0  502  501  0.00000000000E+00  0.00000000000E+00  0.19025353139E+03  0.19025353139E+03  0.00000000000E+00 0.  1.
         21   -1    0    0  501  502 -0.00000000000E+00 -0.00000000000E+00 -0.26653495301E+03  0.26653495301E+03  0.00000000000E+00 0.  1.
      99926    2    1    2    0    0  0.35527136788E-14  0.00000000000E+00 -0.76281421615E+02  0.45678848440E+03  0.45037413802E+03 0.  0.
      99925    2    3    3    0    0 -0.22014729742E+02 -0.11814472499E+02  0.59133380437E+02  0.27075379193E+03  0.26303351322E+03 0.  0.
         25    1    3    3    0    0  0.22014729742E+02  0.11814472499E+02 -0.13541480205E+03  0.18603469247E+03  0.12509000000E+03 0.  0.
         25    1    4    4    0    0 -0.51223649416E+02 -0.12186047376E+02  0.27962152558E+02  0.13857038676E+03  0.12509000000E+03 0.  0.
         25    1    4    4    0    0  0.29208919673E+02  0.37157487777E+00  0.31171227879E+02  0.13218340518E+03  0.12509000000E+03 0.  0.
<mgrwt>
<rscale>  2 0.45037414E+03</rscale>
<asrwt>0</asrwt>
<pdfrwt beam="1">  1       21 0.27978461E-01 0.45037414E+03</pdfrwt>
<pdfrwt beam="2">  1       21 0.39196316E-01 0.45037414E+03</pdfrwt>
<totfact> 0.70998245E+04</totfact>
</mgrwt>
</event>
<event>
 7    0  0.4712189E-002  0.4702837E+03  0.7546771E-02  0.1021840E+00
         21   -1    0    0  502  501  0.00000000000E+00  0.00000000000E+00  0.28543656383E+03  0.28543656383E+03  0.00000000000E+00 0. -1.
         21   -1    0    0  501  502 -0.00000000000E+00 -0.00000000000E+00 -0.19370922085E+03  0.19370922085E+03  0.00000000000E+00 0. -1.
      99926    2    1    2    0    0  0.00000000000E+00  0.00000000000E+00  0.91727342977E+02  0.47914578468E+03  0.47028372025E+03 0.  0.
      99925    2    3    3    0    0  0.80447637949E+02  0.65082192741E+02 -0.17981263558E+02  0.28320956876E+03  0.26301486599E+03 0.  0.
         25    1    4    4    0    0  0.70934674902E+01  0.14692295501E+02  0.12254617406E+02  0.12674330190E+03  0.12509000000E+03 0.  0.
         25    1    4    4    0    0  0.73354170459E+02  0.50389897241E+02 -0.30235880964E+02  0.15646626686E+03  0.12509000000E+03 0.  0.
         25    1    3    3    0    0 -0.80447637949E+02 -0.65082192741E+02  0.10970860653E+03  0.19593621593E+03  0.12509000000E+03 0.  0.
<mgrwt>
<rscale>  2 0.47028372E+03</rscale>
<asrwt>0</asrwt>
<pdfrwt beam="1">  1       21 0.41975965E-01 0.47028372E+03</pdfrwt>
<pdfrwt beam="2">  1       21 0.28486650E-01 0.47028372E+03</pdfrwt>
<totfact> 0.59241575E+04</totfact>
</mgrwt>
</event>
<event>
 7    0  0.4712189E-002  0.4497000E+03  0.7546771E-02  0.1027812E+00
         21   -1    0    0  502  501  0.00000000000E+00  0.00000000000E+00  0.24575388799E+03  0.24575388799E+03  0.00000000000E+00 0.  1.
         21   -1    0    0  501  502 -0.00000000000E+00 -0.00000000000E+00 -0.20572422659E+03  0.20572422659E+03  0.00000000000E+00 0.  1.
      99926    2    1    2    0    0 -0.35527136788E-14  0.00000000000E+00  0.40029661405E+02  0.45147811458E+03  0.44970002685E+03 0.  0.
      99925    2    3    3    0    0 -0.14591004467E+02  0.10522623486E+03  0.77256791883E+01  0.28421630400E+03  0.26350287176E+03 0.  0.
         25    1    4    4    0    0  0.22375023948E+02  0.32019200456E+02  0.25763244407E+02  0.13355569534E+03  0.12509000000E+03 0.  0.
         25    1    3    3    0    0  0.14591004467E+02 -0.10522623486E+03  0.32303982217E+02  0.16726181059E+03  0.12509000000E+03 0.  0.
         25    1    4    4    0    0 -0.36966028415E+02  0.73207034399E+02 -0.18037565219E+02  0.15066060866E+03  0.12509000000E+03 0.  0.
<mgrwt>
<rscale>  2 0.44970003E+03</rscale>
<asrwt>0</asrwt>
<pdfrwt beam="1">  1       21 0.36140278E-01 0.44970003E+03</pdfrwt>
<pdfrwt beam="2">  1       21 0.30253563E-01 0.44970003E+03</pdfrwt>
<totfact> 0.71792774E+04</totfact>
</mgrwt>
</event>
<event>
 7    0  0.4712189E-002  0.4545281E+03  0.7546771E-02  0.1026380E+00
         21   -1    0    0  502  501  0.00000000000E+00  0.00000000000E+00  0.34088106187E+03  0.34088106187E+03  0.00000000000E+00 0.  1.
         21   -1    0    0  501  502 -0.00000000000E+00 -0.00000000000E+00 -0.15151605888E+03  0.15151605888E+03  0.00000000000E+00 0.  1.
      99926    2    1    2    0    0 -0.71054273576E-14  0.00000000000E+00  0.18936500299E+03  0.49239712075E+03  0.45452812912E+03 0.  0.
      99925    2    3    3    0    0 -0.55976441429E+02 -0.70432696972E+02  0.45643525680E+02  0.28168998290E+03  0.26300530077E+03 0.  0.
         25    1    3    3    0    0  0.55976441429E+02  0.70432696972E+02  0.14372147731E+03  0.21070713784E+03  0.12509000000E+03 0.  0.
         25    1    4    4    0    0 -0.37561232655E+02 -0.34209379606E+02 -0.16872613258E+02  0.13606366535E+03  0.12509000000E+03 0.  0.
         25    1    4    4    0    0 -0.18415208774E+02 -0.36223317365E+02  0.62516138939E+02  0.14562631755E+03  0.12509000000E+03 0.  0.
<mgrwt>
<rscale>  2 0.45452813E+03</rscale>
<asrwt>0</asrwt>
<pdfrwt beam="1">  1       21 0.50129568E-01 0.45452813E+03</pdfrwt>
<pdfrwt beam="2">  1       21 0.22281773E-01 0.45452813E+03</pdfrwt>
<totfact> 0.66055248E+04</totfact>
</mgrwt>
</event>
<event>
 7    0  0.4712189E-002  0.4511425E+03  0.7546771E-02  0.1027382E+00
         21   -1    0    0  502  501  0.00000000000E+00  0.00000000000E+00  0.19659996424E+03  0.19659996424E+03  0.00000000000E+00 0.  1.
         21   -1    0    0  501  502 -0.00000000000E+00 -0.00000000000E+00 -0.25881181318E+03  0.25881181318E+03  0.00000000000E+00 0.  1.
      99926    2    1    2    0    0  0.00000000000E+00  0.00000000000E+00 -0.62211848943E+02  0.45541177743E+03  0.45114251947E+03 0.  0.
      99925    2    3    3    0    0  0.99563715701E+02  0.36011623523E+02 -0.10741407295E+02  0.28363725960E+03  0.26291623511E+03 0.  0.
         25    1    3    3    0    0 -0.99563715701E+02 -0.36011623523E+02 -0.51470441648E+02  0.17177451783E+03  0.12509000000E+03 0.  0.
         25    1    4    4    0    0  0.80171111622E+02 -0.92060686844E+01 -0.10319815269E+02  0.14921851603E+03  0.12509000000E+03 0.  0.
         25    1    4    4    0    0  0.19392604079E+02  0.45217692207E+02 -0.42159202626E+00  0.13441874356E+03  0.12509000000E+03 0.  0.
<mgrwt>
<rscale>  2 0.45114252E+03</rscale>
<asrwt>0</asrwt>
<pdfrwt beam="1">  1       21 0.28911760E-01 0.45114252E+03</pdfrwt>
<pdfrwt beam="2">  1       21 0.38060561E-01 0.45114252E+03</pdfrwt>
<totfact> 0.70665197E+04</totfact>
</mgrwt>
</event>
<event>
 7    0  0.4712189E-002  0.4530728E+03  0.7546771E-02  0.1026810E+00
         21   -1    0    0  502  501  0.00000000000E+00  0.00000000000E+00  0.26682263120E+03  0.26682263120E+03  0.00000000000E+00 0.  1.
         21   -1    0    0  501  502 -0.00000000000E+00 -0.00000000000E+00 -0.19233276721E+03  0.19233276721E+03  0.00000000000E+00 0.  1.
      99926    2    1    2    0    0  0.00000000000E+00  0.35527136788E-14  0.74489863991E+02  0.45915539841E+03  0.45307277566E+03 0.  0.
      99925    2    3    3    0    0  0.10164110319E+03 -0.17136407624E+02  0.41572973196E+01  0.28246711821E+03  0.26295592677E+03 0.  0.
         25    1    3    3    0    0 -0.10164110319E+03  0.17136407624E+02  0.70332566671E+02  0.17668828020E+03  0.12509000000E+03 0.  0.
         25    1    4    4    0    0  0.61354993397E+02  0.22434224568E+02  0.25993862953E+02  0.14349536110E+03  0.12509000000E+03 0.  0.
         25    1    4    4    0    0  0.40286109795E+02 -0.39570632193E+02 -0.21836565633E+02  0.13897175711E+03  0.12509000000E+03 0.  0.
<mgrwt>
<rscale>  2 0.45307278E+03</rscale>
<asrwt>0</asrwt>
<pdfrwt beam="1">  1       21 0.39238622E-01 0.45307278E+03</pdfrwt>
<pdfrwt beam="2">  1       21 0.28284230E-01 0.45307278E+03</pdfrwt>
<totfact> 0.69301053E+04</totfact>
</mgrwt>
</event>
<event>
 7    0  0.4712189E-002  0.4573714E+03  0.7546771E-02  0.1025546E+00
         21   -1    0    0  502  501  0.00000000000E+00  0.00000000000E+00  0.31167120444E+03  0.31167120444E+03  0.00000000000E+00 0.  1.
         21   -1    0    0  501  502 -0.00000000000E+00 -0.00000000000E+00 -0.16779588091E+03  0.16779588091E+03  0.00000000000E+00 0.  1.
      99926    2    1    2    0    0  0.00000000000E+00  0.14210854715E-13  0.14387532352E+03  0.47946708535E+03  0.45737137778E+03 0.  0.
      99925    2    3    3    0    0 -0.53473012241E+02 -0.10171276177E+03  0.90034681132E+02  0.30127850037E+03  0.26354817782E+03 0.  0.
         25    1    4    4    0    0 -0.31645976081E+02 -0.83283520218E+02  0.78435366691E+02  0.17244485318E+03  0.12509000000E+03 0.  0.
         25    1    3    3    0    0  0.53473012241E+02  0.10171276177E+03  0.53840642390E+02  0.17818858498E+03  0.12509000000E+03 0.  0.
         25    1    4    4    0    0 -0.21827036160E+02 -0.18429241547E+02  0.11599314441E+02  0.12883364719E+03  0.12509000000E+03 0.  0.
<mgrwt>
<rscale>  2 0.45737138E+03</rscale>
<asrwt>0</asrwt>
<pdfrwt beam="1">  1       21 0.45834000E-01 0.45737138E+03</pdfrwt>
<pdfrwt beam="2">  1       21 0.24675865E-01 0.45737138E+03</pdfrwt>
<totfact> 0.65497445E+04</totfact>
</mgrwt>
</event>
<event>
 7    0  0.4712189E-002  0.4245160E+03  0.7546771E-02  0.1035606E+00
         21   -1    0    0  502  501  0.00000000000E+00  0.00000000000E+00  0.27830909557E+03  0.27830909557E+03  0.00000000000E+00 0.  1.
         21   -1    0    0  501  502 -0.00000000000E+00 -0.00000000000E+00 -0.16188280662E+03  0.16188280662E+03  0.00000000000E+00 0.  1.
      99926    2    1    2    0    0  0.71054273576E-14  0.11102230246E-15  0.11642628895E+03  0.44019190219E+03  0.42451599499E+03 0.  0.
      99925    2    3    3    0    0 -0.56814222874E+02  0.78849523246E+00  0.13527787110E+03  0.30151469464E+03  0.26340563971E+03 0.  0.
         25    1    3    3    0    0  0.56814222874E+02 -0.78849523246E+00 -0.18851582144E+02  0.13867720755E+03  0.12509000000E+03 0.  0.
         25    1    4    4    0    0 -0.14138228551E+02  0.22807092818E+01  0.10946753203E+03  0.16684046215E+03  0.12509000000E+03 0.  0.
         25    1    4    4    0    0 -0.42675994323E+02 -0.14922140494E+01  0.25810339063E+02  0.13467423249E+03  0.12509000000E+03 0.  0.
<mgrwt>
<rscale>  2 0.42451599E+03</rscale>
<asrwt>0</asrwt>
<pdfrwt beam="1">  1       21 0.40927808E-01 0.42451599E+03</pdfrwt>
<pdfrwt beam="2">  1       21 0.23806295E-01 0.42451599E+03</pdfrwt>
<totfact> 0.89473665E+04</totfact>
</mgrwt>
</event>
<event>
 7    0  0.4712189E-002  0.4510412E+03  0.7546771E-02  0.1027412E+00
         21   -1    0    0  502  501  0.00000000000E+00  0.00000000000E+00  0.65730313050E+02  0.65730313050E+02  0.00000000000E+00 0. -1.
         21   -1    0    0  501  502 -0.00000000000E+00 -0.00000000000E+00 -0.77376076360E+03  0.77376076360E+03  0.00000000000E+00 0. -1.
      99926    2    1    2    0    0 -0.17763568394E-14  0.00000000000E+00 -0.70803045055E+03  0.83949107665E+03  0.45104118312E+03 0.  0.
      99925    2    3    3    0    0 -0.12111868102E+02 -0.74965738712E+02 -0.30056870964E+03  0.40654865815E+03  0.26300894072E+03 0.  0.
         25    1    4    4    0    0 -0.26268560203E+02 -0.34527409718E+01 -0.15924080619E+03  0.20422316502E+03  0.12509000000E+03 0.  0.
         25    1    4    4    0    0  0.14156692101E+02 -0.71512997740E+02 -0.14132790346E+03  0.20232549314E+03  0.12509000000E+03 0.  0.
         25    1    3    3    0    0  0.12111868102E+02  0.74965738712E+02 -0.40746174091E+03  0.43294241849E+03  0.12509000000E+03 0.  0.
<mgrwt>
<rscale>  2 0.45104118E+03</rscale>
<asrwt>0</asrwt>
<pdfrwt beam="1">  1       21 0.96662235E-02 0.45104118E+03</pdfrwt>
<pdfrwt beam="2">  1       21 0.11378834E+00 0.45104118E+03</pdfrwt>
<totfact> 0.47367304E+04</totfact>
</mgrwt>
</event>
<event>
 7    0  0.4712189E-002  0.4544183E+03  0.7546771E-02  0.1026413E+00
         21   -1    0    0  502  501  0.00000000000E+00  0.00000000000E+00  0.41955787347E+03  0.41955787347E+03  0.00000000000E+00 0.  1.
         21   -1    0    0  501  502 -0.00000000000E+00 -0.00000000000E+00 -0.12304378526E+03  0.12304378526E+03  0.00000000000E+00 0.  1.
      99926    2    1    2    0    0  0.00000000000E+00 -0.71054273576E-14  0.29651408822E+03  0.54260165873E+03  0.45441826057E+03 0.  0.
      99925    2    3    3    0    0  0.33065528921E+02 -0.53262491069E+02  0.74822928533E+02  0.28044769530E+03  0.26291104391E+03 0.  0.
         25    1    3    3    0    0 -0.33065528921E+02  0.53262491069E+02  0.22169115968E+03  0.26215396343E+03  0.12509000000E+03 0.  0.
         25    1    4    4    0    0  0.29964128599E+02  0.73975535915E+01  0.54580463398E+02  0.13992536542E+03  0.12509000000E+03 0.  0.
         25    1    4    4    0    0  0.31014003214E+01 -0.60660044661E+02  0.20242465135E+02  0.14052232989E+03  0.12509000000E+03 0.  0.
<mgrwt>
<rscale>  2 0.45441826E+03</rscale>
<asrwt>0</asrwt>
<pdfrwt beam="1">  1       21 0.61699687E-01 0.45441826E+03</pdfrwt>
<pdfrwt beam="2">  1       21 0.18094674E-01 0.45441826E+03</pdfrwt>
<totfact> 0.62645959E+04</totfact>
</mgrwt>
</event>
<event>
 7    0  0.4712189E-002  0.4551382E+03  0.7546771E-02  0.1026201E+00
         21   -1    0    0  502  501  0.00000000000E+00  0.00000000000E+00  0.14012950893E+04  0.14012950893E+04  0.00000000000E+00 0. -1.
         21   -1    0    0  501  502 -0.00000000000E+00 -0.00000000000E+00 -0.36957026104E+02  0.36957026104E+02  0.00000000000E+00 0. -1.
      99926    2    1    2    0    0  0.00000000000E+00  0.35527136788E-14  0.13643380632E+04  0.14382521154E+04  0.45513821723E+03 0.  0.
      99925    2    3    3    0    0 -0.95805926596E+02  0.30061517991E+02  0.69270483847E+03  0.74772972830E+03  0.26301574651E+03 0.  0.
         25    1    4    4    0    0 -0.76554704638E+02 -0.12910220623E+02  0.33766856913E+03  0.36836784235E+03  0.12509000000E+03 0.  0.
         25    1    4    4    0    0 -0.19251221958E+02  0.42971738615E+02  0.35503626934E+03  0.37936188596E+03  0.12509000000E+03 0.  0.
         25    1    3    3    0    0  0.95805926596E+02 -0.30061517991E+02  0.67163322474E+03  0.69052238711E+03  0.12509000000E+03 0.  0.
<mgrwt>
<rscale>  2 0.45513822E+03</rscale>
<asrwt>0</asrwt>
<pdfrwt beam="1">  1       21 0.20607277E+00 0.45513822E+03</pdfrwt>
<pdfrwt beam="2">  1       21 0.54348577E-02 0.45513822E+03</pdfrwt>
<totfact> 0.25303081E+04</totfact>
</mgrwt>
</event>
<event>
 7    0  0.4712189E-002  0.4455556E+03  0.7546771E-02  0.1029056E+00
         21   -1    0    0  502  501  0.00000000000E+00  0.00000000000E+00  0.79928520927E+02  0.79928520927E+02  0.00000000000E+00 0. -1.
         21   -1    0    0  501  502 -0.00000000000E+00 -0.00000000000E+00 -0.62092910760E+03  0.62092910760E+03  0.00000000000E+00 0. -1.
      99926    2    1    2    0    0  0.71054273576E-14 -0.14210854715E-13 -0.54100058667E+03  0.70085762852E+03  0.44555558652E+03 0.  0.
      99925    2    3    3    0    0  0.60256636137E+02 -0.78446318219E+02 -0.29232945512E+03  0.40544346704E+03  0.26295096043E+03 0.  0.
         25    1    4    4    0    0  0.49978450545E+02 -0.44060324718E+01 -0.12912513459E+03  0.18664958377E+03  0.12509000000E+03 0.  0.
         25    1    4    4    0    0  0.10278185592E+02 -0.74040285747E+02 -0.16320432053E+03  0.21879388326E+03  0.12509000000E+03 0.  0.
         25    1    3    3    0    0 -0.60256636137E+02  0.78446318219E+02 -0.24867113155E+03  0.29541416149E+03  0.12509000000E+03 0.  0.
<mgrwt>
<rscale>  2 0.44555559E+03</rscale>
<asrwt>0</asrwt>
<pdfrwt beam="1">  1       21 0.11754195E-01 0.44555559E+03</pdfrwt>
<pdfrwt beam="2">  1       21 0.91313101E-01 0.44555559E+03</pdfrwt>
<totfact> 0.56974268E+04</totfact>
</mgrwt>
</event>
<event>
 7    0  0.4712189E-002  0.4543971E+03  0.7546771E-02  0.1026419E+00
         21   -1    0    0  502  501  0.00000000000E+00  0.00000000000E+00  0.99668528448E+03  0.99668528448E+03  0.00000000000E+00 0. -1.
         21   -1    0    0  501  502 -0.00000000000E+00 -0.00000000000E+00 -0.51790850384E+02  0.51790850384E+02  0.00000000000E+00 0. -1.
      99926    2    1    2    0    0  0.14210854715E-13  0.00000000000E+00  0.94489443410E+03  0.10484761349E+04  0.45439708823E+03 0.  0.
      99925    2    3    3    0    0  0.95113827420E+02 -0.33962295650E+02  0.70974843333E+03  0.76362314213E+03  0.26301594418E+03 0.  0.
         25    1    4    4    0    0  0.14652712702E+02 -0.27916020543E+02  0.26720281768E+03  0.29671343089E+03  0.12509000000E+03 0.  0.
         25    1    4    4    0    0  0.80461114718E+02 -0.60462751071E+01  0.44254561565E+03  0.46690971124E+03  0.12509000000E+03 0.  0.
         25    1    3    3    0    0 -0.95113827420E+02  0.33962295650E+02  0.23514600077E+03  0.28485299274E+03  0.12509000000E+03 0.  0.
<mgrwt>
<rscale>  2 0.45439709E+03</rscale>
<asrwt>0</asrwt>
<pdfrwt beam="1">  1       21 0.14657135E+00 0.45439709E+03</pdfrwt>
<pdfrwt beam="2">  1       21 0.76163021E-02 0.45439709E+03</pdfrwt>
<totfact> 0.37509560E+04</totfact>
</mgrwt>
</event>
<event>
 7    0  0.4712189E-002  0.4557245E+03  0.7546771E-02  0.1026029E+00
         21   -1    0    0  502  501  0.00000000000E+00  0.00000000000E+00  0.94420081163E+03  0.94420081163E+03  0.00000000000E+00 0.  1.
         21   -1    0    0  501  502 -0.00000000000E+00 -0.00000000000E+00 -0.54989578158E+02  0.54989578158E+02  0.00000000000E+00 0.  1.
      99926    2    1    2    0    0  0.00000000000E+00  0.00000000000E+00  0.88921123347E+03  0.99919038979E+03  0.45572449716E+03 0.  0.
      99925    2    3    3    0    0 -0.79937691922E+02  0.25320409990E+02  0.39058073226E+03  0.47831512392E+03  0.26306062345E+03 0.  0.
         25    1    4    4    0    0 -0.74924323310E+01  0.37198963550E+02  0.17329563908E+03  0.21706862061E+03  0.12509000000E+03 0.  0.
         25    1    4    4    0    0 -0.72445259591E+02 -0.11878553561E+02  0.21728509318E+03  0.26124650331E+03  0.12509000000E+03 0.  0.
         25    1    3    3    0    0  0.79937691922E+02 -0.25320409990E+02  0.49863050121E+03  0.52087526587E+03  0.12509000000E+03 0.  0.
<mgrwt>
<rscale>  2 0.45572450E+03</rscale>
<asrwt>0</asrwt>
<pdfrwt beam="1">  1       21 0.13885305E+00 0.45572450E+03</pdfrwt>
<pdfrwt beam="2">  1       21 0.80867032E-02 0.45572450E+03</pdfrwt>
<totfact> 0.38977294E+04</totfact>
</mgrwt>
</event>
<event>
 7    0  0.4712189E-002  0.4422559E+03  0.7546771E-02  0.1030057E+00
         21   -1    0    0  502  501  0.00000000000E+00  0.00000000000E+00  0.93429808459E+02  0.93429808459E+02  0.00000000000E+00 0.  1.
         21   -1    0    0  501  502 -0.00000000000E+00 -0.00000000000E+00 -0.52336164755E+03  0.52336164755E+03  0.00000000000E+00 0.  1.
      99926    2    1    2    0    0  0.13322676296E-14  0.00000000000E+00 -0.42993183909E+03  0.61679145600E+03  0.44225593714E+03 0.  0.
      99925    2    3    3    0    0 -0.22354949561E+01 -0.26410449861E+02 -0.40934609088E+03  0.48727778712E+03  0.26300743412E+03 0.  0.
         25    1    3    3    0    0  0.22354949561E+01  0.26410449861E+02 -0.20585748209E+02  0.12951366889E+03  0.12509000000E+03 0.  0.
         25    1    4    4    0    0 -0.14615803733E+02  0.95453622259E+00 -0.13710330920E+03  0.18617024024E+03  0.12509000000E+03 0.  0.
         25    1    4    4    0    0  0.12380308777E+02 -0.27364986083E+02 -0.27224278168E+03  0.30110754688E+03  0.12509000000E+03 0.  0.
<mgrwt>
<rscale>  2 0.44225594E+03</rscale>
<asrwt>0</asrwt>
<pdfrwt beam="1">  1       21 0.13739678E-01 0.44225594E+03</pdfrwt>
<pdfrwt beam="2">  1       21 0.76964947E-01 0.44225594E+03</pdfrwt>
<totfact> 0.63842785E+04</totfact>
</mgrwt>
</event>
<event>
 7    0  0.4712189E-002  0.4216641E+03  0.7546771E-02  0.1036526E+00
         21   -1    0    0  502  501  0.00000000000E+00  0.00000000000E+00  0.98914050048E+03  0.98914050048E+03  0.00000000000E+00 0.  1.
         21   -1    0    0  501  502 -0.00000000000E+00 -0.00000000000E+00 -0.44938158969E+02  0.44938158969E+02  0.00000000000E+00 0.  1.
      99926    2    1    2    0    0 -0.17763568394E-14  0.00000000000E+00  0.94420234151E+03  0.10340786594E+04  0.42166409880E+03 0.  0.
      99925    2    3    3    0    0 -0.13629509036E+02  0.88675765177E+01  0.42708367145E+03  0.50179713201E+03  0.26293630758E+03 0.  0.
         25    1    4    4    0    0  0.24519261278E+02 -0.49288001017E+01  0.16490090980E+03  0.20848334561E+03  0.12509000000E+03 0.  0.
         25    1    3    3    0    0  0.13629509036E+02 -0.88675765177E+01  0.51711867006E+03  0.53228152744E+03  0.12509000000E+03 0.  0.
         25    1    4    4    0    0 -0.38148770314E+02  0.13796376619E+02  0.26218276166E+03  0.29331378640E+03  0.12509000000E+03 0.  0.
<mgrwt>
<rscale>  2 0.42166410E+03</rscale>
<asrwt>0</asrwt>
<pdfrwt beam="1">  1       21 0.14546182E+00 0.42166410E+03</pdfrwt>
<pdfrwt beam="2">  1       21 0.66085534E-02 0.42166410E+03</pdfrwt>
<totfact> 0.49562732E+04</totfact>
</mgrwt>
</event>
<event>
 7    0  0.4712189E-002  0.4538887E+03  0.7546771E-02  0.1026569E+00
         21   -1    0    0  502  501  0.00000000000E+00  0.00000000000E+00  0.16501198711E+03  0.16501198711E+03  0.00000000000E+00 0. -1.
         21   -1    0    0  501  502 -0.00000000000E+00 -0.00000000000E+00 -0.31212114758E+03  0.31212114758E+03  0.00000000000E+00 0. -1.
      99926    2    1    2    0    0  0.14210854715E-13  0.71054273576E-14 -0.14710916047E+03  0.47713313468E+03  0.45388866820E+03 0.  0.
      99925    2    3    3    0    0 -0.95530964330E+02 -0.48303461165E+02 -0.57283572238E+02  0.28958171798E+03  0.26290069272E+03 0.  0.
         25    1    4    4    0    0 -0.73123273353E+02 -0.41991134787E+02 -0.20450263426E+01  0.15087066892E+03  0.12509000000E+03 0.  0.
         25    1    3    3    0    0  0.95530964330E+02  0.48303461165E+02 -0.89825588231E+02  0.18755141670E+03  0.12509000000E+03 0.  0.
         25    1    4    4    0    0 -0.22407690977E+02 -0.63123263786E+01 -0.55238545896E+02  0.13871104906E+03  0.12509000000E+03 0.  0.
<mgrwt>
<rscale>  2 0.45388867E+03</rscale>
<asrwt>0</asrwt>
<pdfrwt beam="1">  1       21 0.24266469E-01 0.45388867E+03</pdfrwt>
<pdfrwt beam="2">  1       21 0.45900168E-01 0.45388867E+03</pdfrwt>
<totfact> 0.67502822E+04</totfact>
</mgrwt>
</event>
<event>
 7    0  0.4712189E-002  0.4641835E+03  0.7546771E-02  0.1023575E+00
         21   -1    0    0  502  501  0.00000000000E+00  0.00000000000E+00  0.18704505156E+03  0.18704505156E+03  0.00000000000E+00 0. -1.
         21   -1    0    0  501  502 -0.00000000000E+00 -0.00000000000E+00 -0.28798725443E+03  0.28798725443E+03  0.00000000000E+00 0. -1.
      99926    2    1    2    0    0  0.00000000000E+00 -0.71054273576E-14 -0.10094220287E+03  0.47503230600E+03  0.46418354497E+03 0.  0.
      99925    2    3    3    0    0 -0.82484818564E+02  0.60241621263E+02 -0.13081212202E+03  0.31079918389E+03  0.26277656520E+03 0.  0.
         25    1    4    4    0    0 -0.40513154615E+02  0.70473401845E+02 -0.60968699502E+02  0.16115987864E+03  0.12509000000E+03 0.  0.
         25    1    3    3    0    0  0.82484818564E+02 -0.60241621263E+02  0.29869919143E+02  0.16423312210E+03  0.12509000000E+03 0.  0.
         25    1    4    4    0    0 -0.41971663949E+02 -0.10231780581E+02 -0.69843422513E+02  0.14963930525E+03  0.12509000000E+03 0.  0.
<mgrwt>
<rscale>  2 0.46418354E+03</rscale>
<asrwt>0</asrwt>
<pdfrwt beam="1">  1       21 0.27506625E-01 0.46418354E+03</pdfrwt>
<pdfrwt beam="2">  1       21 0.42351067E-01 0.46418354E+03</pdfrwt>
<totfact> 0.62391572E+04</totfact>
</mgrwt>
</event>
<event>
 7    0  0.4712189E-002  0.4263607E+03  0.7546771E-02  0.1035016E+00
         21   -1    0    0  502  501  0.00000000000E+00  0.00000000000E+00  0.94504695926E+02  0.94504695926E+02  0.00000000000E+00 0.  1.
         21   -1    0    0  501  502 -0.00000000000E+00 -0.00000000000E+00 -0.48088473134E+03  0.48088473134E+03  0.00000000000E+00 0.  1.
      99926    2    1    2    0    0  0.00000000000E+00 -0.71054273576E-14 -0.38638003541E+03  0.57538942726E+03  0.42636071728E+03 0.  0.
      99925    2    3    3    0    0 -0.51821968745E+02  0.44438495573E+02 -0.18530353104E+03  0.32893544567E+03  0.26306051104E+03 0.  0.
         25    1    4    4    0    0 -0.59458679861E+02  0.47236135091E+02 -0.10388795627E+03  0.17946253823E+03  0.12509000000E+03 0.  0.
         25    1    3    3    0    0  0.51821968745E+02 -0.44438495573E+02 -0.20107650437E+03  0.24645398160E+03  0.12509000000E+03 0.  0.
         25    1    4    4    0    0  0.76367111160E+01 -0.27976395174E+01 -0.81415574766E+02  0.14947290744E+03  0.12509000000E+03 0.  0.
<mgrwt>
<rscale>  2 0.42636072E+03</rscale>
<asrwt>0</asrwt>
<pdfrwt beam="1">  1       21 0.13897749E-01 0.42636072E+03</pdfrwt>
<pdfrwt beam="2">  1       21 0.70718342E-01 0.42636072E+03</pdfrwt>
<totfact> 0.76025709E+04</totfact>
</mgrwt>
</event>
<event>
 7    0  0.4712189E-002  0.4568154E+03  0.7546771E-02  0.1025709E+00
         21   -1    0    0  502  501  0.00000000000E+00  0.00000000000E+00  0.22258538387E+03  0.22258538387E+03  0.00000000000E+00 0.  1.
         21   -1    0    0  501  502 -0.00000000000E+00 -0.00000000000E+00 -0.23438227147E+03  0.23438227147E+03  0.00000000000E+00 0.  1.
      99926    2    1    2    0    0  0.00000000000E+00  0.00000000000E+00 -0.11796887605E+02  0.45696765534E+03  0.45681535818E+03 0.  0.
      99925    2    3    3    0    0  0.33751344401E+02  0.70411659545E+02 -0.91775659593E+02  0.28921466098E+03  0.26291708461E+03 0.  0.
         25    1    4    4    0    0  0.41432013763E+01  0.14175383450E+02 -0.89350465293E+01  0.12627529754E+03  0.12509000000E+03 0.  0.
         25    1    3    3    0    0 -0.33751344401E+02 -0.70411659545E+02  0.79978771988E+02  0.16775299436E+03  0.12509000000E+03 0.  0.
         25    1    4    4    0    0  0.29608143025E+02  0.56236276095E+02 -0.82840613064E+02  0.16293936343E+03  0.12509000000E+03 0.  0.
<mgrwt>
<rscale>  2 0.45681536E+03</rscale>
<asrwt>0</asrwt>
<pdfrwt beam="1">  1       21 0.32733145E-01 0.45681536E+03</pdfrwt>
<pdfrwt beam="2">  1       21 0.34467981E-01 0.45681536E+03</pdfrwt>
<totfact> 0.67420032E+04</totfact>
</mgrwt>
</event>
<event>
 7    0  0.4712189E-002  0.4607238E+03  0.7546771E-02  0.1024572E+00
         21   -1    0    0  502  501  0.00000000000E+00  0.00000000000E+00  0.16729510062E+03  0.16729510062E+03  0.00000000000E+00 0. -1.
         21   -1    0    0  501  502 -0.00000000000E+00 -0.00000000000E+00 -0.31720352659E+03  0.31720352659E+03  0.00000000000E+00 0. -1.
      99926    2    1    2    0    0  0.00000000000E+00  0.00000000000E+00 -0.14990842597E+03  0.48449862722E+03  0.46072376062E+03 0.  0.
      99925    2    3    3    0    0 -0.20693346986E+02  0.10149261279E+03 -0.15412445232E+03  0.32203556052E+03  0.26310376352E+03 0.  0.
         25    1    4    4    0    0 -0.21938769013E+02  0.72613097973E+02 -0.43662293035E+02  0.15266917016E+03  0.12509000000E+03 0.  0.
         25    1    3    3    0    0  0.20693346986E+02 -0.10149261279E+03  0.42160263507E+01  0.16246306669E+03  0.12509000000E+03 0.  0.
         25    1    4    4    0    0  0.12454220263E+01  0.28879514817E+02 -0.11046215929E+03  0.16936639037E+03  0.12509000000E+03 0.  0.
<mgrwt>
<rscale>  2 0.46072376E+03</rscale>
<asrwt>0</asrwt>
<pdfrwt beam="1">  1       21 0.24602221E-01 0.46072376E+03</pdfrwt>
<pdfrwt beam="2">  1       21 0.46647577E-01 0.46072376E+03</pdfrwt>
<totfact> 0.63442292E+04</totfact>
</mgrwt>
</event>
<event>
 7    0  0.4712189E-002  0.4352729E+03  0.7546771E-02  0.1032207E+00
         21   -1    0    0  502  501  0.00000000000E+00  0.00000000000E+00  0.69979911463E+02  0.69979911463E+02  0.00000000000E+00 0. -1.
         21   -1    0    0  501  502 -0.00000000000E+00 -0.00000000000E+00 -0.67684587600E+03  0.67684587600E+03  0.00000000000E+00 0. -1.
      99926    2    1    2    0    0  0.00000000000E+00  0.71054273576E-14 -0.60686596453E+03  0.74682578746E+03  0.43527285455E+03 0.  0.
      99925    2    3    3    0    0 -0.69197620281E+02 -0.56801940257E+02 -0.34147680190E+03  0.44007884483E+03  0.26277026537E+03 0.  0.
         25    1    4    4    0    0 -0.12870465542E+02  0.58221481088E+01 -0.13770766826E+03  0.18657560476E+03  0.12509000000E+03 0.  0.
         25    1    3    3    0    0  0.69197620281E+02  0.56801940257E+02 -0.26538916264E+03  0.30674694263E+03  0.12509000000E+03 0.  0.
         25    1    4    4    0    0 -0.56327154739E+02 -0.62624088366E+02 -0.20376913363E+03  0.25350324007E+03  0.12509000000E+03 0.  0.
<mgrwt>
<rscale>  2 0.43527285E+03</rscale>
<asrwt>0</asrwt>
<pdfrwt beam="1">  1       21 0.10291163E-01 0.43527285E+03</pdfrwt>
<pdfrwt beam="2">  1       21 0.99536163E-01 0.43527285E+03</pdfrwt>
<totfact> 0.59073877E+04</totfact>
</mgrwt>
</event>
<event>
 7    0  0.4712189E-002  0.4590615E+03  0.7546771E-02  0.1025054E+00
         21   -1    0    0  502  501  0.00000000000E+00  0.00000000000E+00  0.13527672519E+03  0.13527672519E+03  0.00000000000E+00 0.  1.
         21   -1    0    0  501  502 -0.00000000000E+00 -0.00000000000E+00 -0.38945631341E+03  0.38945631341E+03  0.00000000000E+00 0.  1.
      99926    2    1    2    0    0  0.00000000000E+00  0.00000000000E+00 -0.25417958822E+03  0.52473303860E+03  0.45906154133E+03 0.  0.
      99925    2    3    3    0    0 -0.53330863828E+02 -0.92384442811E+01 -0.40886102470E+02  0.27161024418E+03  0.26300365298E+03 0.  0.
         25    1    4    4    0    0 -0.63477680105E+02 -0.65900244603E+00 -0.39795825874E+02  0.14581174854E+03  0.12509000000E+03 0.  0.
         25    1    3    3    0    0  0.53330863828E+02  0.92384442811E+01 -0.21329348575E+03  0.25312279442E+03  0.12509000000E+03 0.  0.
         25    1    4    4    0    0  0.10146816277E+02 -0.85794418351E+01 -0.10902765966E+01  0.12579849564E+03  0.12509000000E+03 0.  0.
<mgrwt>
<rscale>  2 0.45906154E+03</rscale>
<asrwt>0</asrwt>
<pdfrwt beam="1">  1       21 0.19893636E-01 0.45906154E+03</pdfrwt>
<pdfrwt beam="2">  1       21 0.57272987E-01 0.45906154E+03</pdfrwt>
<totfact> 0.61558271E+04</totfact>
</mgrwt>
</event>
<event>
 7    0  0.4712189E-002  0.4541173E+03  0.7546771E-02  0.1026501E+00
         21   -1    0    0  502  501  0.00000000000E+00  0.00000000000E+00  0.10296342062E+04  0.10296342062E+04  0.00000000000E+00 0. -1.
         21   -1    0    0  501  502 -0.00000000000E+00 -0.00000000000E+00 -0.50071798976E+02  0.50071798976E+02  0.00000000000E+00 0. -1.
      99926    2    1    2    0    0  0.00000000000E+00 -0.14210854715E-13  0.97956240720E+03  0.10797060051E+04  0.45411732841E+03 0.  0.
      99925    2    3    3    0    0 -0.72870954091E+02  0.85604561512E+02  0.61654120579E+03  0.67961824268E+03  0.26290602970E+03 0.  0.
         25    1    4    4    0    0 -0.38862480558E+02  0.81811163362E+02  0.29675503866E+03  0.33453612648E+03  0.12509000000E+03 0.  0.
         25    1    4    4    0    0 -0.34008473533E+02  0.37933981508E+01  0.31978616713E+03  0.34508211621E+03  0.12509000000E+03 0.  0.
         25    1    3    3    0    0  0.72870954091E+02 -0.85604561512E+02  0.36302120141E+03  0.40008776246E+03  0.12509000000E+03 0.  0.
<mgrwt>
<rscale>  2 0.45411733E+03</rscale>
<asrwt>0</asrwt>
<pdfrwt beam="1">  1       21 0.15141678E+00 0.45411733E+03</pdfrwt>
<pdfrwt beam="2">  1       21 0.73635005E-02 0.45411733E+03</pdfrwt>
<totfact> 0.36456347E+04</totfact>
</mgrwt>
</event>
<event>
 7    0  0.4712189E-002  0.4574845E+03  0.7546771E-02  0.1025513E+00
         21   -1    0    0  502  501  0.00000000000E+00  0.00000000000E+00  0.78191461119E+03  0.78191461119E+03  0.00000000000E+00 0. -1.
         21   -1    0    0  501  502 -0.00000000000E+00 -0.00000000000E+00 -0.66916528806E+02  0.66916528806E+02  0.00000000000E+00 0. -1.
      99926    2    1    2    0    0  0.00000000000E+00  0.00000000000E+00  0.71499808238E+03  0.84883113999E+03  0.45748447669E+03 0.  0.
      99925    2    3    3    0    0 -0.71136243046E+02  0.79482837887E+02  0.36677103150E+03  0.46375001391E+03  0.26299277417E+03 0.  0.
         25    1    3    3    0    0  0.71136243046E+02 -0.79482837887E+02  0.34822705089E+03  0.38508112608E+03  0.12509000000E+03 0.  0.
         25    1    4    4    0    0 -0.83882759395E+01  0.32412463567E+02  0.12209792397E+03  0.17797848776E+03  0.12509000000E+03 0.  0.
         25    1    4    4    0    0 -0.62747967107E+02  0.47070374320E+02  0.24467310752E+03  0.28577152615E+03  0.12509000000E+03 0.  0.
<mgrwt>
<rscale>  2 0.45748448E+03</rscale>
<asrwt>0</asrwt>
<pdfrwt beam="1">  1       21 0.11498744E+00 0.45748448E+03</pdfrwt>
<pdfrwt beam="2">  1       21 0.98406665E-02 0.45748448E+03</pdfrwt>
<totfact> 0.44615774E+04</totfact>
</mgrwt>
</event>
<event>
 7    0  0.4712189E-002  0.4561640E+03  0.7546771E-02  0.1025900E+00
         21   -1    0    0  502  501  0.00000000000E+00  0.00000000000E+00  0.57387678958E+03  0.57387678958E+03  0.00000000000E+00 0. -1.
         21   -1    0    0  501  502 -0.00000000000E+00 -0.00000000000E+00 -0.90649072931E+02  0.90649072931E+02  0.00000000000E+00 0. -1.
      99926    2    1    2    0    0  0.71054273576E-14  0.00000000000E+00  0.48322771665E+03  0.66452586251E+03  0.45616400100E+03 0.  0.
      99925    2    3    3    0    0 -0.61541721278E+02  0.55565315807E+02  0.41823532131E+03  0.50098257365E+03  0.26303586701E+03 0.  0.
         25    1    4    4    0    0  0.32782229171E+01  0.37286391734E+02  0.23825893441E+03  0.27169072432E+03  0.12509000000E+03 0.  0.
         25    1    4    4    0    0 -0.64819944195E+02  0.18278924073E+02  0.17997638690E+03  0.22929184933E+03  0.12509000000E+03 0.  0.
         25    1    3    3    0    0  0.61541721278E+02 -0.55565315807E+02  0.64992395341E+02  0.16354328886E+03  0.12509000000E+03 0.  0.
<mgrwt>
<rscale>  2 0.45616400E+03</rscale>
<asrwt>0</asrwt>
<pdfrwt beam="1">  1       21 0.84393644E-01 0.45616400E+03</pdfrwt>
<pdfrwt beam="2">  1       21 0.13330746E-01 0.45616400E+03</pdfrwt>
<totfact> 0.54370703E+04</totfact>
</mgrwt>
</event>
<event>
 7    0  0.4712189E-002  0.4547332E+03  0.7546771E-02  0.1026320E+00
         21   -1    0    0  502  501  0.00000000000E+00  0.00000000000E+00  0.34378402093E+03  0.34378402093E+03  0.00000000000E+00 0.  1.
         21   -1    0    0  501  502 -0.00000000000E+00 -0.00000000000E+00 -0.15037224477E+03  0.15037224477E+03  0.00000000000E+00 0.  1.
      99926    2    1    2    0    0  0.00000000000E+00  0.00000000000E+00  0.19341177615E+03  0.49415626570E+03  0.45473321824E+03 0.  0.
      99925    2    3    3    0    0  0.82204040802E+02 -0.71905704279E+02  0.90818266299E+02  0.29896182163E+03  0.26306325982E+03 0.  0.
         25    1    4    4    0    0  0.27499324228E+02 -0.62232847366E+02  0.16870293640E+02  0.14339196293E+03  0.12509000000E+03 0.  0.
         25    1    4    4    0    0  0.54704716574E+02 -0.96728569127E+01  0.73947972658E+02  0.15556985870E+03  0.12509000000E+03 0.  0.
         25    1    3    3    0    0 -0.82204040802E+02  0.71905704279E+02  0.10259350985E+03  0.19519444407E+03  0.12509000000E+03 0.  0.
<mgrwt>
<rscale>  2 0.45473322E+03</rscale>
<asrwt>0</asrwt>
<pdfrwt beam="1">  1       21 0.50556474E-01 0.45473322E+03</pdfrwt>
<pdfrwt beam="2">  1       21 0.22113565E-01 0.45473322E+03</pdfrwt>
<totfact> 0.65822469E+04</totfact>
</mgrwt>
</event>
<event>
 7    0  0.4712189E-002  0.3989895E+03  0.7546771E-02  0.1044130E+00
         21   -1    0    0  502  501  0.00000000000E+00  0.00000000000E+00  0.27384961936E+03  0.27384961936E+03  0.00000000000E+00 0.  1.
         21   -1    0    0  501  502 -0.00000000000E+00 -0.00000000000E+00 -0.14532853068E+03  0.14532853068E+03  0.00000000000E+00 0.  1.
      99926    2    1    2    0    0  0.35527136788E-14  0.00000000000E+00  0.12852108868E+03  0.41917815003E+03  0.39898953775E+03 0.  0.
      99925    2    3    3    0    0  0.96873555491E+01 -0.20611517295E+02  0.46872370937E+02  0.26807321725E+03  0.26295921955E+03 0.  0.
         25    1    4    4    0    0  0.28899601771E+02  0.17474893174E+02  0.58945316807E+01  0.12970278516E+03  0.12509000000E+03 0.  0.
         25    1    3    3    0    0 -0.96873555491E+01  0.20611517295E+02  0.81648717743E+02  0.15110493278E+03  0.12509000000E+03 0.  0.
         25    1    4    4    0    0 -0.19212246222E+02 -0.38086410469E+02  0.40977839256E+02  0.13837043209E+03  0.12509000000E+03 0.  0.
<mgrwt>
<rscale>  2 0.39898954E+03</rscale>
<asrwt>0</asrwt>
<pdfrwt beam="1">  1       21 0.40272003E-01 0.39898954E+03</pdfrwt>
<pdfrwt beam="2">  1       21 0.21371843E-01 0.39898954E+03</pdfrwt>
<totfact> 0.11440058E+05</totfact>
</mgrwt>
</event>
<event>
 7    0  0.4712189E-002  0.4412750E+03  0.7546771E-02  0.1030356E+00
         21   -1    0    0  502  501  0.00000000000E+00  0.00000000000E+00  0.27110914285E+03  0.27110914285E+03  0.00000000000E+00 0.  1.
         21   -1    0    0  501  502 -0.00000000000E+00 -0.00000000000E+00 -0.17956203665E+03  0.17956203665E+03  0.00000000000E+00 0.  1.
      99926    2    1    2    0    0  0.17763568394E-14  0.14210854715E-13  0.91547106203E+02  0.45067117950E+03  0.44127501559E+03 0.  0.
      99925    2    3    3    0    0 -0.13537750643E+02 -0.97424364724E+02  0.74623514369E+02  0.29064401433E+03  0.26311688777E+03 0.  0.
         25    1    4    4    0    0 -0.15824206648E+02 -0.40002361287E+02  0.76817564963E+02  0.15296745017E+03  0.12509000000E+03 0.  0.
         25    1    3    3    0    0  0.13537750643E+02  0.97424364724E+02  0.16923591834E+02  0.16002716518E+03  0.12509000000E+03 0.  0.
         25    1    4    4    0    0  0.22864560051E+01 -0.57422003438E+02 -0.21940505940E+01  0.13767656416E+03  0.12509000000E+03 0.  0.
<mgrwt>
<rscale>  2 0.44127502E+03</rscale>
<asrwt>0</asrwt>
<pdfrwt beam="1">  1       21 0.39868992E-01 0.44127502E+03</pdfrwt>
<pdfrwt beam="2">  1       21 0.26406182E-01 0.44127502E+03</pdfrwt>
<totfact> 0.76942205E+04</totfact>
</mgrwt>
</event>
<event>
 7    0  0.4712189E-002  0.4561166E+03  0.7546771E-02  0.1025914E+00
         21   -1    0    0  502  501  0.00000000000E+00  0.00000000000E+00  0.36442769327E+03  0.36442769327E+03  0.00000000000E+00 0.  1.
         21   -1    0    0  501  502 -0.00000000000E+00 -0.00000000000E+00 -0.14271854114E+03  0.14271854114E+03  0.00000000000E+00 0.  1.
      99926    2    1    2    0    0 -0.71054273576E-14 -0.14210854715E-13  0.22170915213E+03  0.50714623440E+03  0.45611660234E+03 0.  0.
      99925    2    3    3    0    0 -0.54192594452E+02  0.64207544175E+02  0.53392742362E+02  0.28123171977E+03  0.26302290632E+03 0.  0.
         25    1    3    3    0    0  0.54192594452E+02 -0.64207544175E+02  0.16831640977E+03  0.22591451463E+03  0.12509000000E+03 0.  0.
         25    1    4    4    0    0 -0.12851962415E+02 -0.67995573041E+01  0.15786739731E+02  0.12691783235E+03  0.12509000000E+03 0.  0.
         25    1    4    4    0    0 -0.41340632037E+02  0.71007101479E+02  0.37606002631E+02  0.15431388742E+03  0.12509000000E+03 0.  0.
<mgrwt>
<rscale>  2 0.45611660E+03</rscale>
<asrwt>0</asrwt>
<pdfrwt beam="1">  1       21 0.53592308E-01 0.45611660E+03</pdfrwt>
<pdfrwt beam="2">  1       21 0.20988021E-01 0.45611660E+03</pdfrwt>
<totfact> 0.64200610E+04</totfact>
</mgrwt>
</event>
<event>
 7    0  0.4712189E-002  0.4579953E+03  0.7546771E-02  0.1025364E+00
         21   -1    0    0  502  501  0.00000000000E+00  0.00000000000E+00  0.87968558435E+02  0.87968558435E+02  0.00000000000E+00 0. -1.
         21   -1    0    0  501  502 -0.00000000000E+00 -0.00000000000E+00 -0.59612129659E+03  0.59612129659E+03  0.00000000000E+00 0. -1.
      99926    2    1    2    0    0  0.00000000000E+00  0.71054273576E-14 -0.50815273815E+03  0.68408985502E+03  0.45799533235E+03 0.  0.
      99925    2    3    3    0    0  0.76764601780E+02 -0.33422191433E+02 -0.19968791248E+03  0.34085829508E+03  0.26324754123E+03 0.  0.
         25    1    4    4    0    0 -0.41456849566E+01 -0.16518284514E+02 -0.94957237156E+02  0.15796969778E+03  0.12509000000E+03 0.  0.
         25    1    4    4    0    0  0.80910286737E+02 -0.16903906919E+02 -0.10473067533E+03  0.18288859730E+03  0.12509000000E+03 0.  0.
         25    1    3    3    0    0 -0.76764601780E+02  0.33422191433E+02 -0.30846482567E+03  0.34323155995E+03  0.12509000000E+03 0.  0.
<mgrwt>
<rscale>  2 0.45799533E+03</rscale>
<asrwt>0</asrwt>
<pdfrwt beam="1">  1       21 0.12936552E-01 0.45799533E+03</pdfrwt>
<pdfrwt beam="2">  1       21 0.87664898E-01 0.45799533E+03</pdfrwt>
<totfact> 0.52525731E+04</totfact>
</mgrwt>
</event>
<event>
 7    0  0.4712189E-002  0.4660804E+03  0.7546771E-02  0.1023032E+00
         21   -1    0    0  502  501  0.00000000000E+00  0.00000000000E+00  0.13813896453E+03  0.13813896453E+03  0.00000000000E+00 0.  1.
         21   -1    0    0  501  502 -0.00000000000E+00 -0.00000000000E+00 -0.39313847044E+03  0.39313847044E+03  0.00000000000E+00 0.  1.
      99926    2    1    2    0    0  0.14210854715E-13  0.17763568394E-14 -0.25499950591E+03  0.53127743498E+03  0.46608042751E+03 0.  0.
      99925    2    3    3    0    0 -0.11118723342E+03  0.15006169305E+02 -0.21634010342E+03  0.35885399257E+03  0.26341101276E+03 0.  0.
         25    1    3    3    0    0  0.11118723342E+03 -0.15006169305E+02 -0.38659402488E+02  0.17242344241E+03  0.12509000000E+03 0.  0.
         25    1    4    4    0    0 -0.28268588080E+02  0.28799541859E+02 -0.13140860954E+03  0.18586085506E+03  0.12509000000E+03 0.  0.
         25    1    4    4    0    0 -0.82918645337E+02 -0.13793372553E+02 -0.84931493881E+02  0.17299313751E+03  0.12509000000E+03 0.  0.
<mgrwt>
<rscale>  2 0.46608043E+03</rscale>
<asrwt>0</asrwt>
<pdfrwt beam="1">  1       21 0.20314553E-01 0.46608043E+03</pdfrwt>
<pdfrwt beam="2">  1       21 0.57814481E-01 0.46608043E+03</pdfrwt>
<totfact> 0.57867658E+04</totfact>
</mgrwt>
</event>
<event>
 7    0  0.4712189E-002  0.4566295E+03  0.7546771E-02  0.1025763E+00
         21   -1    0    0  502  501  0.00000000000E+00  0.00000000000E+00  0.14070624952E+03  0.14070624952E+03  0.00000000000E+00 0. -1.
         21   -1    0    0  501  502 -0.00000000000E+00 -0.00000000000E+00 -0.37047124886E+03  0.37047124886E+03  0.00000000000E+00 0. -1.
      99926    2    1    2    0    0 -0.35527136788E-14  0.14210854715E-13 -0.22976499935E+03  0.51117749838E+03  0.45662947773E+03 0.  0.
      99925    2    3    3    0    0 -0.29170394602E+02  0.86891493941E+02 -0.22122310599E+03  0.35586646953E+03  0.26324938343E+03 0.  0.
         25    1    3    3    0    0  0.29170394602E+02 -0.86891493941E+02 -0.85418933613E+01  0.15531102885E+03  0.12509000000E+03 0.  0.
         25    1    4    4    0    0  0.10164735472E+02  0.56536578736E+02 -0.15000564432E+03  0.20359004890E+03  0.12509000000E+03 0.  0.
         25    1    4    4    0    0 -0.39335130074E+02  0.30354915205E+02 -0.71217461664E+02  0.15227642063E+03  0.12509000000E+03 0.  0.
<mgrwt>
<rscale>  2 0.45662948E+03</rscale>
<asrwt>0</asrwt>
<pdfrwt beam="1">  1       21 0.20692095E-01 0.45662948E+03</pdfrwt>
<pdfrwt beam="2">  1       21 0.54481067E-01 0.45662948E+03</pdfrwt>
<totfact> 0.63665023E+04</totfact>
</mgrwt>
</event>
<event>
 7    0  0.4712189E-002  0.4485574E+03  0.7546771E-02  0.1028153E+00
         21   -1    0    0  502  501  0.00000000000E+00  0.00000000000E+00  0.15658740644E+03  0.15658740644E+03  0.00000000000E+00 0.  1.
         21   -1    0    0  501  502 -0.00000000000E+00 -0.00000000000E+00 -0.32123231946E+03  0.32123231946E+03  0.00000000000E+00 0.  1.
      99926    2    1    2    0    0  0.00000000000E+00  0.00000000000E+00 -0.16464491302E+03  0.47781972590E+03  0.44855740221E+03 0.  0.
      99925    2    3    3    0    0 -0.42984657250E+02  0.66596750889E+02 -0.18072844543E+03  0.32886001288E+03  0.26306525634E+03 0.  0.
         25    1    4    4    0    0 -0.18878051413E+02  0.10639435168E+02 -0.45577148715E+02  0.13488648187E+03  0.12509000000E+03 0.  0.
         25    1    4    4    0    0 -0.24106605837E+02  0.55957315721E+02 -0.13515129672E+03  0.19397353101E+03  0.12509000000E+03 0.  0.
         25    1    3    3    0    0  0.42984657250E+02 -0.66596750889E+02  0.16083532418E+02  0.14895971302E+03  0.12509000000E+03 0.  0.
<mgrwt>
<rscale>  2 0.44855740E+03</rscale>
<asrwt>0</asrwt>
<pdfrwt beam="1">  1       21 0.23027560E-01 0.44855740E+03</pdfrwt>
<pdfrwt beam="2">  1       21 0.47240047E-01 0.44855740E+03</pdfrwt>
<totfact> 0.70390625E+04</totfact>
</mgrwt>
</event>
<event>
 7    0  0.4712189E-002  0.4512093E+03  0.7546771E-02  0.1027362E+00
         21   -1    0    0  502  501  0.00000000000E+00  0.00000000000E+00  0.40597042734E+02  0.40597042734E+02  0.00000000000E+00 0.  1.
         21   -1    0    0  501  502 -0.00000000000E+00 -0.00000000000E+00 -0.12537231255E+04  0.12537231255E+04  0.00000000000E+00 0.  1.
      99926    2    1    2    0    0  0.00000000000E+00  0.00000000000E+00 -0.12131260828E+04  0.12943201682E+04  0.45120926986E+03 0.  0.
      99925    2    3    3    0    0  0.93587830976E+01  0.65913785131E+02 -0.51629665541E+03  0.58322877269E+03  0.26298545780E+03 0.  0.
         25    1    4    4    0    0 -0.34521768439E+02  0.42179056580E+02 -0.26988612087E+03  0.30241833881E+03  0.12509000000E+03 0.  0.
         25    1    4    4    0    0  0.43880551536E+02  0.23734728551E+02 -0.24641053454E+03  0.28081043387E+03  0.12509000000E+03 0.  0.
         25    1    3    3    0    0 -0.93587830976E+01 -0.65913785131E+02 -0.69682942735E+03  0.71109139554E+03  0.12509000000E+03 0.  0.
<mgrwt>
<rscale>  2 0.45120927E+03</rscale>
<asrwt>0</asrwt>
<pdfrwt beam="1">  1       21 0.59701543E-02 0.45120927E+03</pdfrwt>
<pdfrwt beam="2">  1       21 0.18437102E+00 0.45120927E+03</pdfrwt>
<totfact> 0.30159521E+04</totfact>
</mgrwt>
</event>
<event>
 7    0  0.4712189E-002  0.4644687E+03  0.7546771E-02  0.1023493E+00
         21   -1    0    0  502  501  0.00000000000E+00  0.00000000000E+00  0.72965383212E+03  0.72965383212E+03  0.00000000000E+00 0. -1.
         21   -1    0    0  501  502 -0.00000000000E+00 -0.00000000000E+00 -0.73915598084E+02  0.73915598084E+02  0.00000000000E+00 0. -1.
      99926    2    1    2    0    0  0.00000000000E+00  0.00000000000E+00  0.65573823404E+03  0.80356943021E+03  0.46446872616E+03 0.  0.
      99925    2    3    3    0    0 -0.33023294294E+02  0.81866826945E+02  0.26384331828E+03  0.38282978575E+03  0.26296888207E+03 0.  0.
         25    1    4    4    0    0 -0.54882414558E+02  0.54287762596E+02  0.12911301349E+03  0.19564487968E+03  0.12509000000E+03 0.  0.
         25    1    3    3    0    0  0.33023294294E+02 -0.81866826945E+02  0.39189491576E+03  0.42073964446E+03  0.12509000000E+03 0.  0.
         25    1    4    4    0    0  0.21859120264E+02  0.27579064349E+02  0.13473030479E+03  0.18718490606E+03  0.12509000000E+03 0.  0.
<mgrwt>
<rscale>  2 0.46446873E+03</rscale>
<asrwt>0</asrwt>
<pdfrwt beam="1">  1       21 0.10730203E+00 0.46446873E+03</pdfrwt>
<pdfrwt beam="2">  1       21 0.10869941E-01 0.46446873E+03</pdfrwt>
<totfact> 0.44214525E+04</totfact>
</mgrwt>
</event>
<event>
 7    0  0.4712189E-002  0.4534385E+03  0.7546771E-02  0.1026702E+00
         21   -1    0    0  502  501  0.00000000000E+00  0.00000000000E+00  0.22226978730E+04  0.22226978730E+04  0.00000000000E+00 0. -1.
         21   -1    0    0  501  502 -0.00000000000E+00 -0.00000000000E+00 -0.23125780939E+02  0.23125780939E+02  0.00000000000E+00 0. -1.
      99926    2    1    2    0    0  0.00000000000E+00  0.00000000000E+00  0.21995720921E+04  0.22458236540E+04  0.45343852552E+03 0.  0.
      99925    2    3    3    0    0 -0.19535591106E+02  0.52162692785E+02  0.90680720913E+03  0.94582706299E+03  0.26303409041E+03 0.  0.
         25    1    4    4    0    0  0.28138420604E+02  0.30508357973E+02  0.39771923848E+03  0.41898762676E+03  0.12509000000E+03 0.  0.
         25    1    3    3    0    0  0.19535591106E+02 -0.52162692785E+02  0.12927648830E+04  0.12999965910E+04  0.12509000000E+03 0.  0.
         25    1    4    4    0    0 -0.47674011710E+02  0.21654334812E+02  0.50908797066E+03  0.52683943624E+03  0.12509000000E+03 0.  0.
<mgrwt>
<rscale>  2 0.45343853E+03</rscale>
<asrwt>0</asrwt>
<pdfrwt beam="1">  1       21 0.32686719E+00 0.45343853E+03</pdfrwt>
<pdfrwt beam="2">  1       21 0.34008516E-02 0.45343853E+03</pdfrwt>
<totfact> 0.10218815E+04</totfact>
</mgrwt>
</event>
<event>
 7    0  0.4712189E-002  0.4676624E+03  0.7546771E-02  0.1022582E+00
         21   -1    0    0  502  501  0.00000000000E+00  0.00000000000E+00  0.45469211577E+03  0.45469211577E+03  0.00000000000E+00 0. -1.
         21   -1    0    0  501  502 -0.00000000000E+00 -0.00000000000E+00 -0.12025067942E+03  0.12025067942E+03  0.00000000000E+00 0. -1.
      99926    2    1    2    0    0 -0.71054273576E-14 -0.14210854715E-13  0.33444143634E+03  0.57494279519E+03  0.46766242461E+03 0.  0.
      99925    2    3    3    0    0  0.54716757679E+02  0.11161331460E+03  0.22054459852E+03  0.36501077444E+03  0.26294769434E+03 0.  0.
         25    1    4    4    0    0  0.13894410266E+02  0.64109720311E+02  0.15752450629E+03  0.21157643786E+03  0.12509000000E+03 0.  0.
         25    1    3    3    0    0 -0.54716757679E+02 -0.11161331460E+03  0.11389683783E+03  0.20993202075E+03  0.12509000000E+03 0.  0.
         25    1    4    4    0    0  0.40822347412E+02  0.47503594293E+02  0.63020092229E+02  0.15343433659E+03  0.12509000000E+03 0.  0.
<mgrwt>
<rscale>  2 0.46766242E+03</rscale>
<asrwt>0</asrwt>
<pdfrwt beam="1">  1       21 0.66866487E-01 0.46766242E+03</pdfrwt>
<pdfrwt beam="2">  1       21 0.17683924E-01 0.46766242E+03</pdfrwt>
<totfact> 0.54574795E+04</totfact>
</mgrwt>
</event>
<event>
 7    0  0.4712189E-002  0.4493066E+03  0.7546771E-02  0.1027929E+00
         21   -1    0    0  502  501  0.00000000000E+00  0.00000000000E+00  0.26110040928E+03  0.26110040928E+03  0.00000000000E+00 0. -1.
         21   -1    0    0  501  502 -0.00000000000E+00 -0.00000000000E+00 -0.19329386378E+03  0.19329386378E+03  0.00000000000E+00 0. -1.
      99926    2    1    2    0    0  0.00000000000E+00  0.00000000000E+00  0.67806545499E+02  0.45439427306E+03  0.44930660776E+03 0.  0.
      99925    2    3    3    0    0 -0.10287952580E+03  0.20379664249E+02  0.67732795960E+02  0.29115505877E+03  0.26302853278E+03 0.  0.
         25    1    4    4    0    0 -0.11517415520E+02 -0.71170109761E+01  0.31949298350E+02  0.12981359124E+03  0.12509000000E+03 0.  0.
         25    1    3    3    0    0  0.10287952580E+03 -0.20379664249E+02  0.73749539369E-01  0.16323921429E+03  0.12509000000E+03 0.  0.
         25    1    4    4    0    0 -0.91362110278E+02  0.27496675225E+02  0.35783497610E+02  0.16134146753E+03  0.12509000000E+03 0.  0.
<mgrwt>
<rscale>  2 0.44930661E+03</rscale>
<asrwt>0</asrwt>
<pdfrwt beam="1">  1       21 0.38397119E-01 0.44930661E+03</pdfrwt>
<pdfrwt beam="2">  1       21 0.28425568E-01 0.44930661E+03</pdfrwt>
<totfact> 0.71795809E+04</totfact>
</mgrwt>
</event>
<event>
 7    0  0.4712189E-002  0.4575049E+03  0.7546771E-02  0.1025507E+00
         21   -1    0    0  502  501  0.00000000000E+00  0.00000000000E+00  0.17635801339E+03  0.17635801339E+03  0.00000000000E+00 0. -1.
         21   -1    0    0  501  502 -0.00000000000E+00 -0.00000000000E+00 -0.29671282773E+03  0.29671282773E+03  0.00000000000E+00 0. -1.
      99926    2    1    2    0    0  0.14210854715E-13  0.00000000000E+00 -0.12035481434E+03  0.47307084112E+03  0.45750490640E+03 0.  0.
      99925    2    3    3    0    0 -0.10838884796E+03  0.82450209290E+01 -0.11592582702E+03  0.30729012222E+03  0.26300627200E+03 0.  0.
         25    1    4    4    0    0 -0.43787429210E+02  0.15420667662E+02 -0.15751633228E+02  0.13435310937E+03  0.12509000000E+03 0.  0.
         25    1    4    4    0    0 -0.64601418746E+02 -0.71756467326E+01 -0.10017419380E+03  0.17293701285E+03  0.12509000000E+03 0.  0.
         25    1    3    3    0    0  0.10838884796E+03 -0.82450209290E+01 -0.44289873194E+01  0.16578071890E+03  0.12509000000E+03 0.  0.
<mgrwt>
<rscale>  2 0.45750491E+03</rscale>
<asrwt>0</asrwt>
<pdfrwt beam="1">  1       21 0.25935002E-01 0.45750491E+03</pdfrwt>
<pdfrwt beam="2">  1       21 0.43634239E-01 0.45750491E+03</pdfrwt>
<totfact> 0.65888864E+04</totfact>
</mgrwt>
</event>
<event>
 7    0  0.4712189E-002  0.4580552E+03  0.7546771E-02  0.1025347E+00
         21   -1    0    0  502  501  0.00000000000E+00  0.00000000000E+00  0.42879388658E+03  0.42879388658E+03  0.00000000000E+00 0. -1.
         21   -1    0    0  501  502 -0.00000000000E+00 -0.00000000000E+00 -0.12232833108E+03  0.12232833108E+03  0.00000000000E+00 0. -1.
      99926    2    1    2    0    0  0.00000000000E+00  0.00000000000E+00  0.30646555549E+03  0.55112221766E+03  0.45805519547E+03 0.  0.
      99925    2    3    3    0    0  0.79131952231E+02  0.45593285071E+02  0.10628108561E+03  0.29801760769E+03  0.26301751239E+03 0.  0.
         25    1    4    4    0    0  0.59376803954E+02  0.62678785647E+01  0.87934130473E+02  0.16414874520E+03  0.12509000000E+03 0.  0.
         25    1    4    4    0    0  0.19755148278E+02  0.39325406506E+02  0.18346955138E+02  0.13386886249E+03  0.12509000000E+03 0.  0.
         25    1    3    3    0    0 -0.79131952231E+02 -0.45593285071E+02  0.20018446988E+03  0.25310460997E+03  0.12509000000E+03 0.  0.
<mgrwt>
<rscale>  2 0.45805520E+03</rscale>
<asrwt>0</asrwt>
<pdfrwt beam="1">  1       21 0.63057924E-01 0.45805520E+03</pdfrwt>
<pdfrwt beam="2">  1       21 0.17989461E-01 0.45805520E+03</pdfrwt>
<totfact> 0.60321065E+04</totfact>
</mgrwt>
</event>
<event>
 7    0  0.4712189E-002  0.4549053E+03  0.7546771E-02  0.1026269E+00
         21   -1    0    0  502  501  0.00000000000E+00  0.00000000000E+00  0.48468844315E+03  0.48468844315E+03  0.00000000000E+00 0. -1.
         21   -1    0    0  501  502 -0.00000000000E+00 -0.00000000000E+00 -0.10673808537E+03  0.10673808537E+03  0.00000000000E+00 0. -1.
      99926    2    1    2    0    0  0.00000000000E+00  0.00000000000E+00  0.37795035777E+03  0.59142652852E+03  0.45490533707E+03 0.  0.
      99925    2    3    3    0    0 -0.18555588277E+02 -0.35804169652E+02  0.37519237234E+03  0.45996793045E+03  0.26301127802E+03 0.  0.
         25    1    4    4    0    0 -0.29658163423E+02  0.91170232711E+01  0.22334866756E+03  0.25786597715E+03  0.12509000000E+03 0.  0.
         25    1    4    4    0    0  0.11102575147E+02 -0.44921192923E+02  0.15184370478E+03  0.20210195330E+03  0.12509000000E+03 0.  0.
         25    1    3    3    0    0  0.18555588277E+02  0.35804169652E+02  0.27579854372E+01  0.13145859806E+03  0.12509000000E+03 0.  0.
<mgrwt>
<rscale>  2 0.45490534E+03</rscale>
<asrwt>0</asrwt>
<pdfrwt beam="1">  1       21 0.71277712E-01 0.45490534E+03</pdfrwt>
<pdfrwt beam="2">  1       21 0.15696777E-01 0.45490534E+03</pdfrwt>
<totfact> 0.59253430E+04</totfact>
</mgrwt>
</event>
<event>
 7    0  0.4712189E-002  0.4517305E+03  0.7546771E-02  0.1027207E+00
         21   -1    0    0  502  501  0.00000000000E+00  0.00000000000E+00  0.75402207979E+03  0.75402207979E+03  0.00000000000E+00 0. -1.
         21   -1    0    0  501  502 -0.00000000000E+00 -0.00000000000E+00 -0.67657303010E+02  0.67657303010E+02  0.00000000000E+00 0. -1.
      99926    2    1    2    0    0  0.00000000000E+00  0.00000000000E+00  0.68636477678E+03  0.82167938280E+03  0.45173045206E+03 0.  0.
      99925    2    3    3    0    0  0.22790126332E+02  0.48731987773E+02  0.25825361109E+03  0.37243460011E+03  0.26290379842E+03 0.  0.
         25    1    4    4    0    0 -0.10116519421E+02 -0.61304524158E+01  0.14581780902E+03  0.19248446155E+03  0.12509000000E+03 0.  0.
         25    1    4    4    0    0  0.32906645753E+02  0.54862440189E+02  0.11243580208E+03  0.17995013856E+03  0.12509000000E+03 0.  0.
         25    1    3    3    0    0 -0.22790126332E+02 -0.48731987773E+02  0.42811116569E+03  0.44924478269E+03  0.12509000000E+03 0.  0.
<mgrwt>
<rscale>  2 0.45173045E+03</rscale>
<asrwt>0</asrwt>
<pdfrwt beam="1">  1       21 0.11088560E+00 0.45173045E+03</pdfrwt>
<pdfrwt beam="2">  1       21 0.99496038E-02 0.45173045E+03</pdfrwt>
<totfact> 0.47952443E+04</totfact>
</mgrwt>
</event>
<event>
 7    0  0.4712189E-002  0.4502671E+03  0.7546771E-02  0.1027642E+00
         21   -1    0    0  502  501  0.00000000000E+00  0.00000000000E+00  0.82867331697E+02  0.82867331697E+02  0.00000000000E+00 0.  1.
         21   -1    0    0  501  502 -0.00000000000E+00 -0.00000000000E+00 -0.61164178321E+03  0.61164178321E+03  0.00000000000E+00 0.  1.
      99926    2    1    2    0    0  0.00000000000E+00  0.00000000000E+00 -0.52877445151E+03  0.69450911491E+03  0.45026713195E+03 0.  0.
      99925    2    3    3    0    0  0.95906146752E+02  0.50175319216E+02 -0.34916305224E+03  0.45033025732E+03  0.26299610637E+03 0.  0.
         25    1    4    4    0    0  0.32090490921E+02 -0.34061103133E+01 -0.20338724288E+03  0.24094663281E+03  0.12509000000E+03 0.  0.
         25    1    4    4    0    0  0.63815655831E+02  0.53581429529E+02 -0.14577580935E+03  0.20938362451E+03  0.12509000000E+03 0.  0.
         25    1    3    3    0    0 -0.95906146752E+02 -0.50175319216E+02 -0.17961139928E+03  0.24417885759E+03  0.12509000000E+03 0.  0.
<mgrwt>
<rscale>  2 0.45026713E+03</rscale>
<asrwt>0</asrwt>
<pdfrwt beam="1">  1       21 0.12186372E-01 0.45026713E+03</pdfrwt>
<pdfrwt beam="2">  1       21 0.89947321E-01 0.45026713E+03</pdfrwt>
<totfact> 0.55231006E+04</totfact>
</mgrwt>
</event>
<event>
 7    0  0.4712189E-002  0.4523116E+03  0.7546771E-02  0.1027035E+00
         21   -1    0    0  502  501  0.00000000000E+00  0.00000000000E+00  0.14143137222E+03  0.14143137222E+03  0.00000000000E+00 0.  1.
         21   -1    0    0  501  502 -0.00000000000E+00 -0.00000000000E+00 -0.36163432858E+03  0.36163432858E+03  0.00000000000E+00 0.  1.
      99926    2    1    2    0    0  0.00000000000E+00 -0.14210854715E-13 -0.22020295637E+03  0.50306570080E+03  0.45231157107E+03 0.  0.
      99925    2    3    3    0    0 -0.60230968485E+01 -0.11006413112E+03 -0.12897300483E+03  0.31301096444E+03  0.26304265287E+03 0.  0.
         25    1    4    4    0    0 -0.33427638966E+02 -0.74977242376E+02 -0.46391669958E+02  0.15664829735E+03  0.12509000000E+03 0.  0.
         25    1    3    3    0    0  0.60230968485E+01  0.11006413112E+03 -0.91229951533E+02  0.19005473636E+03  0.12509000000E+03 0.  0.
         25    1    4    4    0    0  0.27404542117E+02 -0.35086888742E+02 -0.82581334876E+02  0.15636266709E+03  0.12509000000E+03 0.  0.
<mgrwt>
<rscale>  2 0.45231157E+03</rscale>
<asrwt>0</asrwt>
<pdfrwt beam="1">  1       21 0.20798731E-01 0.45231157E+03</pdfrwt>
<pdfrwt beam="2">  1       21 0.53181519E-01 0.45231157E+03</pdfrwt>
<totfact> 0.66462788E+04</totfact>
</mgrwt>
</event>
<event>
 7    0  0.4712189E-002  0.4551189E+03  0.7546771E-02  0.1026206E+00
         21   -1    0    0  502  501  0.00000000000E+00  0.00000000000E+00  0.52749481841E+03  0.52749481841E+03  0.00000000000E+00 0. -1.
         21   -1    0    0  501  502 -0.00000000000E+00 -0.00000000000E+00 -0.98168362503E+02  0.98168362503E+02  0.00000000000E+00 0. -1.
      99926    2    1    2    0    0 -0.71054273576E-14 -0.14210854715E-13  0.42932645591E+03  0.62566318091E+03  0.45511889678E+03 0.  0.
      99925    2    3    3    0    0  0.33566085305E+02  0.93203304342E+02  0.34576755468E+03  0.44554339828E+03  0.26294520314E+03 0.  0.
         25    1    4    4    0    0  0.50127789817E+02  0.72600505851E+02  0.18373032222E+03  0.23914005972E+03  0.12509000000E+03 0.  0.
         25    1    3    3    0    0 -0.33566085305E+02 -0.93203304342E+02  0.83558901227E+02  0.18011978264E+03  0.12509000000E+03 0.  0.
         25    1    4    4    0    0 -0.16561704513E+02  0.20602798491E+02  0.16203723246E+03  0.20640333855E+03  0.12509000000E+03 0.  0.
<mgrwt>
<rscale>  2 0.45511890E+03</rscale>
<asrwt>0</asrwt>
<pdfrwt beam="1">  1       21 0.77572766E-01 0.45511890E+03</pdfrwt>
<pdfrwt beam="2">  1       21 0.14436524E-01 0.45511890E+03</pdfrwt>
<totfact> 0.57072203E+04</totfact>
</mgrwt>
</event>
<event>
 7    0  0.4712189E-002  0.4494096E+03  0.7546771E-02  0.1027898E+00
         21   -1    0    0  502  501  0.00000000000E+00  0.00000000000E+00  0.60083197021E+02  0.60083197021E+02  0.00000000000E+00 0. -1.
         21   -1    0    0  501  502 -0.00000000000E+00 -0.00000000000E+00 -0.84037232666E+03  0.84037232666E+03  0.00000000000E+00 0. -1.
      99926    2    1    2    0    0 -0.17763568394E-14  0.71054273576E-14 -0.78028912964E+03  0.90045552368E+03  0.44940963974E+03 0.  0.
      99925    2    3    3    0    0  0.92095164227E+01  0.63409930944E+02 -0.66720926791E+03  0.72006650582E+03  0.26310061020E+03 0.  0.
         25    1    4    4    0    0 -0.60097578095E+01  0.49291288618E+02 -0.24884219083E+03  0.28290580121E+03  0.12509000000E+03 0.  0.
         25    1    3    3    0    0 -0.92095164227E+01 -0.63409930944E+02 -0.11307986172E+03  0.18038901785E+03  0.12509000000E+03 0.  0.
         25    1    4    4    0    0  0.15219274232E+02  0.14118642326E+02 -0.41836707709E+03  0.43716070462E+03  0.12509000000E+03 0.  0.
<mgrwt>
<rscale>  2 0.44940964E+03</rscale>
<asrwt>0</asrwt>
<pdfrwt beam="1">  1       21 0.88357650E-02 0.44940964E+03</pdfrwt>
<pdfrwt beam="2">  1       21 0.12358416E+00 0.44940964E+03</pdfrwt>
<totfact> 0.45157973E+04</totfact>
</mgrwt>
</event>
<event>
 7    0  0.4712189E-002  0.4529697E+03  0.7546771E-02  0.1026840E+00
         21   -1    0    0  502  501  0.00000000000E+00  0.00000000000E+00  0.64574220382E+02  0.64574220382E+02  0.00000000000E+00 0.  1.
         21   -1    0    0  501  502 -0.00000000000E+00 -0.00000000000E+00 -0.79436320711E+03  0.79436320711E+03  0.00000000000E+00 0.  1.
      99926    2    1    2    0    0  0.00000000000E+00  0.00000000000E+00 -0.72978898673E+03  0.85893742749E+03  0.45296968905E+03 0.  0.
      99925    2    3    3    0    0 -0.51968529299E+02  0.59579888625E+02 -0.31161466371E+03  0.41535230184E+03  0.26298924852E+03 0.  0.
         25    1    4    4    0    0 -0.52773646356E+02  0.51827641777E+02 -0.20203583776E+03  0.24887175420E+03  0.12509000000E+03 0.  0.
         25    1    3    3    0    0  0.51968529299E+02 -0.59579888625E+02 -0.41817432302E+03  0.44358512565E+03  0.12509000000E+03 0.  0.
         25    1    4    4    0    0  0.80511705663E+00  0.77522468486E+01 -0.10957882595E+03  0.16648054764E+03  0.12509000000E+03 0.  0.
<mgrwt>
<rscale>  2 0.45296969E+03</rscale>
<asrwt>0</asrwt>
<pdfrwt beam="1">  1       21 0.94962089E-02 0.45296969E+03</pdfrwt>
<pdfrwt beam="2">  1       21 0.11681812E+00 0.45296969E+03</pdfrwt>
<totfact> 0.45766650E+04</totfact>
</mgrwt>
</event>
<event>
 7    0  0.4712189E-002  0.4456278E+03  0.7546771E-02  0.1029034E+00
         21   -1    0    0  502  501  0.00000000000E+00  0.00000000000E+00  0.17476947718E+03  0.17476947718E+03  0.00000000000E+00 0.  1.
         21   -1    0    0  501  502 -0.00000000000E+00 -0.00000000000E+00 -0.28406587110E+03  0.28406587110E+03  0.00000000000E+00 0.  1.
      99926    2    1    2    0    0  0.00000000000E+00 -0.35527136788E-14 -0.10929639392E+03  0.45883534828E+03  0.44562784373E+03 0.  0.
      99925    2    3    3    0    0 -0.83439186315E+02  0.31916151692E+02 -0.14205287285E+02  0.27808534078E+03  0.26296183757E+03 0.  0.
         25    1    4    4    0    0 -0.54827765609E+02 -0.22168676465E+02 -0.10885860242E+02  0.13879317040E+03  0.12509000000E+03 0.  0.
         25    1    3    3    0    0  0.83439186315E+02 -0.31916151692E+02 -0.95091106634E+02  0.18075000750E+03  0.12509000000E+03 0.  0.
         25    1    4    4    0    0 -0.28611420707E+02  0.54084828157E+02 -0.33194270432E+01  0.13929217037E+03  0.12509000000E+03 0.  0.
<mgrwt>
<rscale>  2 0.44562784E+03</rscale>
<asrwt>0</asrwt>
<pdfrwt beam="1">  1       21 0.25701394E-01 0.44562784E+03</pdfrwt>
<pdfrwt beam="2">  1       21 0.41774392E-01 0.44562784E+03</pdfrwt>
<totfact> 0.73596223E+04</totfact>
</mgrwt>
</event>
<event>
 7    0  0.4712189E-002  0.4537698E+03  0.7546771E-02  0.1026604E+00
         21   -1    0    0  502  501  0.00000000000E+00  0.00000000000E+00  0.83889789477E+02  0.83889789477E+02  0.00000000000E+00 0. -1.
         21   -1    0    0  501  502 -0.00000000000E+00 -0.00000000000E+00 -0.61362350737E+03  0.61362350737E+03  0.00000000000E+00 0. -1.
      99926    2    1    2    0    0  0.00000000000E+00  0.00000000000E+00 -0.52973371790E+03  0.69751329685E+03  0.45376975153E+03 0.  0.
      99925    2    3    3    0    0  0.83725276136E+02  0.73898725859E+02 -0.34725014044E+03  0.44968531681E+03  0.26298912634E+03 0.  0.
         25    1    3    3    0    0 -0.83725276136E+02 -0.73898725859E+02 -0.18248357746E+03  0.24782798004E+03  0.12509000000E+03 0.  0.
         25    1    4    4    0    0  0.19636158957E+02  0.41191134339E+02 -0.22066185009E+03  0.25772358928E+03  0.12509000000E+03 0.  0.
         25    1    4    4    0    0  0.64089117179E+02  0.32707591520E+02 -0.12658829035E+03  0.19196172753E+03  0.12509000000E+03 0.  0.
<mgrwt>
<rscale>  2 0.45376975E+03</rscale>
<asrwt>0</asrwt>
<pdfrwt beam="1">  1       21 0.12336734E-01 0.45376975E+03</pdfrwt>
<pdfrwt beam="2">  1       21 0.90238747E-01 0.45376975E+03</pdfrwt>
<totfact> 0.53554849E+04</totfact>
</mgrwt>
</event>
<event>
 7    0  0.4712189E-002  0.4544891E+03  0.7546771E-02  0.1026392E+00
         21   -1    0    0  502  501  0.00000000000E+00  0.00000000000E+00  0.17381976787E+03  0.17381976787E+03  0.00000000000E+00 0. -1.
         21   -1    0    0  501  502 -0.00000000000E+00 -0.00000000000E+00 -0.29708986354E+03  0.29708986354E+03  0.00000000000E+00 0. -1.
      99926    2    1    2    0    0  0.00000000000E+00  0.00000000000E+00 -0.12327009567E+03  0.47090963141E+03  0.45448912470E+03 0.  0.
      99925    2    3    3    0    0 -0.55023319144E+02 -0.84613844103E+02 -0.25628552170E+02  0.28284462302E+03  0.26297754624E+03 0.  0.
         25    1    3    3    0    0  0.55023319144E+02  0.84613844103E+02 -0.97641543500E+02  0.18806500839E+03  0.12509000000E+03 0.  0.
         25    1    4    4    0    0  0.81149781086E+01 -0.26461172233E+02  0.44051610468E+01  0.12819110753E+03  0.12509000000E+03 0.  0.
         25    1    4    4    0    0 -0.63138297253E+02 -0.58152671870E+02 -0.30033713217E+02  0.15465351550E+03  0.12509000000E+03 0.  0.
<mgrwt>
<rscale>  2 0.45448912E+03</rscale>
<asrwt>0</asrwt>
<pdfrwt beam="1">  1       21 0.25561731E-01 0.45448912E+03</pdfrwt>
<pdfrwt beam="2">  1       21 0.43689685E-01 0.45448912E+03</pdfrwt>
<totfact> 0.67641862E+04</totfact>
</mgrwt>
</event>
<event>
 7    0  0.4712189E-002  0.4559736E+03  0.7546771E-02  0.1025955E+00
         21   -1    0    0  502  501  0.00000000000E+00  0.00000000000E+00  0.22518477062E+03  0.22518477062E+03  0.00000000000E+00 0. -1.
         21   -1    0    0  501  502 -0.00000000000E+00 -0.00000000000E+00 -0.23082366747E+03  0.23082366747E+03  0.00000000000E+00 0. -1.
      99926    2    1    2    0    0 -0.14210854715E-13  0.00000000000E+00 -0.56388968507E+01  0.45600843809E+03  0.45597357209E+03 0.  0.
      99925    2    3    3    0    0  0.64949740784E+02  0.92753883582E+02 -0.18166415087E+02  0.28681565289E+03  0.26289056347E+03 0.  0.
         25    1    4    4    0    0  0.48619965378E+02  0.97292194692E+01 -0.18280570581E+02  0.13579486774E+03  0.12509000000E+03 0.  0.
         25    1    4    4    0    0  0.16329775406E+02  0.83024664113E+02  0.11415549414E+00  0.15102078515E+03  0.12509000000E+03 0.  0.
         25    1    3    3    0    0 -0.64949740784E+02 -0.92753883582E+02  0.12527518236E+02  0.16919278519E+03  0.12509000000E+03 0.  0.
<mgrwt>
<rscale>  2 0.45597357E+03</rscale>
<asrwt>0</asrwt>
<pdfrwt beam="1">  1       21 0.33115408E-01 0.45597357E+03</pdfrwt>
<pdfrwt beam="2">  1       21 0.33944657E-01 0.45597357E+03</pdfrwt>
<totfact> 0.67942657E+04</totfact>
</mgrwt>
</event>
<event>
 7    0  0.4712189E-002  0.4627120E+03  0.7546771E-02  0.1023998E+00
         21   -1    0    0  502  501  0.00000000000E+00  0.00000000000E+00  0.12266742245E+04  0.12266742245E+04  0.00000000000E+00 0.  1.
         21   -1    0    0  501  502 -0.00000000000E+00 -0.00000000000E+00 -0.43634739519E+02  0.43634739519E+02  0.00000000000E+00 0.  1.
      99926    2    1    2    0    0  0.14210854715E-13  0.00000000000E+00  0.11830394850E+04  0.12703089640E+04  0.46271204982E+03 0.  0.
      99925    2    3    3    0    0  0.11746305155E+03  0.25701939338E+02  0.73694948554E+03  0.79166300523E+03  0.26301637107E+03 0.  0.
         25    1    4    4    0    0  0.10116858273E+03  0.13920204183E+02  0.37965049478E+03  0.41256618924E+03  0.12509000000E+03 0.  0.
         25    1    3    3    0    0 -0.11746305155E+03 -0.25701939338E+02  0.44608999947E+03  0.47864595881E+03  0.12509000000E+03 0.  0.
         25    1    4    4    0    0  0.16294468814E+02  0.11781735155E+02  0.35729899076E+03  0.37909681599E+03  0.12509000000E+03 0.  0.
<mgrwt>
<rscale>  2 0.46271205E+03</rscale>
<asrwt>0</asrwt>
<pdfrwt beam="1">  1       21 0.18039325E+00 0.46271205E+03</pdfrwt>
<pdfrwt beam="2">  1       21 0.64168743E-02 0.46271205E+03</pdfrwt>
<totfact> 0.28254919E+04</totfact>
</mgrwt>
</event>
<event>
 7    0  0.4712189E-002  0.4529050E+03  0.7546771E-02  0.1026859E+00
         21   -1    0    0  502  501  0.00000000000E+00  0.00000000000E+00  0.54648432606E+02  0.54648432606E+02  0.00000000000E+00 0. -1.
         21   -1    0    0  501  502 -0.00000000000E+00 -0.00000000000E+00 -0.93837532026E+03  0.93837532026E+03  0.00000000000E+00 0. -1.
      99926    2    1    2    0    0 -0.14210854715E-13  0.00000000000E+00 -0.88372688765E+03  0.99302375286E+03  0.45290502513E+03 0.  0.
      99925    2    3    3    0    0 -0.10744417163E+03 -0.12260558464E+02 -0.61456164987E+03  0.67712502757E+03  0.26290247272E+03 0.  0.
         25    1    3    3    0    0  0.10744417163E+03  0.12260558464E+02 -0.26916523778E+03  0.31589872529E+03  0.12509000000E+03 0.  0.
         25    1    4    4    0    0 -0.82942125408E+02  0.21667839863E+01 -0.39873473124E+03  0.42605279616E+03  0.12509000000E+03 0.  0.
         25    1    4    4    0    0 -0.24502046224E+02 -0.14427342450E+02 -0.21582691863E+03  0.25107223141E+03  0.12509000000E+03 0.  0.
<mgrwt>
<rscale>  2 0.45290503E+03</rscale>
<asrwt>0</asrwt>
<pdfrwt beam="1">  1       21 0.80365339E-02 0.45290503E+03</pdfrwt>
<pdfrwt beam="2">  1       21 0.13799638E+00 0.45290503E+03</pdfrwt>
<totfact> 0.40091212E+04</totfact>
</mgrwt>
</event>
<event>
 7    0  0.4712189E-002  0.4553492E+03  0.7546771E-02  0.1026139E+00
         21   -1    0    0  502  501  0.00000000000E+00  0.00000000000E+00  0.48291474471E+03  0.48291474471E+03  0.00000000000E+00 0. -1.
         21   -1    0    0  501  502 -0.00000000000E+00 -0.00000000000E+00 -0.10733929926E+03  0.10733929926E+03  0.00000000000E+00 0. -1.
      99926    2    1    2    0    0  0.00000000000E+00  0.35527136788E-14  0.37557544545E+03  0.59025404398E+03  0.45534922994E+03 0.  0.
      99925    2    3    3    0    0  0.64169331917E+02 -0.17546429113E+02  0.35552694218E+03  0.44716305573E+03  0.26292548652E+03 0.  0.
         25    1    4    4    0    0  0.38288687564E+02 -0.48880591213E+02  0.18653144562E+03  0.23301678931E+03  0.12509000000E+03 0.  0.
         25    1    4    4    0    0  0.25880644354E+02  0.31334162100E+02  0.16899549656E+03  0.21414626643E+03  0.12509000000E+03 0.  0.
         25    1    3    3    0    0 -0.64169331917E+02  0.17546429113E+02  0.20048503264E+02  0.14309098824E+03  0.12509000000E+03 0.  0.
<mgrwt>
<rscale>  2 0.45534923E+03</rscale>
<asrwt>0</asrwt>
<pdfrwt beam="1">  1       21 0.71016873E-01 0.45534923E+03</pdfrwt>
<pdfrwt beam="2">  1       21 0.15785191E-01 0.45534923E+03</pdfrwt>
<totfact> 0.59118856E+04</totfact>
</mgrwt>
</event>
<event>
 7    0  0.4712189E-002  0.4550129E+03  0.7546771E-02  0.1026238E+00
         21   -1    0    0  502  501  0.00000000000E+00  0.00000000000E+00  0.22933875685E+03  0.22933875685E+03  0.00000000000E+00 0.  1.
         21   -1    0    0  501  502 -0.00000000000E+00 -0.00000000000E+00 -0.22568882911E+03  0.22568882911E+03  0.00000000000E+00 0.  1.
      99926    2    1    2    0    0 -0.71054273576E-14  0.00000000000E+00  0.36499277405E+01  0.45502758597E+03  0.45501294709E+03 0.  0.
      99925    2    3    3    0    0  0.52884785086E+02  0.54340427772E+02  0.86336175711E+02  0.28699721286E+03  0.26299008036E+03 0.  0.
         25    1    3    3    0    0 -0.52884785086E+02 -0.54340427772E+02 -0.82686247970E+02  0.16803037311E+03  0.12509000000E+03 0.  0.
         25    1    4    4    0    0  0.37893191681E+01  0.54926767449E+02  0.23599138871E+02  0.13869295648E+03  0.12509000000E+03 0.  0.
         25    1    4    4    0    0  0.49095465918E+02 -0.58633967641E+00  0.62737036840E+02  0.14830425638E+03  0.12509000000E+03 0.  0.
<mgrwt>
<rscale>  2 0.45501295E+03</rscale>
<asrwt>0</asrwt>
<pdfrwt beam="1">  1       21 0.33726288E-01 0.45501295E+03</pdfrwt>
<pdfrwt beam="2">  1       21 0.33189534E-01 0.45501295E+03</pdfrwt>
<totfact> 0.68536689E+04</totfact>
</mgrwt>
</event>
<event>
 7    0  0.4712189E-002  0.4534839E+03  0.7546771E-02  0.1026688E+00
         21   -1    0    0  502  501  0.00000000000E+00  0.00000000000E+00  0.11767186172E+03  0.11767186172E+03  0.00000000000E+00 0. -1.
         21   -1    0    0  501  502 -0.00000000000E+00 -0.00000000000E+00 -0.43690923029E+03  0.43690923029E+03  0.00000000000E+00 0. -1.
      99926    2    1    2    0    0  0.00000000000E+00 -0.14210854715E-13 -0.31923736857E+03  0.55458109201E+03  0.45348394693E+03 0.  0.
      99925    2    3    3    0    0 -0.46916483443E+02  0.93188309675E+02 -0.25016590282E+03  0.37765287787E+03  0.26297053020E+03 0.  0.
         25    1    4    4    0    0 -0.15161458158E+02  0.54052647106E+01 -0.98600727163E+02  0.16008965675E+03  0.12509000000E+03 0.  0.
         25    1    3    3    0    0  0.46916483443E+02 -0.93188309675E+02 -0.69071465752E+02  0.17692821414E+03  0.12509000000E+03 0.  0.
         25    1    4    4    0    0 -0.31755025285E+02  0.87783044965E+02 -0.15156517565E+03  0.21756322112E+03  0.12509000000E+03 0.  0.
<mgrwt>
<rscale>  2 0.45348395E+03</rscale>
<asrwt>0</asrwt>
<pdfrwt beam="1">  1       21 0.17304686E-01 0.45348395E+03</pdfrwt>
<pdfrwt beam="2">  1       21 0.64251357E-01 0.45348395E+03</pdfrwt>
<totfact> 0.62308741E+04</totfact>
</mgrwt>
</event>
<event>
 7    0  0.4712189E-002  0.4540120E+03  0.7546771E-02  0.1026532E+00
         21   -1    0    0  502  501  0.00000000000E+00  0.00000000000E+00  0.22974260193E+04  0.22974260193E+04  0.00000000000E+00 0.  1.
         21   -1    0    0  501  502 -0.00000000000E+00 -0.00000000000E+00 -0.22430196713E+02  0.22430196713E+02  0.00000000000E+00 0.  1.
      99926    2    1    2    0    0  0.00000000000E+00  0.00000000000E+00  0.22749958226E+04  0.23198562160E+04  0.45401197141E+03 0.  0.
      99925    2    3    3    0    0  0.94994810401E+02 -0.47051871298E+02  0.12451410139E+04  0.12770300907E+04  0.26304337174E+03 0.  0.
         25    1    3    3    0    0 -0.94994810401E+02  0.47051871298E+02  0.10298548087E+04  0.10428261254E+04  0.12509000000E+03 0.  0.
         25    1    4    4    0    0  0.81007008416E+02 -0.17719795526E+02  0.55740303777E+03  0.57725365411E+03  0.12509000000E+03 0.  0.
         25    1    4    4    0    0  0.13987801985E+02 -0.29332075772E+02  0.68773797610E+03  0.69977643654E+03  0.12509000000E+03 0.  0.
<mgrwt>
<rscale>  2 0.45401197E+03</rscale>
<asrwt>0</asrwt>
<pdfrwt beam="1">  1       21 0.33785661E+00 0.45401197E+03</pdfrwt>
<pdfrwt beam="2">  1       21 0.32985599E-02 0.45401197E+03</pdfrwt>
<totfact> 0.92259645E+03</totfact>
</mgrwt>
</event>
<event>
 7    0  0.4712189E-002  0.4556412E+03  0.7546771E-02  0.1026053E+00
         21   -1    0    0  502  501  0.00000000000E+00  0.00000000000E+00  0.54092758210E+03  0.54092758210E+03  0.00000000000E+00 0.  1.
         21   -1    0    0  501  502 -0.00000000000E+00 -0.00000000000E+00 -0.95950403443E+02  0.95950403443E+02  0.00000000000E+00 0.  1.
      99926    2    1    2    0    0  0.00000000000E+00  0.00000000000E+00  0.44497717866E+03  0.63687798554E+03  0.45564117345E+03 0.  0.
      99925    2    3    3    0    0  0.34503998306E+02 -0.53325096932E+02  0.14883556695E+03  0.30918688992E+03  0.26345856420E+03 0.  0.
         25    1    3    3    0    0 -0.34503998306E+02  0.53325096932E+02  0.29614161171E+03  0.32769109562E+03  0.12509000000E+03 0.  0.
         25    1    4    4    0    0  0.35958378096E+02  0.96981667552E+01  0.63270648391E+02  0.14504393280E+03  0.12509000000E+03 0.  0.
         25    1    4    4    0    0 -0.14543797903E+01 -0.63023263687E+02  0.85564918556E+02  0.16414295713E+03  0.12509000000E+03 0.  0.
<mgrwt>
<rscale>  2 0.45564117E+03</rscale>
<asrwt>0</asrwt>
<pdfrwt beam="1">  1       21 0.79548172E-01 0.45564117E+03</pdfrwt>
<pdfrwt beam="2">  1       21 0.14110354E-01 0.45564117E+03</pdfrwt>
<totfact> 0.56179023E+04</totfact>
</mgrwt>
</event>
<event>
 7    0  0.4712189E-002  0.4458221E+03  0.7546771E-02  0.1028975E+00
         21   -1    0    0  502  501  0.00000000000E+00  0.00000000000E+00  0.33527838759E+03  0.33527838759E+03  0.00000000000E+00 0. -1.
         21   -1    0    0  501  502 -0.00000000000E+00 -0.00000000000E+00 -0.14820319650E+03  0.14820319650E+03  0.00000000000E+00 0. -1.
      99926    2    1    2    0    0  0.00000000000E+00  0.00000000000E+00  0.18707519110E+03  0.48348158409E+03  0.44582206656E+03 0.  0.
      99925    2    3    3    0    0 -0.65400371284E+02  0.46998655903E+01  0.30921717762E+02  0.27293298487E+03  0.26312917797E+03 0.  0.
         25    1    4    4    0    0 -0.95745141589E+01 -0.17473423668E+02 -0.13125337701E+02  0.12734509981E+03  0.12509000000E+03 0.  0.
         25    1    3    3    0    0  0.65400371284E+02 -0.46998655903E+01  0.15615347333E+03  0.21054859922E+03  0.12509000000E+03 0.  0.
         25    1    4    4    0    0 -0.55825857125E+02  0.22173289259E+02  0.44047055462E+02  0.14558788506E+03  0.12509000000E+03 0.  0.
<mgrwt>
<rscale>  2 0.44582207E+03</rscale>
<asrwt>0</asrwt>
<pdfrwt beam="1">  1       21 0.49305645E-01 0.44582207E+03</pdfrwt>
<pdfrwt beam="2">  1       21 0.21794588E-01 0.44582207E+03</pdfrwt>
<totfact> 0.71518006E+04</totfact>
</mgrwt>
</event>
<event>
 7    0  0.4712189E-002  0.4549172E+03  0.7546771E-02  0.1026266E+00
         21   -1    0    0  502  501  0.00000000000E+00  0.00000000000E+00  0.82529382944E+02  0.82529382944E+02  0.00000000000E+00 0. -1.
         21   -1    0    0  501  502 -0.00000000000E+00 -0.00000000000E+00 -0.62689678424E+03  0.62689678424E+03  0.00000000000E+00 0. -1.
      99926    2    1    2    0    0 -0.71054273576E-14  0.14210854715E-13 -0.54436740130E+03  0.70942616719E+03  0.45491715630E+03 0.  0.
      99925    2    3    3    0    0  0.50572074467E+02 -0.10061117541E+03 -0.36094117836E+03  0.46048273849E+03  0.26284153947E+03 0.  0.
         25    1    4    4    0    0  0.22172027543E+02 -0.15565130928E+02 -0.12588218107E+03  0.17952076124E+03  0.12509000000E+03 0.  0.
         25    1    3    3    0    0 -0.50572074467E+02  0.10061117541E+03 -0.18342622293E+03  0.24894342870E+03  0.12509000000E+03 0.  0.
         25    1    4    4    0    0  0.28400046924E+02 -0.85046044483E+02 -0.23505899729E+03  0.28096197724E+03  0.12509000000E+03 0.  0.
<mgrwt>
<rscale>  2 0.45491716E+03</rscale>
<asrwt>0</asrwt>
<pdfrwt beam="1">  1       21 0.12136674E-01 0.45491716E+03</pdfrwt>
<pdfrwt beam="2">  1       21 0.92190703E-01 0.45491716E+03</pdfrwt>
<totfact> 0.52428337E+04</totfact>
</mgrwt>
</event>
<event>
 7    0  0.4712189E-002  0.4588678E+03  0.7546771E-02  0.1025110E+00
         21   -1    0    0  502  501  0.00000000000E+00  0.00000000000E+00  0.15426422120E+04  0.15426422120E+04  0.00000000000E+00 0. -1.
         21   -1    0    0  501  502 -0.00000000000E+00 -0.00000000000E+00 -0.34123221738E+02  0.34123221738E+02  0.00000000000E+00 0. -1.
      99926    2    1    2    0    0  0.00000000000E+00  0.00000000000E+00  0.15085189903E+04  0.15767654338E+04  0.45886783397E+03 0.  0.
      99925    2    3    3    0    0 -0.25474066273E+02 -0.11642740271E+02  0.13356124807E+04  0.13615245208E+04  0.26287609379E+03 0.  0.
         25    1    4    4    0    0 -0.25491195965E+02 -0.16671371728E+01  0.47700333671E+03  0.49379375427E+03  0.12509000000E+03 0.  0.
         25    1    4    4    0    0  0.17129691649E-01 -0.99756030984E+01  0.85860914401E+03  0.86773076656E+03  0.12509000000E+03 0.  0.
         25    1    3    3    0    0  0.25474066273E+02  0.11642740271E+02  0.17290650957E+03  0.21524091294E+03  0.12509000000E+03 0.  0.
<mgrwt>
<rscale>  2 0.45886783E+03</rscale>
<asrwt>0</asrwt>
<pdfrwt beam="1">  1       21 0.22685910E+00 0.45886783E+03</pdfrwt>
<pdfrwt beam="2">  1       21 0.50181219E-02 0.45886783E+03</pdfrwt>
<totfact> 0.21311509E+04</totfact>
</mgrwt>
</event>
<event>
 7    0  0.4712189E-002  0.4679022E+03  0.7546771E-02  0.1022514E+00
         21   -1    0    0  502  501  0.00000000000E+00  0.00000000000E+00  0.47015082543E+03  0.47015082543E+03  0.00000000000E+00 0.  1.
         21   -1    0    0  501  502 -0.00000000000E+00 -0.00000000000E+00 -0.11641609301E+03  0.11641609301E+03  0.00000000000E+00 0.  1.
      99926    2    1    2    0    0 -0.71054273576E-14  0.00000000000E+00  0.35373473242E+03  0.58656691844E+03  0.46790222150E+03 0.  0.
      99925    2    3    3    0    0 -0.58898634381E+02 -0.10386458245E+03  0.26591862028E+03  0.39261826989E+03  0.26301994720E+03 0.  0.
         25    1    3    3    0    0  0.58898634381E+02  0.10386458245E+03  0.87816112143E+02  0.19394864854E+03  0.12509000000E+03 0.  0.
         25    1    4    4    0    0 -0.58610477949E+02 -0.23617730992E+02  0.12411959354E+03  0.18720621502E+03  0.12509000000E+03 0.  0.
         25    1    4    4    0    0 -0.28815643154E+00 -0.80246851457E+02  0.14179902674E+03  0.20541205487E+03  0.12509000000E+03 0.  0.
<mgrwt>
<rscale>  2 0.46790222E+03</rscale>
<asrwt>0</asrwt>
<pdfrwt beam="1">  1       21 0.69139827E-01 0.46790222E+03</pdfrwt>
<pdfrwt beam="2">  1       21 0.17120014E-01 0.46790222E+03</pdfrwt>
<totfact> 0.53811118E+04</totfact>
</mgrwt>
</event>
<event>
 7    0  0.4712189E-002  0.4584528E+03  0.7546771E-02  0.1025231E+00
         21   -1    0    0  502  501  0.00000000000E+00  0.00000000000E+00  0.15173143080E+03  0.15173143080E+03  0.00000000000E+00 0.  1.
         21   -1    0    0  501  502 -0.00000000000E+00 -0.00000000000E+00 -0.34630103036E+03  0.34630103036E+03  0.00000000000E+00 0.  1.
      99926    2    1    2    0    0  0.00000000000E+00  0.00000000000E+00 -0.19456959956E+03  0.49803246116E+03  0.45845283650E+03 0.  0.
      99925    2    3    3    0    0 -0.76075097971E+02 -0.67999161637E+02 -0.18304930504E+03  0.33619448107E+03  0.26288471715E+03 0.  0.
         25    1    4    4    0    0 -0.39667637015E+02  0.74519178420E+01 -0.85177583272E+02  0.15662624716E+03  0.12509000000E+03 0.  0.
         25    1    4    4    0    0 -0.36407460956E+02 -0.75451079479E+02 -0.97871721771E+02  0.17956823391E+03  0.12509000000E+03 0.  0.
         25    1    3    3    0    0  0.76075097971E+02  0.67999161637E+02 -0.11520294517E+02  0.16183798009E+03  0.12509000000E+03 0.  0.
<mgrwt>
<rscale>  2 0.45845284E+03</rscale>
<asrwt>0</asrwt>
<pdfrwt beam="1">  1       21 0.22313446E-01 0.45845284E+03</pdfrwt>
<pdfrwt beam="2">  1       21 0.50926622E-01 0.45845284E+03</pdfrwt>
<totfact> 0.63646571E+04</totfact>
</mgrwt>
</event>
<event>
 7    0  0.4712189E-002  0.4537015E+03  0.7546771E-02  0.1026624E+00
         21   -1    0    0  502  501  0.00000000000E+00  0.00000000000E+00  0.94357932288E+03  0.94357932288E+03  0.00000000000E+00 0.  1.
         21   -1    0    0  501  502 -0.00000000000E+00 -0.00000000000E+00 -0.54538352078E+02  0.54538352078E+02  0.00000000000E+00 0.  1.
      99926    2    1    2    0    0  0.00000000000E+00  0.00000000000E+00  0.88904097080E+03  0.99811767495E+03  0.45370149360E+03 0.  0.
      99925    2    3    3    0    0 -0.97559042486E+02 -0.49066619952E+02  0.50631659752E+03  0.58092377044E+03  0.26304111879E+03 0.  0.
         25    1    4    4    0    0 -0.83563774463E+02 -0.53882902586E+01  0.24366923467E+03  0.28641602975E+03  0.12509000000E+03 0.  0.
         25    1    3    3    0    0  0.97559042486E+02  0.49066619952E+02  0.38272437328E+03  0.41719390451E+03  0.12509000000E+03 0.  0.
         25    1    4    4    0    0 -0.13995268023E+02 -0.43678329693E+02  0.26264736286E+03  0.29450774069E+03  0.12509000000E+03 0.  0.
<mgrwt>
<rscale>  2 0.45370149E+03</rscale>
<asrwt>0</asrwt>
<pdfrwt beam="1">  1       21 0.13876165E+00 0.45370149E+03</pdfrwt>
<pdfrwt beam="2">  1       21 0.80203465E-02 0.45370149E+03</pdfrwt>
<totfact> 0.39640574E+04</totfact>
</mgrwt>
</event>
<event>
 7    0  0.4712189E-002  0.4561588E+03  0.7546771E-02  0.1025901E+00
         21   -1    0    0  502  501  0.00000000000E+00  0.00000000000E+00  0.40086241268E+03  0.40086241268E+03  0.00000000000E+00 0. -1.
         21   -1    0    0  501  502 -0.00000000000E+00 -0.00000000000E+00 -0.12977076198E+03  0.12977076198E+03  0.00000000000E+00 0. -1.
      99926    2    1    2    0    0  0.00000000000E+00  0.00000000000E+00  0.27109165070E+03  0.53063317466E+03  0.45615883524E+03 0.  0.
      99925    2    3    3    0    0 -0.72089092374E+02 -0.87469975581E+02  0.15401579530E+03  0.32520168271E+03  0.26303504589E+03 0.  0.
         25    1    3    3    0    0  0.72089092374E+02  0.87469975581E+02  0.11707585540E+03  0.20543149195E+03  0.12509000000E+03 0.  0.
         25    1    4    4    0    0  0.25743053659E+01 -0.53763610283E+02  0.61978802905E+02  0.14961962755E+03  0.12509000000E+03 0.  0.
         25    1    4    4    0    0 -0.74663397740E+02 -0.33706365298E+02  0.92036992396E+02  0.17558205516E+03  0.12509000000E+03 0.  0.
<mgrwt>
<rscale>  2 0.45615884E+03</rscale>
<asrwt>0</asrwt>
<pdfrwt beam="1">  1       21 0.58950354E-01 0.45615884E+03</pdfrwt>
<pdfrwt beam="2">  1       21 0.19083936E-01 0.45615884E+03</pdfrwt>
<totfact> 0.62586853E+04</totfact>
</mgrwt>
</event>
<event>
 7    0  0.4712189E-002  0.4510042E+03  0.7546771E-02  0.1027423E+00
         21   -1    0    0  502  501  0.00000000000E+00  0.00000000000E+00  0.33677695635E+03  0.33677695635E+03  0.00000000000E+00 0. -1.
         21   -1    0    0  501  502 -0.00000000000E+00 -0.00000000000E+00 -0.15099368727E+03  0.15099368727E+03  0.00000000000E+00 0. -1.
      99926    2    1    2    0    0  0.00000000000E+00  0.00000000000E+00  0.18578326908E+03  0.48777064362E+03  0.45100418813E+03 0.  0.
      99925    2    3    3    0    0  0.55429693697E+02 -0.56795281040E+02  0.19880332266E+03  0.33905889295E+03  0.26294489327E+03 0.  0.
         25    1    4    4    0    0 -0.51944762988E+01 -0.31118853290E+02  0.12483447656E+03  0.17951746503E+03  0.12509000000E+03 0.  0.
         25    1    3    3    0    0 -0.55429693697E+02  0.56795281040E+02 -0.13020053584E+02  0.14871175067E+03  0.12509000000E+03 0.  0.
         25    1    4    4    0    0  0.60624169996E+02 -0.25676427751E+02  0.73968846103E+02  0.15954142792E+03  0.12509000000E+03 0.  0.
<mgrwt>
<rscale>  2 0.45100419E+03</rscale>
<asrwt>0</asrwt>
<pdfrwt beam="1">  1       21 0.49526023E-01 0.45100419E+03</pdfrwt>
<pdfrwt beam="2">  1       21 0.22204954E-01 0.45100419E+03</pdfrwt>
<totfact> 0.68278997E+04</totfact>
</mgrwt>
</event>
<event>
 7    0  0.4712189E-002  0.4406741E+03  0.7546771E-02  0.1030540E+00
         21   -1    0    0  502  501  0.00000000000E+00  0.00000000000E+00  0.15287496320E+04  0.15287496320E+04  0.00000000000E+00 0. -1.
         21   -1    0    0  501  502 -0.00000000000E+00 -0.00000000000E+00 -0.31756950551E+02  0.31756950551E+02  0.00000000000E+00 0. -1.
      99926    2    1    2    0    0  0.00000000000E+00 -0.71054273576E-14  0.14969926814E+04  0.15605065825E+04  0.44067414931E+03 0.  0.
      99925    2    3    3    0    0  0.72091057350E+02 -0.61360256150E+02  0.85129143822E+03  0.89602196633E+03  0.26305142040E+03 0.  0.
         25    1    4    4    0    0  0.41553515858E+02  0.68304102089E+01  0.45663405417E+03  0.47532674731E+03  0.12509000000E+03 0.  0.
         25    1    3    3    0    0 -0.72091057350E+02  0.61360256150E+02  0.64570124323E+03  0.66448461622E+03  0.12509000000E+03 0.  0.
         25    1    4    4    0    0  0.30537541492E+02 -0.68190666359E+02  0.39465738405E+03  0.42069521902E+03  0.12509000000E+03 0.  0.
<mgrwt>
<rscale>  2 0.44067415E+03</rscale>
<asrwt>0</asrwt>
<pdfrwt beam="1">  1       21 0.22481607E+00 0.44067415E+03</pdfrwt>
<pdfrwt beam="2">  1       21 0.46701408E-02 0.44067415E+03</pdfrwt>
<totfact> 0.25002704E+04</totfact>
</mgrwt>
</event>
<event>
 7    0  0.4712189E-002  0.4581816E+03  0.7546771E-02  0.1025310E+00
         21   -1    0    0  502  501  0.00000000000E+00  0.00000000000E+00  0.16869159384E+04  0.16869159384E+04  0.00000000000E+00 0. -1.
         21   -1    0    0  501  502 -0.00000000000E+00 -0.00000000000E+00 -0.31111568555E+02  0.31111568555E+02  0.00000000000E+00 0. -1.
      99926    2    1    2    0    0  0.14210854715E-13  0.00000000000E+00  0.16558043698E+04  0.17180275069E+04  0.45818162714E+03 0.  0.
      99925    2    3    3    0    0 -0.90876280529E+02  0.50823125599E+02  0.12319719358E+04  0.12640198763E+04  0.26296370202E+03 0.  0.
         25    1    3    3    0    0  0.90876280529E+02 -0.50823125599E+02  0.42383243402E+03  0.45400763065E+03  0.12509000000E+03 0.  0.
         25    1    4    4    0    0 -0.25085018745E+02  0.51186520642E+02  0.50144124264E+03  0.51994244487E+03  0.12509000000E+03 0.  0.
         25    1    4    4    0    0 -0.65791261784E+02 -0.36339504321E+00  0.73053069316E+03  0.74407743141E+03  0.12509000000E+03 0.  0.
<mgrwt>
<rscale>  2 0.45818163E+03</rscale>
<asrwt>0</asrwt>
<pdfrwt beam="1">  1       21 0.24807581E+00 0.45818163E+03</pdfrwt>
<pdfrwt beam="2">  1       21 0.45752318E-02 0.45818163E+03</pdfrwt>
<totfact> 0.18429575E+04</totfact>
</mgrwt>
</event>
<event>
 7    0  0.4712189E-002  0.4487050E+03  0.7546771E-02  0.1028109E+00
         21   -1    0    0  502  501  0.00000000000E+00  0.00000000000E+00  0.22836062698E+02  0.22836062698E+02  0.00000000000E+00 0.  1.
         21   -1    0    0  501  502 -0.00000000000E+00 -0.00000000000E+00 -0.22041468696E+04  0.22041468696E+04  0.00000000000E+00 0.  1.
      99926    2    1    2    0    0  0.00000000000E+00  0.35527136788E-14 -0.21813108069E+04  0.22269829323E+04  0.44870496369E+03 0.  0.
      99925    2    3    3    0    0  0.51571719052E+01 -0.17389171777E+02 -0.19044925611E+04  0.19226725167E+04  0.26315149929E+03 0.  0.
         25    1    3    3    0    0 -0.51571719052E+01  0.17389171777E+02 -0.27681824582E+03  0.30431041559E+03  0.12509000000E+03 0.  0.
         25    1    4    4    0    0 -0.75336169923E+01  0.84342192076E+01 -0.68282637690E+03  0.69428183077E+03  0.12509000000E+03 0.  0.
         25    1    4    4    0    0  0.12690788897E+02 -0.25823390984E+02 -0.12216661842E+04  0.12283906860E+04  0.12509000000E+03 0.  0.
<mgrwt>
<rscale>  2 0.44870496E+03</rscale>
<asrwt>0</asrwt>
<pdfrwt beam="1">  1       21 0.33582445E-02 0.44870496E+03</pdfrwt>
<pdfrwt beam="2">  1       21 0.32413924E+00 0.44870496E+03</pdfrwt>
<totfact> 0.10867079E+04</totfact>
</mgrwt>
</event>
<event>
 7    0  0.4712189E-002  0.4551734E+03  0.7546771E-02  0.1026190E+00
         21   -1    0    0  502  501  0.00000000000E+00  0.00000000000E+00  0.55148216966E+03  0.55148216966E+03  0.00000000000E+00 0. -1.
         21   -1    0    0  501  502 -0.00000000000E+00 -0.00000000000E+00 -0.93920899737E+02  0.93920899737E+02  0.00000000000E+00 0. -1.
      99926    2    1    2    0    0  0.00000000000E+00 -0.71054273576E-14  0.45756126992E+03  0.64540306939E+03  0.45517338043E+03 0.  0.
      99925    2    3    3    0    0 -0.30845801997E+02  0.51303791497E+02  0.15141452039E+03  0.30931248210E+03  0.26299108744E+03 0.  0.
         25    1    4    4    0    0 -0.47596025145E+02  0.48198686349E+01  0.60396398185E+02  0.14691441644E+03  0.12509000000E+03 0.  0.
         25    1    3    3    0    0  0.30845801997E+02 -0.51303791497E+02  0.30614674953E+03  0.33609058730E+03  0.12509000000E+03 0.  0.
         25    1    4    4    0    0  0.16750223148E+02  0.46483922862E+02  0.91018122208E+02  0.16239806566E+03  0.12509000000E+03 0.  0.
<mgrwt>
<rscale>  2 0.45517338E+03</rscale>
<asrwt>0</asrwt>
<pdfrwt beam="1">  1       21 0.81100317E-01 0.45517338E+03</pdfrwt>
<pdfrwt beam="2">  1       21 0.13811897E-01 0.45517338E+03</pdfrwt>
<totfact> 0.55890599E+04</totfact>
</mgrwt>
</event>
<event>
 7    0  0.4712189E-002  0.4530833E+03  0.7546771E-02  0.1026807E+00
         21   -1    0    0  502  501  0.00000000000E+00  0.00000000000E+00  0.46878833425E+02  0.46878833425E+02  0.00000000000E+00 0.  1.
         21   -1    0    0  501  502 -0.00000000000E+00 -0.00000000000E+00 -0.10947611265E+04  0.10947611265E+04  0.00000000000E+00 0.  1.
      99926    2    1    2    0    0  0.35527136788E-14  0.14210854715E-13 -0.10478822931E+04  0.11416399599E+04  0.45308332342E+03 0.  0.
      99925    2    3    3    0    0  0.16514556246E+02  0.10717459824E+03 -0.72440914214E+03  0.77826479216E+03  0.26299877647E+03 0.  0.
         25    1    3    3    0    0 -0.16514556246E+02 -0.10717459824E+03 -0.32347315095E+03  0.36337516779E+03  0.12509000000E+03 0.  0.
         25    1    4    4    0    0 -0.16872307902E+02  0.19520444802E+02 -0.34643144962E+03  0.36922619073E+03  0.12509000000E+03 0.  0.
         25    1    4    4    0    0  0.33386864148E+02  0.87654153433E+02 -0.37797769252E+03  0.40903860142E+03  0.12509000000E+03 0.  0.
<mgrwt>
<rscale>  2 0.45308332E+03</rscale>
<asrwt>0</asrwt>
<pdfrwt beam="1">  1       21 0.68939464E-02 0.45308332E+03</pdfrwt>
<pdfrwt beam="2">  1       21 0.16099428E+00 0.45308332E+03</pdfrwt>
<totfact> 0.34576385E+04</totfact>
</mgrwt>
</event>
<event>
 7    0  0.4712189E-002  0.4551005E+03  0.7546771E-02  0.1026212E+00
         21   -1    0    0  502  501  0.00000000000E+00  0.00000000000E+00  0.10478168299E+03  0.10478168299E+03  0.00000000000E+00 0.  1.
         21   -1    0    0  501  502 -0.00000000000E+00 -0.00000000000E+00 -0.49416189682E+03  0.49416189682E+03  0.00000000000E+00 0.  1.
      99926    2    1    2    0    0  0.00000000000E+00  0.00000000000E+00 -0.38938021383E+03  0.59894357981E+03  0.45510049536E+03 0.  0.
      99925    2    3    3    0    0  0.58251820791E+02 -0.46110977254E+02 -0.35756139937E+03  0.45001593999E+03  0.26295378887E+03 0.  0.
         25    1    4    4    0    0  0.49957702301E+02 -0.15984645056E+02 -0.23924945672E+03  0.27502561978E+03  0.12509000000E+03 0.  0.
         25    1    3    3    0    0 -0.58251820791E+02  0.46110977254E+02 -0.31818814457E+02  0.14892763982E+03  0.12509000000E+03 0.  0.
         25    1    4    4    0    0  0.82941184898E+01 -0.30126332197E+02 -0.11831194265E+03  0.17499032021E+03  0.12509000000E+03 0.  0.
<mgrwt>
<rscale>  2 0.45510050E+03</rscale>
<asrwt>0</asrwt>
<pdfrwt beam="1">  1       21 0.15409071E-01 0.45510050E+03</pdfrwt>
<pdfrwt beam="2">  1       21 0.72670866E-01 0.45510050E+03</pdfrwt>
<totfact> 0.58696717E+04</totfact>
</mgrwt>
</event>
<event>
 7    0  0.4712189E-002  0.4560883E+03  0.7546771E-02  0.1025922E+00
         21   -1    0    0  502  501  0.00000000000E+00  0.00000000000E+00  0.52487311026E+03  0.52487311026E+03  0.00000000000E+00 0.  1.
         21   -1    0    0  501  502 -0.00000000000E+00 -0.00000000000E+00 -0.99079433130E+02  0.99079433130E+02  0.00000000000E+00 0.  1.
      99926    2    1    2    0    0  0.00000000000E+00  0.00000000000E+00  0.42579367713E+03  0.62395254339E+03  0.45608828193E+03 0.  0.
      99925    2    3    3    0    0 -0.57848501349E+02 -0.98448678942E+02  0.26491325739E+03  0.39035329457E+03  0.26297921809E+03 0.  0.
         25    1    3    3    0    0  0.57848501349E+02  0.98448678942E+02  0.16088041974E+03  0.23359924882E+03  0.12509000000E+03 0.  0.
         25    1    4    4    0    0 -0.49417337361E+02 -0.86408598605E+02  0.13284690640E+03  0.20785650768E+03  0.12509000000E+03 0.  0.
         25    1    4    4    0    0 -0.84311639883E+01 -0.12040080337E+02  0.13206635099E+03  0.18249678689E+03  0.12509000000E+03 0.  0.
<mgrwt>
<rscale>  2 0.45608828E+03</rscale>
<asrwt>0</asrwt>
<pdfrwt beam="1">  1       21 0.77187221E-01 0.45608828E+03</pdfrwt>
<pdfrwt beam="2">  1       21 0.14570505E-01 0.45608828E+03</pdfrwt>
<totfact> 0.56738519E+04</totfact>
</mgrwt>
</event>
<event>
 7    0  0.4712189E-002  0.4749224E+03  0.7546771E-02  0.1020540E+00
         21   -1    0    0  502  501  0.00000000000E+00  0.00000000000E+00  0.37293176983E+03  0.37293176983E+03  0.00000000000E+00 0.  1.
         21   -1    0    0  501  502 -0.00000000000E+00 -0.00000000000E+00 -0.15120142747E+03  0.15120142747E+03  0.00000000000E+00 0.  1.
      99926    2    1    2    0    0  0.00000000000E+00  0.00000000000E+00  0.22173034236E+03  0.52413319730E+03  0.47492237660E+03 0.  0.
      99925    2    3    3    0    0  0.69690613012E+02  0.41358225446E+02  0.23551816969E+02  0.27616239180E+03  0.26295188573E+03 0.  0.
         25    1    3    3    0    0 -0.69690613012E+02 -0.41358225446E+02  0.19817852539E+03  0.24797080550E+03  0.12509000000E+03 0.  0.
         25    1    4    4    0    0  0.27005486694E+02 -0.15236715202E+02  0.29691995360E+02  0.13225194324E+03  0.12509000000E+03 0.  0.
         25    1    4    4    0    0  0.42685126318E+02  0.56594940648E+02 -0.61401783918E+01  0.14391044857E+03  0.12509000000E+03 0.  0.
<mgrwt>
<rscale>  2 0.47492238E+03</rscale>
<asrwt>0</asrwt>
<pdfrwt beam="1">  1       21 0.54842907E-01 0.47492238E+03</pdfrwt>
<pdfrwt beam="2">  1       21 0.22235504E-01 0.47492238E+03</pdfrwt>
<totfact> 0.54471763E+04</totfact>
</mgrwt>
</event>
<event>
 7    0  0.4712189E-002  0.4552908E+03  0.7546771E-02  0.1026156E+00
         21   -1    0    0  502  501  0.00000000000E+00  0.00000000000E+00  0.26337625359E+03  0.26337625359E+03  0.00000000000E+00 0.  1.
         21   -1    0    0  501  502 -0.00000000000E+00 -0.00000000000E+00 -0.19676200205E+03  0.19676200205E+03  0.00000000000E+00 0.  1.
      99926    2    1    2    0    0  0.00000000000E+00  0.00000000000E+00  0.66614251548E+02  0.46013825564E+03  0.45529084748E+03 0.  0.
      99925    2    3    3    0    0 -0.42791381577E+02  0.71360843310E+02  0.11975833064E+03  0.30077931006E+03  0.26306399089E+03 0.  0.
         25    1    4    4    0    0 -0.13412340532E+02  0.34871723841E+02  0.15770145351E+02  0.13149955736E+03  0.12509000000E+03 0.  0.
         25    1    3    3    0    0  0.42791381577E+02 -0.71360843310E+02 -0.53144079092E+02  0.15935894558E+03  0.12509000000E+03 0.  0.
         25    1    4    4    0    0 -0.29379041045E+02  0.36489119470E+02  0.10398818529E+03  0.16927975269E+03  0.12509000000E+03 0.  0.
<mgrwt>
<rscale>  2 0.45529085E+03</rscale>
<asrwt>0</asrwt>
<pdfrwt beam="1">  1       21 0.38731802E-01 0.45529085E+03</pdfrwt>
<pdfrwt beam="2">  1       21 0.28935588E-01 0.45529085E+03</pdfrwt>
<totfact> 0.68012613E+04</totfact>
</mgrwt>
</event>
<event>
 7    0  0.4712189E-002  0.4518087E+03  0.7546771E-02  0.1027184E+00
         21   -1    0    0  502  501  0.00000000000E+00  0.00000000000E+00  0.60331757115E+03  0.60331757115E+03  0.00000000000E+00 0. -1.
         21   -1    0    0  501  502 -0.00000000000E+00 -0.00000000000E+00 -0.84586903991E+02  0.84586903991E+02  0.00000000000E+00 0. -1.
      99926    2    1    2    0    0  0.71054273576E-14  0.14210854715E-13  0.51873066716E+03  0.68790447514E+03  0.45180865626E+03 0.  0.
      99925    2    3    3    0    0  0.43991066167E+02  0.99434995466E+02  0.35090061078E+03  0.45202957578E+03  0.26339507685E+03 0.  0.
         25    1    4    4    0    0  0.26258112323E+02  0.92174041894E+02  0.17746150302E+03  0.23733022482E+03  0.12509000000E+03 0.  0.
         25    1    4    4    0    0  0.17732953844E+02  0.72609535721E+01  0.17343910776E+03  0.21469935095E+03  0.12509000000E+03 0.  0.
         25    1    3    3    0    0 -0.43991066167E+02 -0.99434995466E+02  0.16783005638E+03  0.23587489937E+03  0.12509000000E+03 0.  0.
<mgrwt>
<rscale>  2 0.45180866E+03</rscale>
<asrwt>0</asrwt>
<pdfrwt beam="1">  1       21 0.88723170E-01 0.45180866E+03</pdfrwt>
<pdfrwt beam="2">  1       21 0.12439251E-01 0.45180866E+03</pdfrwt>
<totfact> 0.54931868E+04</totfact>
</mgrwt>
</event>
<event>
 7    0  0.4712189E-002  0.4512916E+03  0.7546771E-02  0.1027338E+00
         21   -1    0    0  502  501  0.00000000000E+00  0.00000000000E+00  0.15200402128E+03  0.15200402128E+03  0.00000000000E+00 0.  1.
         21   -1    0    0  501  502 -0.00000000000E+00 -0.00000000000E+00 -0.33496498139E+03  0.33496498139E+03  0.00000000000E+00 0.  1.
      99926    2    1    2    0    0  0.00000000000E+00 -0.71054273576E-14 -0.18296096010E+03  0.48696900267E+03  0.45129158716E+03 0.  0.
      99925    2    3    3    0    0  0.91450552576E+02 -0.47587234402E+02 -0.15600677160E+03  0.32264680447E+03  0.26293554192E+03 0.  0.
         25    1    4    4    0    0  0.96656512130E+01 -0.40195928743E+02 -0.59258774933E+02  0.14445846464E+03  0.12509000000E+03 0.  0.
         25    1    4    4    0    0  0.81784901363E+02 -0.73913056586E+01 -0.96747996665E+02  0.17818833982E+03  0.12509000000E+03 0.  0.
         25    1    3    3    0    0 -0.91450552576E+02  0.47587234402E+02 -0.26954188503E+02  0.16432219820E+03  0.12509000000E+03 0.  0.
<mgrwt>
<rscale>  2 0.45129159E+03</rscale>
<asrwt>0</asrwt>
<pdfrwt beam="1">  1       21 0.22353533E-01 0.45129159E+03</pdfrwt>
<pdfrwt beam="2">  1       21 0.49259555E-01 0.45129159E+03</pdfrwt>
<totfact> 0.68181451E+04</totfact>
</mgrwt>
</event>
<event>
 7    0  0.4712189E-002  0.4432641E+03  0.7546771E-02  0.1029750E+00
         21   -1    0    0  502  501  0.00000000000E+00  0.00000000000E+00  0.86790466107E+02  0.86790466107E+02  0.00000000000E+00 0.  1.
         21   -1    0    0  501  502 -0.00000000000E+00 -0.00000000000E+00 -0.56596965290E+03  0.56596965290E+03  0.00000000000E+00 0.  1.
      99926    2    1    2    0    0  0.00000000000E+00 -0.14210854715E-13 -0.47917918679E+03  0.65276011901E+03  0.44326411981E+03 0.  0.
      99925    2    3    3    0    0 -0.36394152255E+02  0.92786921002E+02 -0.33327765093E+03  0.43626828707E+03  0.26329086324E+03 0.  0.
         25    1    4    4    0    0 -0.20953928100E+02  0.51325809762E+01 -0.13208890898E+03  0.18319497391E+03  0.12509000000E+03 0.  0.
         25    1    3    3    0    0  0.36394152255E+02 -0.92786921002E+02 -0.14590153586E+03  0.21649183193E+03  0.12509000000E+03 0.  0.
         25    1    4    4    0    0 -0.15440224155E+02  0.87654340026E+02 -0.20118874195E+03  0.25307331316E+03  0.12509000000E+03 0.  0.
<mgrwt>
<rscale>  2 0.44326412E+03</rscale>
<asrwt>0</asrwt>
<pdfrwt beam="1">  1       21 0.12763304E-01 0.44326412E+03</pdfrwt>
<pdfrwt beam="2">  1       21 0.83230831E-01 0.44326412E+03</pdfrwt>
<totfact> 0.60994797E+04</totfact>
</mgrwt>
</event>
<event>
 7    0  0.4712189E-002  0.4449019E+03  0.7546771E-02  0.1029253E+00
         21   -1    0    0  502  501  0.00000000000E+00  0.00000000000E+00  0.87039351471E+03  0.87039351471E+03  0.00000000000E+00 0. -1.
         21   -1    0    0  501  502 -0.00000000000E+00 -0.00000000000E+00 -0.56852939584E+02  0.56852939584E+02  0.00000000000E+00 0. -1.
      99926    2    1    2    0    0  0.00000000000E+00  0.00000000000E+00  0.81354057513E+03  0.92724645429E+03  0.44490192135E+03 0.  0.
      99925    2    3    3    0    0 -0.37515095142E+02 -0.55331993495E+02  0.35218265047E+03  0.44457922461E+03  0.26296208053E+03 0.  0.
         25    1    4    4    0    0 -0.31650218918E+02 -0.67105626685E+02  0.18258568736E+03  0.23343080949E+03  0.12509000000E+03 0.  0.
         25    1    4    4    0    0 -0.58648762237E+01  0.11773633190E+02  0.16959696311E+03  0.21114841512E+03  0.12509000000E+03 0.  0.
         25    1    3    3    0    0  0.37515095142E+02  0.55331993495E+02  0.46135792466E+03  0.48266722969E+03  0.12509000000E+03 0.  0.
<mgrwt>
<rscale>  2 0.44490192E+03</rscale>
<asrwt>0</asrwt>
<pdfrwt beam="1">  1       21 0.12799904E+00 0.44490192E+03</pdfrwt>
<pdfrwt beam="2">  1       21 0.83607269E-02 0.44490192E+03</pdfrwt>
<totfact> 0.45570441E+04</totfact>
</mgrwt>
</event>
<event>
 7    0  0.4712189E-002  0.4553809E+03  0.7546771E-02  0.1026129E+00
         21   -1    0    0  502  501  0.00000000000E+00  0.00000000000E+00  0.30320732697E+02  0.30320732697E+02  0.00000000000E+00 0. -1.
         21   -1    0    0  501  502 -0.00000000000E+00 -0.00000000000E+00 -0.17098185635E+04  0.17098185635E+04  0.00000000000E+00 0. -1.
      99926    2    1    2    0    0  0.14210854715E-13  0.47184478547E-15 -0.16794978308E+04  0.17401392962E+04  0.45538094656E+03 0.  0.
      99925    2    3    3    0    0  0.11338959712E+03 -0.23835026753E+00 -0.10209864468E+04  0.10603290223E+04  0.26273000098E+03 0.  0.
         25    1    4    4    0    0  0.91056574936E+02 -0.12789357746E+02 -0.63803647026E+03  0.65665281009E+03  0.12509000000E+03 0.  0.
         25    1    4    4    0    0  0.22333022188E+02  0.12551007479E+02 -0.38294997658E+03  0.40367621224E+03  0.12509000000E+03 0.  0.
         25    1    3    3    0    0 -0.11338959712E+03  0.23835026753E+00 -0.65851138393E+03  0.67981027383E+03  0.12509000000E+03 0.  0.
<mgrwt>
<rscale>  2 0.45538095E+03</rscale>
<asrwt>0</asrwt>
<pdfrwt beam="1">  1       21 0.44589321E-02 0.45538095E+03</pdfrwt>
<pdfrwt beam="2">  1       21 0.25144386E+00 0.45538095E+03</pdfrwt>
<totfact> 0.18384128E+04</totfact>
</mgrwt>
</event>
<event>
 7    0  0.4712189E-002  0.4543172E+03  0.7546771E-02  0.1026442E+00
         21   -1    0    0  502  501  0.00000000000E+00  0.00000000000E+00  0.31629917772E+03  0.31629917772E+03  0.00000000000E+00 0.  1.
         21   -1    0    0  501  502 -0.00000000000E+00 -0.00000000000E+00 -0.16313997554E+03  0.16313997554E+03  0.00000000000E+00 0.  1.
      99926    2    1    2    0    0  0.00000000000E+00  0.00000000000E+00  0.15315920218E+03  0.47943915326E+03  0.45431724650E+03 0.  0.
      99925    2    3    3    0    0  0.47023081099E+02 -0.39108569549E+02  0.19657054491E+03  0.33358750553E+03  0.26248808420E+03 0.  0.
         25    1    4    4    0    0  0.34641600660E+02 -0.54444906589E+02  0.12430083979E+03  0.18778310686E+03  0.12509000000E+03 0.  0.
         25    1    4    4    0    0  0.12381480439E+02  0.15336337040E+02  0.72269705121E+02  0.14580439866E+03  0.12509000000E+03 0.  0.
         25    1    3    3    0    0 -0.47023081099E+02  0.39108569549E+02 -0.43411342731E+02  0.14585164773E+03  0.12509000000E+03 0.  0.
<mgrwt>
<rscale>  2 0.45431725E+03</rscale>
<asrwt>0</asrwt>
<pdfrwt beam="1">  1       21 0.46514585E-01 0.45431725E+03</pdfrwt>
<pdfrwt beam="2">  1       21 0.23991173E-01 0.45431725E+03</pdfrwt>
<totfact> 0.67103863E+04</totfact>
</mgrwt>
</event>
<event>
 7    0  0.4712189E-002  0.4524929E+03  0.7546771E-02  0.1026981E+00
         21   -1    0    0  502  501  0.00000000000E+00  0.00000000000E+00  0.10335358844E+03  0.10335358844E+03  0.00000000000E+00 0.  1.
         21   -1    0    0  501  502 -0.00000000000E+00 -0.00000000000E+00 -0.49526541166E+03  0.49526541166E+03  0.00000000000E+00 0.  1.
      99926    2    1    2    0    0 -0.56621374256E-14  0.44408920985E-15 -0.39191182322E+03  0.59861900011E+03  0.45249290614E+03 0.  0.
      99925    2    3    3    0    0  0.71421863318E+00 -0.34381895543E+01 -0.39379001771E+03  0.47346562632E+03  0.26284366077E+03 0.  0.
         25    1    3    3    0    0 -0.71421863318E+00  0.34381895543E+01  0.18781944834E+01  0.12515337379E+03  0.12509000000E+03 0.  0.
         25    1    4    4    0    0  0.38940602439E+02 -0.69360424467E+01 -0.17840863607E+03  0.22145344596E+03  0.12509000000E+03 0.  0.
         25    1    4    4    0    0 -0.38226383806E+02  0.34978528924E+01 -0.21538138163E+03  0.25201218036E+03  0.12509000000E+03 0.  0.
<mgrwt>
<rscale>  2 0.45249291E+03</rscale>
<asrwt>0</asrwt>
<pdfrwt beam="1">  1       21 0.15199057E-01 0.45249291E+03</pdfrwt>
<pdfrwt beam="2">  1       21 0.72833149E-01 0.45249291E+03</pdfrwt>
<totfact> 0.59941992E+04</totfact>
</mgrwt>
</event>
<event>
 7    0  0.4712189E-002  0.4572766E+03  0.7546771E-02  0.1025574E+00
         21   -1    0    0  502  501  0.00000000000E+00  0.00000000000E+00  0.93458376824E+02  0.93458376824E+02  0.00000000000E+00 0. -1.
         21   -1    0    0  501  502 -0.00000000000E+00 -0.00000000000E+00 -0.55934495940E+03  0.55934495940E+03  0.00000000000E+00 0. -1.
      99926    2    1    2    0    0  0.71054273576E-14  0.00000000000E+00 -0.46588658257E+03  0.65280333622E+03  0.45727659896E+03 0.  0.
      99925    2    3    3    0    0 -0.62286833788E+02  0.70962407741E+02 -0.19812210423E+03  0.34254435257E+03  0.26299990934E+03 0.  0.
         25    1    4    4    0    0 -0.70951266367E+02  0.29198856590E+02 -0.11473514684E+03  0.18627484383E+03  0.12509000000E+03 0.  0.
         25    1    4    4    0    0  0.86644325793E+01  0.41763551151E+02 -0.83386957393E+02  0.15626950873E+03  0.12509000000E+03 0.  0.
         25    1    3    3    0    0  0.62286833788E+02 -0.70962407741E+02 -0.26776447834E+03  0.31025898366E+03  0.12509000000E+03 0.  0.
<mgrwt>
<rscale>  2 0.45727660E+03</rscale>
<asrwt>0</asrwt>
<pdfrwt beam="1">  1       21 0.13743879E-01 0.45727660E+03</pdfrwt>
<pdfrwt beam="2">  1       21 0.82256613E-01 0.45727660E+03</pdfrwt>
<totfact> 0.54553942E+04</totfact>
</mgrwt>
</event>
<event>
 7    0  0.4712189E-002  0.4563017E+03  0.7546771E-02  0.1025859E+00
         21   -1    0    0  502  501  0.00000000000E+00  0.00000000000E+00  0.51344139230E+03  0.51344139230E+03  0.00000000000E+00 0.  1.
         21   -1    0    0  501  502 -0.00000000000E+00 -0.00000000000E+00 -0.10138025969E+03  0.10138025969E+03  0.00000000000E+00 0.  1.
      99926    2    1    2    0    0  0.35527136788E-14  0.14210854715E-13  0.41206113261E+03  0.61482165200E+03  0.45630174967E+03 0.  0.
      99925    2    3    3    0    0 -0.25853731412E+02 -0.11125292336E+03  0.25109835069E+03  0.38115061475E+03  0.26302049543E+03 0.  0.
         25    1    4    4    0    0  0.13883248802E+02 -0.40621983764E+02  0.15525232456E+03  0.20394529301E+03  0.12509000000E+03 0.  0.
         25    1    3    3    0    0  0.25853731412E+02  0.11125292336E+03  0.16096278192E+03  0.23367103725E+03  0.12509000000E+03 0.  0.
         25    1    4    4    0    0 -0.39736980213E+02 -0.70630939600E+02  0.95846026137E+02  0.17720532174E+03  0.12509000000E+03 0.  0.
<mgrwt>
<rscale>  2 0.45630175E+03</rscale>
<asrwt>0</asrwt>
<pdfrwt beam="1">  1       21 0.75506086E-01 0.45630175E+03</pdfrwt>
<pdfrwt beam="2">  1       21 0.14908862E-01 0.45630175E+03</pdfrwt>
<totfact> 0.57184919E+04</totfact>
</mgrwt>
</event>
<event>
 7    0  0.4712189E-002  0.4444168E+03  0.7546771E-02  0.1029400E+00
         21   -1    0    0  502  501  0.00000000000E+00  0.00000000000E+00  0.13346449482E+04  0.13346449482E+04  0.00000000000E+00 0.  1.
         21   -1    0    0  501  502 -0.00000000000E+00 -0.00000000000E+00 -0.36996041811E+02  0.36996041811E+02  0.00000000000E+00 0.  1.
      99926    2    1    2    0    0  0.17763568394E-14  0.00000000000E+00  0.12976489064E+04  0.13716409900E+04  0.44441683274E+03 0.  0.
      99925    2    3    3    0    0 -0.12292235994E+02  0.70492556767E+02  0.59574184570E+03  0.65509278537E+03  0.26290285488E+03 0.  0.
         25    1    3    3    0    0  0.12292235994E+02 -0.70492556767E+02  0.70190706069E+03  0.71654820464E+03  0.12509000000E+03 0.  0.
         25    1    4    4    0    0 -0.13541198900E+02  0.70177739646E+02  0.26764785977E+03  0.30395914881E+03  0.12509000000E+03 0.  0.
         25    1    4    4    0    0  0.12489629062E+01  0.31481712027E+00  0.32809398593E+03  0.35113363656E+03  0.12509000000E+03 0.  0.
<mgrwt>
<rscale>  2 0.44441683E+03</rscale>
<asrwt>0</asrwt>
<pdfrwt beam="1">  1       21 0.19627128E+00 0.44441683E+03</pdfrwt>
<pdfrwt beam="2">  1       21 0.54405953E-02 0.44441683E+03</pdfrwt>
<totfact> 0.29446330E+04</totfact>
</mgrwt>
</event>
<event>
 7    0  0.4712189E-002  0.4531965E+03  0.7546771E-02  0.1026773E+00
         21   -1    0    0  502  501  0.00000000000E+00  0.00000000000E+00  0.51464443054E+02  0.51464443054E+02  0.00000000000E+00 0.  1.
         21   -1    0    0  501  502 -0.00000000000E+00 -0.00000000000E+00 -0.99771348082E+03  0.99771348082E+03  0.00000000000E+00 0.  1.
      99926    2    1    2    0    0 -0.14210854715E-13  0.00000000000E+00 -0.94624903777E+03  0.10491779239E+04  0.45319650757E+03 0.  0.
      99925    2    3    3    0    0 -0.83740343766E+02  0.56587580543E+02 -0.48733252101E+03  0.56289973508E+03  0.26296107368E+03 0.  0.
         25    1    4    4    0    0 -0.50571588787E+02  0.86454566494E+01 -0.17268423127E+03  0.21931616754E+03  0.12509000000E+03 0.  0.
         25    1    4    4    0    0 -0.33168754979E+02  0.47942123894E+02 -0.31464828974E+03  0.34358356755E+03  0.12509000000E+03 0.  0.
         25    1    3    3    0    0  0.83740343766E+02 -0.56587580543E+02 -0.45891651676E+03  0.48627818879E+03  0.12509000000E+03 0.  0.
<mgrwt>
<rscale>  2 0.45319651E+03</rscale>
<asrwt>0</asrwt>
<pdfrwt beam="1">  1       21 0.75683004E-02 0.45319651E+03</pdfrwt>
<pdfrwt beam="2">  1       21 0.14672257E+00 0.45319651E+03</pdfrwt>
<totfact> 0.37837393E+04</totfact>
</mgrwt>
</event>
<event>
 7    0  0.4712189E-002  0.4577702E+03  0.7546771E-02  0.1025430E+00
         21   -1    0    0  502  501  0.00000000000E+00  0.00000000000E+00  0.42262798546E+03  0.42262798546E+03  0.00000000000E+00 0.  1.
         21   -1    0    0  501  502 -0.00000000000E+00 -0.00000000000E+00 -0.12395862027E+03  0.12395862027E+03  0.00000000000E+00 0.  1.
      99926    2    1    2    0    0  0.00000000000E+00  0.88817841970E-15  0.29866936519E+03  0.54658660573E+03  0.45777016926E+03 0.  0.
      99925    2    3    3    0    0  0.11459640706E+03  0.20116083068E+01  0.16853915809E+03  0.33276948299E+03  0.26304695003E+03 0.  0.
         25    1    4    4    0    0  0.99807153483E+02  0.95250256200E+01  0.10337880085E+03  0.19075344968E+03  0.12509000000E+03 0.  0.
         25    1    3    3    0    0 -0.11459640706E+03 -0.20116083068E+01  0.13013020710E+03  0.21381712275E+03  0.12509000000E+03 0.  0.
         25    1    4    4    0    0  0.14789253579E+02 -0.75134173132E+01  0.65160357233E+02  0.14201603331E+03  0.12509000000E+03 0.  0.
<mgrwt>
<rscale>  2 0.45777017E+03</rscale>
<asrwt>0</asrwt>
<pdfrwt beam="1">  1       21 0.62151174E-01 0.45777017E+03</pdfrwt>
<pdfrwt beam="2">  1       21 0.18229209E-01 0.45777017E+03</pdfrwt>
<totfact> 0.60750044E+04</totfact>
</mgrwt>
</event>
<event>
 7    0  0.4712189E-002  0.4520818E+03  0.7546771E-02  0.1027103E+00
         21   -1    0    0  502  501  0.00000000000E+00  0.00000000000E+00  0.30830016457E+03  0.30830016457E+03  0.00000000000E+00 0. -1.
         21   -1    0    0  501  502 -0.00000000000E+00 -0.00000000000E+00 -0.16572965283E+03  0.16572965283E+03  0.00000000000E+00 0. -1.
      99926    2    1    2    0    0  0.00000000000E+00  0.00000000000E+00  0.14257051174E+03  0.47402981740E+03  0.45208175916E+03 0.  0.
      99925    2    3    3    0    0 -0.10623989727E+03  0.21595562270E+02  0.68278494385E+02  0.29259085790E+03  0.26304785354E+03 0.  0.
         25    1    4    4    0    0 -0.12249720848E+02  0.22844688185E+02  0.37310519353E+02  0.13308462869E+03  0.12509000000E+03 0.  0.
         25    1    3    3    0    0  0.10623989727E+03 -0.21595562270E+02  0.74292017358E+02  0.18143895950E+03  0.12509000000E+03 0.  0.
         25    1    4    4    0    0 -0.93990176423E+02 -0.12491259156E+01  0.30967975032E+02  0.15950622921E+03  0.12509000000E+03 0.  0.
<mgrwt>
<rscale>  2 0.45208176E+03</rscale>
<asrwt>0</asrwt>
<pdfrwt beam="1">  1       21 0.45338259E-01 0.45208176E+03</pdfrwt>
<pdfrwt beam="2">  1       21 0.24372008E-01 0.45208176E+03</pdfrwt>
<totfact> 0.68714988E+04</totfact>
</mgrwt>
</event>
<event>
 7    0  0.4712189E-002  0.4543010E+03  0.7546771E-02  0.1026447E+00
         21   -1    0    0  502  501  0.00000000000E+00  0.00000000000E+00  0.89406664779E+03  0.89406664779E+03  0.00000000000E+00 0. -1.
         21   -1    0    0  501  502 -0.00000000000E+00 -0.00000000000E+00 -0.57710862872E+02  0.57710862872E+02  0.00000000000E+00 0. -1.
      99926    2    1    2    0    0  0.00000000000E+00  0.00000000000E+00  0.83635578492E+03  0.95177751067E+03  0.45430103548E+03 0.  0.
      99925    2    3    3    0    0  0.63811555236E+01  0.14703587886E+02  0.76118015686E+03  0.80495858206E+03  0.26135449679E+03 0.  0.
         25    1    4    4    0    0 -0.12872550681E+02  0.12416518680E+02  0.48431914033E+03  0.50053212713E+03  0.12509000000E+03 0.  0.
         25    1    4    4    0    0  0.19253706205E+02  0.22870692058E+01  0.27686101653E+03  0.30442645493E+03  0.12509000000E+03 0.  0.
         25    1    3    3    0    0 -0.63811555236E+01 -0.14703587886E+02  0.75175628059E+02  0.14681892860E+03  0.12509000000E+03 0.  0.
<mgrwt>
<rscale>  2 0.45430104E+03</rscale>
<asrwt>0</asrwt>
<pdfrwt beam="1">  1       21 0.13148038E+00 0.45430104E+03</pdfrwt>
<pdfrwt beam="2">  1       21 0.84868921E-02 0.45430104E+03</pdfrwt>
<totfact> 0.41294158E+04</totfact>
</mgrwt>
</event>
<event>
 7    0  0.4712189E-002  0.4564713E+03  0.7546771E-02  0.1025810E+00
         21   -1    0    0  502  501  0.00000000000E+00  0.00000000000E+00  0.18144726874E+03  0.18144726874E+03  0.00000000000E+00 0.  1.
         21   -1    0    0  501  502 -0.00000000000E+00 -0.00000000000E+00 -0.28708892935E+03  0.28708892935E+03  0.00000000000E+00 0.  1.
      99926    2    1    2    0    0  0.00000000000E+00  0.35527136788E-14 -0.10564166061E+03  0.46853619808E+03  0.45647125699E+03 0.  0.
      99925    2    3    3    0    0 -0.70345984187E+02  0.25695572690E+02  0.22473304587E+02  0.27444917545E+03  0.26307504735E+03 0.  0.
         25    1    4    4    0    0 -0.25013962628E+02  0.34072600382E+02  0.44483416076E+02  0.13933026530E+03  0.12509000000E+03 0.  0.
         25    1    3    3    0    0  0.70345984187E+02 -0.25695572690E+02 -0.12811496520E+03  0.19408702263E+03  0.12509000000E+03 0.  0.
         25    1    4    4    0    0 -0.45332021559E+02 -0.83770276925E+01 -0.22010111489E+02  0.13511891015E+03  0.12509000000E+03 0.  0.
<mgrwt>
<rscale>  2 0.45647126E+03</rscale>
<asrwt>0</asrwt>
<pdfrwt beam="1">  1       21 0.26683422E-01 0.45647126E+03</pdfrwt>
<pdfrwt beam="2">  1       21 0.42218960E-01 0.45647126E+03</pdfrwt>
<totfact> 0.66762402E+04</totfact>
</mgrwt>
</event>
<event>
 7    0  0.4712189E-002  0.4547977E+03  0.7546771E-02  0.1026301E+00
         21   -1    0    0  502  501  0.00000000000E+00  0.00000000000E+00  0.13797001905E+04  0.13797001905E+04  0.00000000000E+00 0.  1.
         21   -1    0    0  501  502 -0.00000000000E+00 -0.00000000000E+00 -0.37479320905E+02  0.37479320905E+02  0.00000000000E+00 0.  1.
      99926    2    1    2    0    0  0.00000000000E+00  0.00000000000E+00  0.13422208696E+04  0.14171795114E+04  0.45479765256E+03 0.  0.
      99925    2    3    3    0    0  0.91085666168E+02 -0.61730596064E+02  0.92475473117E+03  0.96769897801E+03  0.26298808747E+03 0.  0.
         25    1    4    4    0    0  0.25987518784E+02 -0.20636939195E+02  0.55386619865E+03  0.56878511628E+03  0.12509000000E+03 0.  0.
         25    1    3    3    0    0 -0.91085666168E+02  0.61730596064E+02  0.41746613845E+03  0.44948053342E+03  0.12509000000E+03 0.  0.
         25    1    4    4    0    0  0.65098147384E+02 -0.41093656868E+02  0.37088853252E+03  0.39891386174E+03  0.12509000000E+03 0.  0.
<mgrwt>
<rscale>  2 0.45479765E+03</rscale>
<asrwt>0</asrwt>
<pdfrwt beam="1">  1       21 0.20289705E+00 0.45479765E+03</pdfrwt>
<pdfrwt beam="2">  1       21 0.55116657E-02 0.45479765E+03</pdfrwt>
<totfact> 0.25918519E+04</totfact>
</mgrwt>
</event>
<event>
 7    0  0.4712189E-002  0.4542689E+03  0.7546771E-02  0.1026457E+00
         21   -1    0    0  502  501  0.00000000000E+00  0.00000000000E+00  0.15296603324E+03  0.15296603324E+03  0.00000000000E+00 0. -1.
         21   -1    0    0  501  502 -0.00000000000E+00 -0.00000000000E+00 -0.33726485681E+03  0.33726485681E+03  0.00000000000E+00 0. -1.
      99926    2    1    2    0    0 -0.99920072216E-15  0.14210854715E-13 -0.18429882357E+03  0.49023089005E+03  0.45426893927E+03 0.  0.
      99925    2    3    3    0    0 -0.54350452959E+00  0.10724898873E+03 -0.79458663988E+02  0.29493212369E+03  0.26299931049E+03 0.  0.
         25    1    4    4    0    0  0.95026158614E+01  0.52864524557E+02 -0.80507386159E+02  0.15815784834E+03  0.12509000000E+03 0.  0.
         25    1    4    4    0    0 -0.10046120391E+02  0.54384464174E+02  0.10487221717E+01  0.13677427535E+03  0.12509000000E+03 0.  0.
         25    1    3    3    0    0  0.54350452959E+00 -0.10724898873E+03 -0.10484015958E+03  0.19529876636E+03  0.12509000000E+03 0.  0.
<mgrwt>
<rscale>  2 0.45426894E+03</rscale>
<asrwt>0</asrwt>
<pdfrwt beam="1">  1       21 0.22495005E-01 0.45426894E+03</pdfrwt>
<pdfrwt beam="2">  1       21 0.49597773E-01 0.45426894E+03</pdfrwt>
<totfact> 0.66346786E+04</totfact>
</mgrwt>
</event>
<event>
 7    0  0.4712189E-002  0.4440714E+03  0.7546771E-02  0.1029505E+00
         21   -1    0    0  502  501  0.00000000000E+00  0.00000000000E+00  0.50208445438E+03  0.50208445438E+03  0.00000000000E+00 0. -1.
         21   -1    0    0  501  502 -0.00000000000E+00 -0.00000000000E+00 -0.98190343672E+02  0.98190343672E+02  0.00000000000E+00 0. -1.
      99926    2    1    2    0    0 -0.11102230246E-15  0.00000000000E+00  0.40389411071E+03  0.60027479806E+03  0.44407136872E+03 0.  0.
      99925    2    3    3    0    0  0.77375014170E+00  0.97115093018E+02  0.21247104004E+03  0.35183518756E+03  0.26308195750E+03 0.  0.
         25    1    4    4    0    0  0.19792330153E+02  0.85412334443E+02  0.10438345398E+03  0.18501463935E+03  0.12509000000E+03 0.  0.
         25    1    4    4    0    0 -0.19018580011E+02  0.11702758575E+02  0.10808758606E+03  0.16682054821E+03  0.12509000000E+03 0.  0.
         25    1    3    3    0    0 -0.77375014170E+00 -0.97115093018E+02  0.19142307067E+03  0.24843961050E+03  0.12509000000E+03 0.  0.
<mgrwt>
<rscale>  2 0.44407137E+03</rscale>
<asrwt>0</asrwt>
<pdfrwt beam="1">  1       21 0.73835948E-01 0.44407137E+03</pdfrwt>
<pdfrwt beam="2">  1       21 0.14439757E-01 0.44407137E+03</pdfrwt>
<totfact> 0.64011978E+04</totfact>
</mgrwt>
</event>
<event>
 7    0  0.4712189E-002  0.4615419E+03  0.7546771E-02  0.1024335E+00
         21   -1    0    0  502  501  0.00000000000E+00  0.00000000000E+00  0.21466508223E+03  0.21466508223E+03  0.00000000000E+00 0. -1.
         21   -1    0    0  501  502 -0.00000000000E+00 -0.00000000000E+00 -0.24808518538E+03  0.24808518538E+03  0.00000000000E+00 0. -1.
      99926    2    1    2    0    0  0.00000000000E+00  0.00000000000E+00 -0.33420103144E+02  0.46275026761E+03  0.46154187988E+03 0.  0.
      99925    2    3    3    0    0  0.70837668508E+02  0.89774201972E+02 -0.55775792022E+02  0.29179803000E+03  0.26259811255E+03 0.  0.
         25    1    3    3    0    0 -0.70837668508E+02 -0.89774201972E+02  0.22355688878E+02  0.17095223761E+03  0.12509000000E+03 0.  0.
         25    1    4    4    0    0 -0.47106190609E+01  0.44147740099E+02 -0.16563133333E+02  0.13376493701E+03  0.12509000000E+03 0.  0.
         25    1    4    4    0    0  0.75548287569E+02  0.45626461873E+02 -0.39212658689E+02  0.15803309299E+03  0.12509000000E+03 0.  0.
<mgrwt>
<rscale>  2 0.46154188E+03</rscale>
<asrwt>0</asrwt>
<pdfrwt beam="1">  1       21 0.31568394E-01 0.46154188E+03</pdfrwt>
<pdfrwt beam="2">  1       21 0.36483115E-01 0.46154188E+03</pdfrwt>
<totfact> 0.64546311E+04</totfact>
</mgrwt>
</event>
<event>
 7    0  0.4712189E-002  0.4457328E+03  0.7546771E-02  0.1029002E+00
         21   -1    0    0  502  501  0.00000000000E+00  0.00000000000E+00  0.50702862051E+03  0.50702862051E+03  0.00000000000E+00 0. -1.
         21   -1    0    0  501  502 -0.00000000000E+00 -0.00000000000E+00 -0.97961793400E+02  0.97961793400E+02  0.00000000000E+00 0. -1.
      99926    2    1    2    0    0  0.00000000000E+00  0.00000000000E+00  0.40906682711E+03  0.60499041391E+03  0.44573280324E+03 0.  0.
      99925    2    3    3    0    0  0.94879677356E+02 -0.41457927046E+02  0.24327922965E+03  0.37292587879E+03  0.26299812661E+03 0.  0.
         25    1    4    4    0    0  0.55137285012E+02  0.34165218678E+01  0.16260447915E+03  0.21246062591E+03  0.12509000000E+03 0.  0.
         25    1    3    3    0    0 -0.94879677356E+02  0.41457927046E+02  0.16578759746E+03  0.23206453512E+03  0.12509000000E+03 0.  0.
         25    1    4    4    0    0  0.39742392343E+02 -0.44874448914E+02  0.80674750498E+02  0.16046525288E+03  0.12509000000E+03 0.  0.
<mgrwt>
<rscale>  2 0.44573280E+03</rscale>
<asrwt>0</asrwt>
<pdfrwt beam="1">  1       21 0.74563031E-01 0.44573280E+03</pdfrwt>
<pdfrwt beam="2">  1       21 0.14406146E-01 0.44573280E+03</pdfrwt>
<totfact> 0.62848330E+04</totfact>
</mgrwt>
</event>
<event>
 7    0  0.4712189E-002  0.4540501E+03  0.7546771E-02  0.1026521E+00
         21   -1    0    0  502  501  0.00000000000E+00  0.00000000000E+00  0.32628928702E+03  0.32628928702E+03  0.00000000000E+00 0.  1.
         21   -1    0    0  501  502 -0.00000000000E+00 -0.00000000000E+00 -0.15795914652E+03  0.15795914652E+03  0.00000000000E+00 0.  1.
      99926    2    1    2    0    0  0.35527136788E-14  0.14210854715E-13  0.16833014050E+03  0.48424843353E+03  0.45405011747E+03 0.  0.
      99925    2    3    3    0    0  0.16922448839E+02 -0.10405988118E+03  0.14668472743E+03  0.31923067645E+03  0.26320521913E+03 0.  0.
         25    1    4    4    0    0 -0.29194770300E+02 -0.67682469596E+02  0.80310293688E+02  0.16592318306E+03  0.12509000000E+03 0.  0.
         25    1    3    3    0    0 -0.16922448839E+02  0.10405988118E+03  0.21645413069E+02  0.16501775709E+03  0.12509000000E+03 0.  0.
         25    1    4    4    0    0  0.46117219140E+02 -0.36377411587E+02  0.66374433742E+02  0.15330749339E+03  0.12509000000E+03 0.  0.
<mgrwt>
<rscale>  2 0.45405012E+03</rscale>
<asrwt>0</asrwt>
<pdfrwt beam="1">  1       21 0.47983719E-01 0.45405012E+03</pdfrwt>
<pdfrwt beam="2">  1       21 0.23229286E-01 0.45405012E+03</pdfrwt>
<totfact> 0.66895126E+04</totfact>
</mgrwt>
</event>
<event>
 7    0  0.4712189E-002  0.4619721E+03  0.7546771E-02  0.1024211E+00
         21   -1    0    0  502  501  0.00000000000E+00  0.00000000000E+00  0.69948939227E+03  0.69948939227E+03  0.00000000000E+00 0. -1.
         21   -1    0    0  501  502 -0.00000000000E+00 -0.00000000000E+00 -0.76276429816E+02  0.76276429816E+02  0.00000000000E+00 0. -1.
      99926    2    1    2    0    0 -0.22204460493E-15  0.00000000000E+00  0.62321296246E+03  0.77576582209E+03  0.46197209239E+03 0.  0.
      99925    2    3    3    0    0 -0.54453675961E+00 -0.11960350882E+03  0.38349355518E+03  0.48010013560E+03  0.26291355518E+03 0.  0.
         25    1    3    3    0    0  0.54453675961E+00  0.11960350882E+03  0.23971940728E+03  0.29566568649E+03  0.12509000000E+03 0.  0.
         25    1    4    4    0    0  0.57662147506E+01 -0.39935789813E+02  0.12157257514E+03  0.17904054197E+03  0.12509000000E+03 0.  0.
         25    1    4    4    0    0 -0.63107515102E+01 -0.79667719005E+02  0.26192098004E+03  0.30105959363E+03  0.12509000000E+03 0.  0.
<mgrwt>
<rscale>  2 0.46197209E+03</rscale>
<asrwt>0</asrwt>
<pdfrwt beam="1">  1       21 0.10286608E+00 0.46197209E+03</pdfrwt>
<pdfrwt beam="2">  1       21 0.11217122E-01 0.46197209E+03</pdfrwt>
<totfact> 0.46369127E+04</totfact>
</mgrwt>
</event>
<event>
 7    0  0.4712189E-002  0.4572541E+03  0.7546771E-02  0.1025581E+00
         21   -1    0    0  502  501  0.00000000000E+00  0.00000000000E+00  0.28244135459E+03  0.28244135459E+03  0.00000000000E+00 0. -1.
         21   -1    0    0  501  502 -0.00000000000E+00 -0.00000000000E+00 -0.18506614268E+03  0.18506614268E+03  0.00000000000E+00 0. -1.
      99926    2    1    2    0    0  0.00000000000E+00 -0.14210854715E-13  0.97375211911E+02  0.46750749727E+03  0.45725411765E+03 0.  0.
      99925    2    3    3    0    0  0.17172217864E+02 -0.11351494488E+03  0.51081806838E+02  0.29152137501E+03  0.26304910819E+03 0.  0.
         25    1    3    3    0    0 -0.17172217864E+02  0.11351494488E+03  0.46293405073E+02  0.17598612226E+03  0.12509000000E+03 0.  0.
         25    1    4    4    0    0  0.48136467415E+01 -0.87895353098E+02  0.56663754382E+02  0.16311668661E+03  0.12509000000E+03 0.  0.
         25    1    4    4    0    0  0.12358571122E+02 -0.25619591777E+02 -0.55819475440E+01  0.12840468839E+03  0.12509000000E+03 0.  0.
<mgrwt>
<rscale>  2 0.45725412E+03</rscale>
<asrwt>0</asrwt>
<pdfrwt beam="1">  1       21 0.41535493E-01 0.45725412E+03</pdfrwt>
<pdfrwt beam="2">  1       21 0.27215609E-01 0.45725412E+03</pdfrwt>
<totfact> 0.66426358E+04</totfact>
</mgrwt>
</event>
<event>
 7    0  0.4712189E-002  0.4583789E+03  0.7546771E-02  0.1025252E+00
         21   -1    0    0  502  501  0.00000000000E+00  0.00000000000E+00  0.92374179600E+02  0.92374179600E+02  0.00000000000E+00 0. -1.
         21   -1    0    0  501  502 -0.00000000000E+00 -0.00000000000E+00 -0.56864156379E+03  0.56864156379E+03  0.00000000000E+00 0. -1.
      99926    2    1    2    0    0  0.00000000000E+00 -0.88817841970E-15 -0.47626738419E+03  0.66101574339E+03  0.45837887361E+03 0.  0.
      99925    2    3    3    0    0 -0.10083078371E+03  0.42750109111E+01 -0.21554472261E+03  0.35473329691E+03  0.26304193930E+03 0.  0.
         25    1    4    4    0    0 -0.61867669976E+02  0.30968173352E+02 -0.77729365238E+02  0.16271446976E+03  0.12509000000E+03 0.  0.
         25    1    3    3    0    0  0.10083078371E+03 -0.42750109111E+01 -0.26072266158E+03  0.30628244648E+03  0.12509000000E+03 0.  0.
         25    1    4    4    0    0 -0.38963113729E+02 -0.26693162441E+02 -0.13781535737E+03  0.19201882715E+03  0.12509000000E+03 0.  0.
<mgrwt>
<rscale>  2 0.45837887E+03</rscale>
<asrwt>0</asrwt>
<pdfrwt beam="1">  1       21 0.13584439E-01 0.45837887E+03</pdfrwt>
<pdfrwt beam="2">  1       21 0.83623757E-01 0.45837887E+03</pdfrwt>
<totfact> 0.53627555E+04</totfact>
</mgrwt>
</event>
<event>
 7    0  0.4712189E-002  0.4272242E+03  0.7546771E-02  0.1034740E+00
         21   -1    0    0  502  501  0.00000000000E+00  0.00000000000E+00  0.36788568968E+03  0.36788568968E+03  0.00000000000E+00 0.  1.
         21   -1    0    0  501  502 -0.00000000000E+00 -0.00000000000E+00 -0.12403344972E+03  0.12403344972E+03  0.00000000000E+00 0.  1.
      99926    2    1    2    0    0  0.00000000000E+00  0.00000000000E+00  0.24385223996E+03  0.49191913940E+03  0.42722420902E+03 0.  0.
      99925    2    3    3    0    0  0.62101462716E+02  0.11780887594E+02  0.93089557643E+02  0.28607386871E+03  0.26301561100E+03 0.  0.
         25    1    4    4    0    0  0.46978576091E+02  0.49136249257E+01  0.87432201224E+02  0.15975928215E+03  0.12509000000E+03 0.  0.
         25    1    3    3    0    0 -0.62101462716E+02 -0.11780887594E+02  0.15076268232E+03  0.20584527069E+03  0.12509000000E+03 0.  0.
         25    1    4    4    0    0  0.15122886625E+02  0.68672626687E+01  0.56573564190E+01  0.12631458656E+03  0.12509000000E+03 0.  0.
<mgrwt>
<rscale>  2 0.42722421E+03</rscale>
<asrwt>0</asrwt>
<pdfrwt beam="1">  1       21 0.54100837E-01 0.42722421E+03</pdfrwt>
<pdfrwt beam="2">  1       21 0.18240213E-01 0.42722421E+03</pdfrwt>
<totfact> 0.82600809E+04</totfact>
</mgrwt>
</event>
<event>
 7    0  0.4712189E-002  0.4608720E+03  0.7546771E-02  0.1024529E+00
         21   -1    0    0  502  501  0.00000000000E+00  0.00000000000E+00  0.11681401653E+03  0.11681401653E+03  0.00000000000E+00 0. -1.
         21   -1    0    0  501  502 -0.00000000000E+00 -0.00000000000E+00 -0.45457508685E+03  0.45457508685E+03  0.00000000000E+00 0. -1.
      99926    2    1    2    0    0  0.00000000000E+00 -0.14210854715E-13 -0.33776107032E+03  0.57138910338E+03  0.46087196361E+03 0.  0.
      99925    2    3    3    0    0 -0.59343244273E+02  0.83649555370E+02 -0.13762679177E+03  0.31405642705E+03  0.26300463267E+03 0.  0.
         25    1    4    4    0    0 -0.61681417319E+02  0.26112785533E+02 -0.48189986515E+02  0.14985412143E+03  0.12509000000E+03 0.  0.
         25    1    4    4    0    0  0.23381730457E+01  0.57536769837E+02 -0.89436805254E+02  0.16420230562E+03  0.12509000000E+03 0.  0.
         25    1    3    3    0    0  0.59343244273E+02 -0.83649555370E+02 -0.20013427855E+03  0.25733267633E+03  0.12509000000E+03 0.  0.
<mgrwt>
<rscale>  2 0.46087196E+03</rscale>
<asrwt>0</asrwt>
<pdfrwt beam="1">  1       21 0.17178532E-01 0.46087196E+03</pdfrwt>
<pdfrwt beam="2">  1       21 0.66849278E-01 0.46087196E+03</pdfrwt>
<totfact> 0.57746390E+04</totfact>
</mgrwt>
</event>
<event>
 7    0  0.4712189E-002  0.4547807E+03  0.7546771E-02  0.1026306E+00
         21   -1    0    0  502  501  0.00000000000E+00  0.00000000000E+00  0.60335293001E+03  0.60335293001E+03  0.00000000000E+00 0.  1.
         21   -1    0    0  501  502 -0.00000000000E+00 -0.00000000000E+00 -0.85698365980E+02  0.85698365980E+02  0.00000000000E+00 0.  1.
      99926    2    1    2    0    0  0.00000000000E+00  0.00000000000E+00  0.51765456403E+03  0.68905129599E+03  0.45478065135E+03 0.  0.
      99925    2    3    3    0    0 -0.44020941755E+02 -0.26837690442E+02  0.47814216119E+03  0.54810150699E+03  0.26293959518E+03 0.  0.
         25    1    4    4    0    0 -0.30099986245E+01 -0.11826368278E+02  0.15991720369E+03  0.20339602556E+03  0.12509000000E+03 0.  0.
         25    1    4    4    0    0 -0.41010943130E+02 -0.15011322165E+02  0.31822495750E+03  0.34470548143E+03  0.12509000000E+03 0.  0.
         25    1    3    3    0    0  0.44020941755E+02  0.26837690442E+02  0.39512402838E+02  0.14094978900E+03  0.12509000000E+03 0.  0.
<mgrwt>
<rscale>  2 0.45478065E+03</rscale>
<asrwt>0</asrwt>
<pdfrwt beam="1">  1       21 0.88728370E-01 0.45478065E+03</pdfrwt>
<pdfrwt beam="2">  1       21 0.12602701E-01 0.45478065E+03</pdfrwt>
<totfact> 0.53594050E+04</totfact>
</mgrwt>
</event>
<event>
 7    0  0.4712189E-002  0.4561853E+03  0.7546771E-02  0.1025893E+00
         21   -1    0    0  502  501  0.00000000000E+00  0.00000000000E+00  0.30756161604E+03  0.30756161604E+03  0.00000000000E+00 0. -1.
         21   -1    0    0  501  502 -0.00000000000E+00 -0.00000000000E+00 -0.16915718929E+03  0.16915718929E+03  0.00000000000E+00 0. -1.
      99926    2    1    2    0    0  0.00000000000E+00  0.00000000000E+00  0.13840442675E+03  0.47671880533E+03  0.45618530666E+03 0.  0.
      99925    2    3    3    0    0  0.58434745496E+02  0.54972077087E+02  0.17203565309E+03  0.32435372985E+03  0.26300670599E+03 0.  0.
         25    1    3    3    0    0 -0.58434745496E+02 -0.54972077087E+02 -0.33631226345E+02  0.15236507548E+03  0.12509000000E+03 0.  0.
         25    1    4    4    0    0  0.23005951007E+02 -0.13029754006E+02  0.88812270984E+02  0.15567329844E+03  0.12509000000E+03 0.  0.
         25    1    4    4    0    0  0.35428794489E+02  0.68001831093E+02  0.83223382110E+02  0.16868043141E+03  0.12509000000E+03 0.  0.
<mgrwt>
<rscale>  2 0.45618531E+03</rscale>
<asrwt>0</asrwt>
<pdfrwt beam="1">  1       21 0.45229649E-01 0.45618531E+03</pdfrwt>
<pdfrwt beam="2">  1       21 0.24876057E-01 0.45618531E+03</pdfrwt>
<totfact> 0.66313729E+04</totfact>
</mgrwt>
</event>
<event>
 7    0  0.4712189E-002  0.4604656E+03  0.7546771E-02  0.1024646E+00
         21   -1    0    0  502  501  0.00000000000E+00  0.00000000000E+00  0.48046964973E+02  0.48046964973E+02  0.00000000000E+00 0. -1.
         21   -1    0    0  501  502 -0.00000000000E+00 -0.00000000000E+00 -0.11032360651E+04  0.11032360651E+04  0.00000000000E+00 0. -1.
      99926    2    1    2    0    0  0.71054273576E-14  0.71054273576E-14 -0.10551891001E+04  0.11512830300E+04  0.46046561034E+03 0.  0.
      99925    2    3    3    0    0 -0.39310960324E+02  0.37615895878E+02 -0.92316809008E+03  0.96144793737E+03  0.26302567651E+03 0.  0.
         25    1    4    4    0    0 -0.20430387716E+02 -0.16323458319E+02 -0.37028527951E+03  0.39171743943E+03  0.12509000000E+03 0.  0.
         25    1    3    3    0    0  0.39310960324E+02 -0.37615895878E+02 -0.13202101001E+03  0.18983509267E+03  0.12509000000E+03 0.  0.
         25    1    4    4    0    0 -0.18880572608E+02  0.53939354197E+02 -0.55288281057E+03  0.56973049794E+03  0.12509000000E+03 0.  0.
<mgrwt>
<rscale>  2 0.46046561E+03</rscale>
<asrwt>0</asrwt>
<pdfrwt beam="1">  1       21 0.70657304E-02 0.46046561E+03</pdfrwt>
<pdfrwt beam="2">  1       21 0.16224059E+00 0.46046561E+03</pdfrwt>
<totfact> 0.32339866E+04</totfact>
</mgrwt>
</event>
<event>
 7    0  0.4712189E-002  0.4667098E+03  0.7546771E-02  0.1022853E+00
         21   -1    0    0  502  501  0.00000000000E+00  0.00000000000E+00  0.22712168340E+03  0.22712168340E+03  0.00000000000E+00 0.  1.
         21   -1    0    0  501  502 -0.00000000000E+00 -0.00000000000E+00 -0.23975922083E+03  0.23975922083E+03  0.00000000000E+00 0.  1.
      99926    2    1    2    0    0 -0.35527136788E-14 -0.14210854715E-13 -0.12637537436E+02  0.46688090423E+03  0.46670983639E+03 0.  0.
      99925    2    3    3    0    0 -0.64083306290E+01  0.11567885981E+03  0.35846738147E+02  0.28962149436E+03  0.26300752090E+03 0.  0.
         25    1    4    4    0    0 -0.34325702080E+02  0.35739221692E+02  0.33025234819E+02  0.13854140185E+03  0.12509000000E+03 0.  0.
         25    1    4    4    0    0  0.27917371451E+02  0.79939638122E+02  0.28215033277E+01  0.15108009251E+03  0.12509000000E+03 0.  0.
         25    1    3    3    0    0  0.64083306290E+01 -0.11567885981E+03 -0.48484275583E+02  0.17725940987E+03  0.12509000000E+03 0.  0.
<mgrwt>
<rscale>  2 0.46670984E+03</rscale>
<asrwt>0</asrwt>
<pdfrwt beam="1">  1       21 0.33400248E-01 0.46670984E+03</pdfrwt>
<pdfrwt beam="2">  1       21 0.35258709E-01 0.46670984E+03</pdfrwt>
<totfact> 0.61713323E+04</totfact>
</mgrwt>
</event>
<event>
 7    0  0.4712189E-002  0.4560261E+03  0.7546771E-02  0.1025940E+00
         21   -1    0    0  502  501  0.00000000000E+00  0.00000000000E+00  0.74185537577E+03  0.74185537577E+03  0.00000000000E+00 0. -1.
         21   -1    0    0  501  502 -0.00000000000E+00 -0.00000000000E+00 -0.70080994285E+02  0.70080994285E+02  0.00000000000E+00 0. -1.
      99926    2    1    2    0    0 -0.17763568394E-14  0.00000000000E+00  0.67177438148E+03  0.81193637005E+03  0.45602614991E+03 0.  0.
      99925    2    3    3    0    0 -0.28794636158E+01 -0.71599607646E+02  0.26450664412E+03  0.37990707345E+03  0.26311751091E+03 0.  0.
         25    1    4    4    0    0  0.24988650909E+02 -0.22574838587E+02  0.16804074808E+03  0.21217741899E+03  0.12509000000E+03 0.  0.
         25    1    4    4    0    0 -0.27868114525E+02 -0.49024769058E+02  0.96465896034E+02  0.16772965446E+03  0.12509000000E+03 0.  0.
         25    1    3    3    0    0  0.28794636158E+01  0.71599607646E+02  0.40726773737E+03  0.43202929660E+03  0.12509000000E+03 0.  0.
<mgrwt>
<rscale>  2 0.45602615E+03</rscale>
<asrwt>0</asrwt>
<pdfrwt beam="1">  1       21 0.10909637E+00 0.45602615E+03</pdfrwt>
<pdfrwt beam="2">  1       21 0.10306029E-01 0.45602615E+03</pdfrwt>
<totfact> 0.46814770E+04</totfact>
</mgrwt>
</event>
<event>
 7    0  0.4712189E-002  0.4567718E+03  0.7546771E-02  0.1025722E+00
         21   -1    0    0  502  501  0.00000000000E+00  0.00000000000E+00  0.19296348071E+03  0.19296348071E+03  0.00000000000E+00 0. -1.
         21   -1    0    0  501  502 -0.00000000000E+00 -0.00000000000E+00 -0.27031085840E+03  0.27031085840E+03  0.00000000000E+00 0. -1.
      99926    2    1    2    0    0  0.00000000000E+00  0.14210854715E-13 -0.77347377694E+02  0.46327433912E+03  0.45677182099E+03 0.  0.
      99925    2    3    3    0    0  0.20355712304E+02 -0.11313303023E+03 -0.49411400496E+02  0.29110766268E+03  0.26284738389E+03 0.  0.
         25    1    4    4    0    0  0.42840424937E+00 -0.14382871522E+02 -0.28924550647E+02  0.12919438166E+03  0.12509000000E+03 0.  0.
         25    1    3    3    0    0 -0.20355712304E+02  0.11313303023E+03 -0.27935977198E+02  0.17216667644E+03  0.12509000000E+03 0.  0.
         25    1    4    4    0    0  0.19927308055E+02 -0.98750158712E+02 -0.20486849849E+02  0.16191328101E+03  0.12509000000E+03 0.  0.
<mgrwt>
<rscale>  2 0.45677182E+03</rscale>
<asrwt>0</asrwt>
<pdfrwt beam="1">  1       21 0.28376983E-01 0.45677182E+03</pdfrwt>
<pdfrwt beam="2">  1       21 0.39751597E-01 0.45677182E+03</pdfrwt>
<totfact> 0.66989854E+04</totfact>
</mgrwt>
</event>
<event>
 7    0  0.4712189E-002  0.4479065E+03  0.7546771E-02  0.1028348E+00
         21   -1    0    0  502  501  0.00000000000E+00  0.00000000000E+00  0.40651398990E+03  0.40651398990E+03  0.00000000000E+00 0. -1.
         21   -1    0    0  501  502 -0.00000000000E+00 -0.00000000000E+00 -0.12337841987E+03  0.12337841987E+03  0.00000000000E+00 0. -1.
      99926    2    1    2    0    0  0.35527136788E-14  0.00000000000E+00  0.28313557003E+03  0.52989240977E+03  0.44790648010E+03 0.  0.
      99925    2    3    3    0    0  0.29787049921E+02 -0.89557879281E+02  0.23712791235E+03  0.36657647439E+03  0.26313643358E+03 0.  0.
         25    1    3    3    0    0 -0.29787049921E+02  0.89557879281E+02  0.46007657680E+02  0.16331593538E+03  0.12509000000E+03 0.  0.
         25    1    4    4    0    0 -0.85938445392E+00 -0.10674261736E+02  0.81311473690E+02  0.14957854879E+03  0.12509000000E+03 0.  0.
         25    1    4    4    0    0  0.30646434375E+02 -0.78883617545E+02  0.15581643866E+03  0.21699792560E+03  0.12509000000E+03 0.  0.
<mgrwt>
<rscale>  2 0.44790648E+03</rscale>
<asrwt>0</asrwt>
<pdfrwt beam="1">  1       21 0.59781469E-01 0.44790648E+03</pdfrwt>
<pdfrwt beam="2">  1       21 0.18143885E-01 0.44790648E+03</pdfrwt>
<totfact> 0.66892848E+04</totfact>
</mgrwt>
</event>
<event>
 7    0  0.4712189E-002  0.4592710E+03  0.7546771E-02  0.1024993E+00
         21   -1    0    0  502  501  0.00000000000E+00  0.00000000000E+00  0.32623519822E+03  0.32623519822E+03  0.00000000000E+00 0. -1.
         21   -1    0    0  501  502 -0.00000000000E+00 -0.00000000000E+00 -0.16163941609E+03  0.16163941609E+03  0.00000000000E+00 0. -1.
      99926    2    1    2    0    0 -0.71054273576E-14  0.00000000000E+00  0.16459578214E+03  0.48787461431E+03  0.45927101780E+03 0.  0.
      99925    2    3    3    0    0 -0.50230660107E+02  0.10159188449E+03  0.13467540708E+03  0.31644892443E+03  0.26297989712E+03 0.  0.
         25    1    3    3    0    0  0.50230660107E+02 -0.10159188449E+03  0.29920375059E+02  0.17142568989E+03  0.12509000000E+03 0.  0.
         25    1    4    4    0    0  0.60215574126E+01  0.20195874812E+02  0.61409211035E+02  0.14093520431E+03  0.12509000000E+03 0.  0.
         25    1    4    4    0    0 -0.56252217520E+02  0.81396009678E+02  0.73266196041E+02  0.17551372012E+03  0.12509000000E+03 0.  0.
<mgrwt>
<rscale>  2 0.45927102E+03</rscale>
<asrwt>0</asrwt>
<pdfrwt beam="1">  1       21 0.47975764E-01 0.45927102E+03</pdfrwt>
<pdfrwt beam="2">  1       21 0.23770502E-01 0.45927102E+03</pdfrwt>
<totfact> 0.63935806E+04</totfact>
</mgrwt>
</event>
<event>
 7    0  0.4712189E-002  0.4519758E+03  0.7546771E-02  0.1027134E+00
         21   -1    0    0  502  501  0.00000000000E+00  0.00000000000E+00  0.10504466957E+03  0.10504466957E+03  0.00000000000E+00 0. -1.
         21   -1    0    0  501  502 -0.00000000000E+00 -0.00000000000E+00 -0.48617921841E+03  0.48617921841E+03  0.00000000000E+00 0. -1.
      99926    2    1    2    0    0  0.35527136788E-14  0.00000000000E+00 -0.38113454884E+03  0.59122388798E+03  0.45197581948E+03 0.  0.
      99925    2    3    3    0    0 -0.14526019314E+02 -0.30309562191E+02 -0.37791554937E+03  0.46165712968E+03  0.26301609862E+03 0.  0.
         25    1    4    4    0    0  0.23807516303E+02 -0.19069293398E+02 -0.14217901391E+03  0.19181453511E+03  0.12509000000E+03 0.  0.
         25    1    3    3    0    0  0.14526019314E+02  0.30309562191E+02 -0.32189994735E+01  0.12956675829E+03  0.12509000000E+03 0.  0.
         25    1    4    4    0    0 -0.38333535617E+02 -0.11240268792E+02 -0.23573653545E+03  0.26984259457E+03  0.12509000000E+03 0.  0.
<mgrwt>
<rscale>  2 0.45197582E+03</rscale>
<asrwt>0</asrwt>
<pdfrwt beam="1">  1       21 0.15447745E-01 0.45197582E+03</pdfrwt>
<pdfrwt beam="2">  1       21 0.71496945E-01 0.45197582E+03</pdfrwt>
<totfact> 0.60658560E+04</totfact>
</mgrwt>
</event>
<event>
 7    0  0.4712189E-002  0.4522434E+03  0.7546771E-02  0.1027055E+00
         21   -1    0    0  502  501  0.00000000000E+00  0.00000000000E+00  0.30849985560E+03  0.30849985560E+03  0.00000000000E+00 0.  1.
         21   -1    0    0  501  502 -0.00000000000E+00 -0.00000000000E+00 -0.16574084516E+03  0.16574084516E+03  0.00000000000E+00 0.  1.
      99926    2    1    2    0    0 -0.17763568394E-14  0.00000000000E+00  0.14275901044E+03  0.47424070076E+03  0.45224341586E+03 0.  0.
      99925    2    3    3    0    0  0.13626837525E+02 -0.96086575543E+02  0.34874933742E+02  0.28265572534E+03  0.26317233396E+03 0.  0.
         25    1    3    3    0    0 -0.13626837525E+02  0.96086575543E+02  0.10788407670E+03  0.19158497542E+03  0.12509000000E+03 0.  0.
         25    1    4    4    0    0  0.34329921395E+02 -0.30347134753E+02 -0.82299554260E+01  0.13347184106E+03  0.12509000000E+03 0.  0.
         25    1    4    4    0    0 -0.20703083870E+02 -0.65739440790E+02  0.43104889168E+02  0.14918388427E+03  0.12509000000E+03 0.  0.
<mgrwt>
<rscale>  2 0.45224342E+03</rscale>
<asrwt>0</asrwt>
<pdfrwt beam="1">  1       21 0.45367626E-01 0.45224342E+03</pdfrwt>
<pdfrwt beam="2">  1       21 0.24373654E-01 0.45224342E+03</pdfrwt>
<totfact> 0.68610513E+04</totfact>
</mgrwt>
</event>
<event>
 7    0  0.4712189E-002  0.4538675E+03  0.7546771E-02  0.1026575E+00
         21   -1    0    0  502  501  0.00000000000E+00  0.00000000000E+00  0.26996933848E+04  0.26996933848E+04  0.00000000000E+00 0.  1.
         21   -1    0    0  501  502 -0.00000000000E+00 -0.00000000000E+00 -0.19075839167E+02  0.19075839167E+02  0.00000000000E+00 0.  1.
      99926    2    1    2    0    0  0.00000000000E+00  0.00000000000E+00  0.26806175456E+04  0.27187692239E+04  0.45386745557E+03 0.  0.
      99925    2    3    3    0    0  0.86922138000E+02  0.70323420247E+02  0.17347285405E+04  0.17581161338E+04  0.26303685901E+03 0.  0.
         25    1    4    4    0    0  0.77922406622E+02  0.48951786710E+02  0.10841155548E+04  0.10951813654E+04  0.12509000000E+03 0.  0.
         25    1    3    3    0    0 -0.86922138000E+02 -0.70323420247E+02  0.94588900512E+03  0.96065309015E+03  0.12509000000E+03 0.  0.
         25    1    4    4    0    0  0.89997313779E+01  0.21371633538E+02  0.65061298565E+03  0.66293476835E+03  0.12509000000E+03 0.  0.
<mgrwt>
<rscale>  2 0.45386746E+03</rscale>
<asrwt>0</asrwt>
<pdfrwt beam="1">  1       21 0.39701347E+00 0.45386746E+03</pdfrwt>
<pdfrwt beam="2">  1       21 0.28052723E-02 0.45386746E+03</pdfrwt>
<totfact> 0.51881505E+03</totfact>
</mgrwt>
</event>
<event>
 7    0  0.4712189E-002  0.4579190E+03  0.7546771E-02  0.1025386E+00
         21   -1    0    0  502  501  0.00000000000E+00  0.00000000000E+00  0.63863772045E+03  0.63863772045E+03  0.00000000000E+00 0.  1.
         21   -1    0    0  501  502 -0.00000000000E+00 -0.00000000000E+00 -0.82084806812E+02  0.82084806812E+02  0.00000000000E+00 0.  1.
      99926    2    1    2    0    0 -0.71054273576E-14  0.00000000000E+00  0.55655291364E+03  0.72072252726E+03  0.45791900553E+03 0.  0.
      99925    2    3    3    0    0  0.58534559248E+02 -0.30912894118E+02  0.19968121613E+03  0.33681261826E+03  0.26303659459E+03 0.  0.
         25    1    4    4    0    0 -0.43594058595E+00 -0.11038084765E+02  0.59726436101E+02  0.13905676765E+03  0.12509000000E+03 0.  0.
         25    1    3    3    0    0 -0.58534559248E+02  0.30912894118E+02  0.35687169751E+03  0.38390990901E+03  0.12509000000E+03 0.  0.
         25    1    4    4    0    0  0.58970499834E+02 -0.19874809353E+02  0.13995478003E+03  0.19775585061E+03  0.12509000000E+03 0.  0.
<mgrwt>
<rscale>  2 0.45791901E+03</rscale>
<asrwt>0</asrwt>
<pdfrwt beam="1">  1       21 0.93917309E-01 0.45791901E+03</pdfrwt>
<pdfrwt beam="2">  1       21 0.12071295E-01 0.45791901E+03</pdfrwt>
<totfact> 0.50620045E+04</totfact>
</mgrwt>
</event>
<event>
 7    0  0.4712189E-002  0.4580496E+03  0.7546771E-02  0.1025348E+00
         21   -1    0    0  502  501  0.00000000000E+00  0.00000000000E+00  0.20499841014E+02  0.20499841014E+02  0.00000000000E+00 0. -1.
         21   -1    0    0  501  502 -0.00000000000E+00 -0.00000000000E+00 -0.25586710248E+04  0.25586710248E+04  0.00000000000E+00 0. -1.
      99926    2    1    2    0    0  0.00000000000E+00 -0.35527136788E-14 -0.25381711837E+04  0.25791708658E+04  0.45804955720E+03 0.  0.
      99925    2    3    3    0    0  0.97374027651E+02  0.22059182548E+02 -0.12591306421E+04  0.12901555346E+04  0.26291257239E+03 0.  0.
         25    1    3    3    0    0 -0.97374027651E+02 -0.22059182548E+02 -0.12790405416E+04  0.12890153312E+04  0.12509000000E+03 0.  0.
         25    1    4    4    0    0  0.50628700806E+02 -0.20527799121E+02 -0.50572209101E+03  0.52381962289E+03  0.12509000000E+03 0.  0.
         25    1    4    4    0    0  0.46745326845E+02  0.42586981669E+02 -0.75340855110E+03  0.76633591170E+03  0.12509000000E+03 0.  0.
<mgrwt>
<rscale>  2 0.45804956E+03</rscale>
<asrwt>0</asrwt>
<pdfrwt beam="1">  1       21 0.30146829E-02 0.45804956E+03</pdfrwt>
<pdfrwt beam="2">  1       21 0.37627510E+00 0.45804956E+03</pdfrwt>
<totfact> 0.62068281E+03</totfact>
</mgrwt>
</event>
<event>
 7    0  0.4712189E-002  0.4547921E+03  0.7546771E-02  0.1026303E+00
         21   -1    0    0  502  501  0.00000000000E+00  0.00000000000E+00  0.73126024970E+03  0.73126024970E+03  0.00000000000E+00 0. -1.
         21   -1    0    0  501  502 -0.00000000000E+00 -0.00000000000E+00 -0.70712108130E+02  0.70712108130E+02  0.00000000000E+00 0. -1.
      99926    2    1    2    0    0  0.00000000000E+00  0.35527136788E-14  0.66054814157E+03  0.80197235783E+03  0.45479205731E+03 0.  0.
      99925    2    3    3    0    0  0.11139947148E+03 -0.17323805663E+02  0.40289456380E+03  0.49416912405E+03  0.26300026072E+03 0.  0.
         25    1    4    4    0    0  0.71575057443E+02  0.15953490460E+02  0.25716649513E+03  0.29522807628E+03  0.12509000000E+03 0.  0.
         25    1    3    3    0    0 -0.11139947148E+03  0.17323805663E+02  0.25765357777E+03  0.30780323378E+03  0.12509000000E+03 0.  0.
         25    1    4    4    0    0  0.39824414033E+02 -0.33277296123E+02  0.14572806868E+03  0.19894104778E+03  0.12509000000E+03 0.  0.
<mgrwt>
<rscale>  2 0.45479206E+03</rscale>
<asrwt>0</asrwt>
<pdfrwt beam="1">  1       21 0.10753827E+00 0.45479206E+03</pdfrwt>
<pdfrwt beam="2">  1       21 0.10398840E-01 0.45479206E+03</pdfrwt>
<totfact> 0.47747425E+04</totfact>
</mgrwt>
</event>
<event>
 7    0  0.4712189E-002  0.4439388E+03  0.7546771E-02  0.1029545E+00
         21   -1    0    0  502  501  0.00000000000E+00  0.00000000000E+00  0.48213161168E+03  0.48213161168E+03  0.00000000000E+00 0.  1.
         21   -1    0    0  501  502 -0.00000000000E+00 -0.00000000000E+00 -0.10219286915E+03  0.10219286915E+03  0.00000000000E+00 0.  1.
      99926    2    1    2    0    0  0.00000000000E+00  0.71054273576E-14  0.37993874253E+03  0.58432448083E+03  0.44393879175E+03 0.  0.
      99925    2    3    3    0    0 -0.79464818431E+02  0.56648147418E+02  0.20059138720E+03  0.34487375117E+03  0.26301583536E+03 0.  0.
         25    1    3    3    0    0  0.79464818431E+02 -0.56648147418E+02  0.17934735532E+03  0.23945072966E+03  0.12509000000E+03 0.  0.
         25    1    4    4    0    0 -0.73455769431E+02  0.35465069358E+02  0.13774907676E+03  0.20316455758E+03  0.12509000000E+03 0.  0.
         25    1    4    4    0    0 -0.60090490004E+01  0.21183078060E+02  0.62842310444E+02  0.14170919359E+03  0.12509000000E+03 0.  0.
<mgrwt>
<rscale>  2 0.44393879E+03</rscale>
<asrwt>0</asrwt>
<pdfrwt beam="1">  1       21 0.70901707E-01 0.44393879E+03</pdfrwt>
<pdfrwt beam="2">  1       21 0.15028363E-01 0.44393879E+03</pdfrwt>
<totfact> 0.65167242E+04</totfact>
</mgrwt>
</event>
<event>
 7    0  0.4712189E-002  0.4946109E+03  0.7546771E-02  0.1015195E+00
         21   -1    0    0  502  501  0.00000000000E+00  0.00000000000E+00  0.21524842523E+03  0.21524842523E+03  0.00000000000E+00 0. -1.
         21   -1    0    0  501  502 -0.00000000000E+00 -0.00000000000E+00 -0.28413677357E+03  0.28413677357E+03  0.00000000000E+00 0. -1.
      99926    2    1    2    0    0  0.71054273576E-14  0.00000000000E+00 -0.68888348341E+02  0.49938519880E+03  0.49461093017E+03 0.  0.
      99925    2    3    3    0    0  0.53515912648E+02 -0.10799310667E+03  0.43470014838E+02  0.29250752027E+03  0.26295350013E+03 0.  0.
         25    1    4    4    0    0  0.56151741820E+00 -0.42808648013E+02 -0.10103014210E+02  0.13259892399E+03  0.12509000000E+03 0.  0.
         25    1    4    4    0    0  0.52954395229E+02 -0.65184458662E+02  0.53573029047E+02  0.15990859629E+03  0.12509000000E+03 0.  0.
         25    1    3    3    0    0 -0.53515912648E+02  0.10799310667E+03 -0.11235836318E+03  0.20687767852E+03  0.12509000000E+03 0.  0.
<mgrwt>
<rscale>  2 0.49461093E+03</rscale>
<asrwt>0</asrwt>
<pdfrwt beam="1">  1       21 0.31654181E-01 0.49461093E+03</pdfrwt>
<pdfrwt beam="2">  1       21 0.41784819E-01 0.49461093E+03</pdfrwt>
<totfact> 0.48251695E+04</totfact>
</mgrwt>
</event>
<event>
 7    0  0.4712189E-002  0.4541074E+03  0.7546771E-02  0.1026504E+00
         21   -1    0    0  502  501  0.00000000000E+00  0.00000000000E+00  0.72594727154E+03  0.72594727154E+03  0.00000000000E+00 0.  1.
         21   -1    0    0  501  502 -0.00000000000E+00 -0.00000000000E+00 -0.71015338227E+02  0.71015338227E+02  0.00000000000E+00 0.  1.
      99926    2    1    2    0    0  0.00000000000E+00 -0.44408920985E-15  0.65493193331E+03  0.79696260977E+03  0.45410743673E+03 0.  0.
      99925    2    3    3    0    0 -0.69683515075E+02  0.27551754755E+01  0.56670107858E+03  0.62874972354E+03  0.26327308849E+03 0.  0.
         25    1    4    4    0    0 -0.56301286599E+01 -0.80353800777E+01  0.20246587658E+03  0.23819362913E+03  0.12509000000E+03 0.  0.
         25    1    4    4    0    0 -0.64053386415E+02  0.10790555553E+02  0.36423520201E+03  0.39055609441E+03  0.12509000000E+03 0.  0.
         25    1    3    3    0    0  0.69683515075E+02 -0.27551754755E+01  0.88230854730E+02  0.16821288622E+03  0.12509000000E+03 0.  0.
<mgrwt>
<rscale>  2 0.45410744E+03</rscale>
<asrwt>0</asrwt>
<pdfrwt beam="1">  1       21 0.10675695E+00 0.45410744E+03</pdfrwt>
<pdfrwt beam="2">  1       21 0.10443433E-01 0.45410744E+03</pdfrwt>
<totfact> 0.48249169E+04</totfact>
</mgrwt>
</event>
<event>
 7    0  0.4712189E-002  0.4293562E+03  0.7546771E-02  0.1034064E+00
         21   -1    0    0  502  501  0.00000000000E+00  0.00000000000E+00  0.35005889265E+02  0.35005889265E+02  0.00000000000E+00 0. -1.
         21   -1    0    0  501  502 -0.00000000000E+00 -0.00000000000E+00 -0.13165410160E+04  0.13165410160E+04  0.00000000000E+00 0. -1.
      99926    2    1    2    0    0  0.00000000000E+00  0.00000000000E+00 -0.12815351268E+04  0.13515469053E+04  0.42935621118E+03 0.  0.
      99925    2    3    3    0    0  0.56183871867E+02  0.20843847678E+02 -0.62824466124E+03  0.68369435129E+03  0.26297436789E+03 0.  0.
         25    1    3    3    0    0 -0.56183871867E+02 -0.20843847678E+02 -0.65329046553E+03  0.66785255401E+03  0.12509000000E+03 0.  0.
         25    1    4    4    0    0  0.35539543777E+02 -0.18300154207E+02 -0.24262017697E+03  0.27588043278E+03  0.12509000000E+03 0.  0.
         25    1    4    4    0    0  0.20644328090E+02  0.39144001884E+02 -0.38562448427E+03  0.40781391851E+03  0.12509000000E+03 0.  0.
<mgrwt>
<rscale>  2 0.42935621E+03</rscale>
<asrwt>0</asrwt>
<pdfrwt beam="1">  1       21 0.51479245E-02 0.42935621E+03</pdfrwt>
<pdfrwt beam="2">  1       21 0.19360899E+00 0.42935621E+03</pdfrwt>
<totfact> 0.33928207E+04</totfact>
</mgrwt>
</event>
<event>
 7    0  0.4712189E-002  0.4433318E+03  0.7546771E-02  0.1029729E+00
         21   -1    0    0  502  501  0.00000000000E+00  0.00000000000E+00  0.25710498599E+02  0.25710498599E+02  0.00000000000E+00 0.  1.
         21   -1    0    0  501  502 -0.00000000000E+00 -0.00000000000E+00 -0.19111168690E+04  0.19111168690E+04  0.00000000000E+00 0.  1.
      99926    2    1    2    0    0  0.35527136788E-14  0.00000000000E+00 -0.18854063704E+04  0.19368273676E+04  0.44333178358E+03 0.  0.
      99925    2    3    3    0    0 -0.30903732269E+02  0.93150812104E+02 -0.10812770387E+04  0.11171301036E+04  0.26303520564E+03 0.  0.
         25    1    4    4    0    0 -0.38809990159E+02  0.81481209892E+02 -0.55831989099E+03  0.57923571340E+03  0.12509000000E+03 0.  0.
         25    1    4    4    0    0  0.79062578897E+01  0.11669602212E+02 -0.52295714771E+03  0.53789439016E+03  0.12509000000E+03 0.  0.
         25    1    3    3    0    0  0.30903732269E+02 -0.93150812104E+02 -0.80412933170E+03  0.81969726403E+03  0.12509000000E+03 0.  0.
<mgrwt>
<rscale>  2 0.44333178E+03</rscale>
<asrwt>0</asrwt>
<pdfrwt beam="1">  1       21 0.37809554E-02 0.44333178E+03</pdfrwt>
<pdfrwt beam="2">  1       21 0.28104662E+00 0.44333178E+03</pdfrwt>
<totfact> 0.16185749E+04</totfact>
</mgrwt>
</event>
<event>
 7    0  0.4712189E-002  0.4481199E+03  0.7546771E-02  0.1028284E+00
         21   -1    0    0  502  501  0.00000000000E+00  0.00000000000E+00  0.22147879885E+03  0.22147879885E+03  0.00000000000E+00 0.  1.
         21   -1    0    0  501  502 -0.00000000000E+00 -0.00000000000E+00 -0.22667116579E+03  0.22667116579E+03  0.00000000000E+00 0.  1.
      99926    2    1    2    0    0 -0.88817841970E-15  0.00000000000E+00 -0.51923669467E+01  0.44814996464E+03  0.44811988366E+03 0.  0.
      99925    2    3    3    0    0  0.78164753838E+01  0.41610453627E+02  0.94529583297E+02  0.28266732930E+03  0.26300655847E+03 0.  0.
         25    1    4    4    0    0 -0.15536656010E+02  0.34277026537E+02  0.82814884836E+02  0.15466775837E+03  0.12509000000E+03 0.  0.
         25    1    4    4    0    0  0.23353131394E+02  0.73334270905E+01  0.11714698461E+02  0.12799957093E+03  0.12509000000E+03 0.  0.
         25    1    3    3    0    0 -0.78164753838E+01 -0.41610453627E+02 -0.99721950244E+02  0.16548263534E+03  0.12509000000E+03 0.  0.
<mgrwt>
<rscale>  2 0.44811988E+03</rscale>
<asrwt>0</asrwt>
<pdfrwt beam="1">  1       21 0.32570412E-01 0.44811988E+03</pdfrwt>
<pdfrwt beam="2">  1       21 0.33333995E-01 0.44811988E+03</pdfrwt>
<totfact> 0.72975085E+04</totfact>
</mgrwt>
</event>
<event>
 7    0  0.4712189E-002  0.4598430E+03  0.7546771E-02  0.1024827E+00
         21   -1    0    0  502  501  0.00000000000E+00  0.00000000000E+00  0.34851221339E+03  0.34851221339E+03  0.00000000000E+00 0. -1.
         21   -1    0    0  501  502 -0.00000000000E+00 -0.00000000000E+00 -0.15168447383E+03  0.15168447383E+03  0.00000000000E+00 0. -1.
      99926    2    1    2    0    0 -0.14210854715E-13  0.00000000000E+00  0.19682773956E+03  0.50019668722E+03  0.45984298064E+03 0.  0.
      99925    2    3    3    0    0  0.97211686710E+02  0.55487585791E+02  0.88683029109E+02  0.30051751778E+03  0.26441844608E+03 0.  0.
         25    1    4    4    0    0  0.87290778368E+01  0.44219645787E+02  0.31995362417E+02  0.13675812659E+03  0.12509000000E+03 0.  0.
         25    1    4    4    0    0  0.88482608873E+02  0.11267940003E+02  0.56687666692E+02  0.16375939118E+03  0.12509000000E+03 0.  0.
         25    1    3    3    0    0 -0.97211686710E+02 -0.55487585791E+02  0.10814471045E+03  0.19967916944E+03  0.12509000000E+03 0.  0.
<mgrwt>
<rscale>  2 0.45984298E+03</rscale>
<asrwt>0</asrwt>
<pdfrwt beam="1">  1       21 0.51251796E-01 0.45984298E+03</pdfrwt>
<pdfrwt beam="2">  1       21 0.22306540E-01 0.45984298E+03</pdfrwt>
<totfact> 0.62807257E+04</totfact>
</mgrwt>
</event>
<event>
 7    0  0.4712189E-002  0.4461619E+03  0.7546771E-02  0.1028873E+00
         21   -1    0    0  502  501  0.00000000000E+00  0.00000000000E+00  0.18286256668E+04  0.18286256668E+04  0.00000000000E+00 0.  1.
         21   -1    0    0  501  502 -0.00000000000E+00 -0.00000000000E+00 -0.27214486531E+02  0.27214486531E+02  0.00000000000E+00 0.  1.
      99926    2    1    2    0    0  0.00000000000E+00  0.00000000000E+00  0.18014111803E+04  0.18558401533E+04  0.44616189250E+03 0.  0.
      99925    2    3    3    0    0  0.89101395010E+02 -0.52179327042E+02  0.10746983339E+04  0.11112457604E+04  0.26311383548E+03 0.  0.
         25    1    4    4    0    0  0.35595457410E+02 -0.21779924735E+02  0.36760993237E+03  0.39054573635E+03  0.12509000000E+03 0.  0.
         25    1    4    4    0    0  0.53505937600E+02 -0.30399402307E+02  0.70708840154E+03  0.72070002408E+03  0.12509000000E+03 0.  0.
         25    1    3    3    0    0 -0.89101395010E+02  0.52179327042E+02  0.72671284636E+03  0.74459439289E+03  0.12509000000E+03 0.  0.
<mgrwt>
<rscale>  2 0.44616189E+03</rscale>
<asrwt>0</asrwt>
<pdfrwt beam="1">  1       21 0.26891545E+00 0.44616189E+03</pdfrwt>
<pdfrwt beam="2">  1       21 0.40021316E-02 0.44616189E+03</pdfrwt>
<totfact> 0.17370880E+04</totfact>
</mgrwt>
</event>
<event>
 7    0  0.4712189E-002  0.4361126E+03  0.7546771E-02  0.1031946E+00
         21   -1    0    0  502  501  0.00000000000E+00  0.00000000000E+00  0.23439088835E+03  0.23439088835E+03  0.00000000000E+00 0.  1.
         21   -1    0    0  501  502 -0.00000000000E+00 -0.00000000000E+00 -0.20286005826E+03  0.20286005826E+03  0.00000000000E+00 0.  1.
      99926    2    1    2    0    0 -0.35527136788E-14  0.35527136788E-14  0.31530830093E+02  0.43725094660E+03  0.43611259677E+03 0.  0.
      99925    2    3    3    0    0  0.16560442114E+02 -0.17737294516E+02 -0.71609296793E+02  0.27331725960E+03  0.26265104825E+03 0.  0.
         25    1    4    4    0    0 -0.60711190275E+01 -0.45843406048E+02 -0.41747844449E+02  0.13974572258E+03  0.12509000000E+03 0.  0.
         25    1    3    3    0    0 -0.16560442114E+02  0.17737294516E+02  0.10314012689E+03  0.16393368700E+03  0.12509000000E+03 0.  0.
         25    1    4    4    0    0  0.22631561142E+02  0.28106111533E+02 -0.29861452344E+02  0.13357153702E+03  0.12509000000E+03 0.  0.
<mgrwt>
<rscale>  2 0.43611260E+03</rscale>
<asrwt>0</asrwt>
<pdfrwt beam="1">  1       21 0.34469248E-01 0.43611260E+03</pdfrwt>
<pdfrwt beam="2">  1       21 0.29832362E-01 0.43611260E+03</pdfrwt>
<totfact> 0.81468291E+04</totfact>
</mgrwt>
</event>
<event>
 7    0  0.4712189E-002  0.4653442E+03  0.7546771E-02  0.1023243E+00
         21   -1    0    0  502  501  0.00000000000E+00  0.00000000000E+00  0.63200697114E+02  0.63200697114E+02  0.00000000000E+00 0.  1.
         21   -1    0    0  501  502 -0.00000000000E+00 -0.00000000000E+00 -0.85657785190E+03  0.85657785190E+03  0.00000000000E+00 0.  1.
      99926    2    1    2    0    0  0.14210854715E-13 -0.17763568394E-14 -0.79337715478E+03  0.91977854901E+03  0.46534424837E+03 0.  0.
      99925    2    3    3    0    0 -0.11580308256E+03 -0.15340339282E+02 -0.42726838678E+03  0.51563894683E+03  0.26396887924E+03 0.  0.
         25    1    4    4    0    0 -0.87251876738E+02  0.63713602146E+01 -0.28158842852E+03  0.32030147581E+03  0.12509000000E+03 0.  0.
         25    1    4    4    0    0 -0.28551205825E+02 -0.21711699497E+02 -0.14567995825E+03  0.19533747102E+03  0.12509000000E+03 0.  0.
         25    1    3    3    0    0  0.11580308256E+03  0.15340339282E+02 -0.36610876801E+03  0.40413960218E+03  0.12509000000E+03 0.  0.
<mgrwt>
<rscale>  2 0.46534425E+03</rscale>
<asrwt>0</asrwt>
<pdfrwt beam="1">  1       21 0.92942210E-02 0.46534425E+03</pdfrwt>
<pdfrwt beam="2">  1       21 0.12596732E+00 0.46534425E+03</pdfrwt>
<totfact> 0.39124322E+04</totfact>
</mgrwt>
</event>
<event>
 7    0  0.4712189E-002  0.4467018E+03  0.7546771E-02  0.1028710E+00
         21   -1    0    0  502  501  0.00000000000E+00  0.00000000000E+00  0.48115664079E+03  0.48115664079E+03  0.00000000000E+00 0. -1.
         21   -1    0    0  501  502 -0.00000000000E+00 -0.00000000000E+00 -0.10367853275E+03  0.10367853275E+03  0.00000000000E+00 0. -1.
      99926    2    1    2    0    0  0.71054273576E-14  0.00000000000E+00  0.37747810803E+03  0.58483517354E+03  0.44670175528E+03 0.  0.
      99925    2    3    3    0    0 -0.63398039294E+02 -0.25921066291E+02  0.34390101461E+03  0.43832188961E+03  0.26299611785E+03 0.  0.
         25    1    4    4    0    0 -0.72858155348E+02 -0.18230771726E+02  0.19271614248E+03  0.24171820683E+03  0.12509000000E+03 0.  0.
         25    1    3    3    0    0  0.63398039294E+02  0.25921066291E+02  0.33577093424E+02  0.14651328393E+03  0.12509000000E+03 0.  0.
         25    1    4    4    0    0  0.94601160533E+01 -0.76902945647E+01  0.15118487212E+03  0.19660368279E+03  0.12509000000E+03 0.  0.
<mgrwt>
<rscale>  2 0.44670176E+03</rscale>
<asrwt>0</asrwt>
<pdfrwt beam="1">  1       21 0.70758329E-01 0.44670176E+03</pdfrwt>
<pdfrwt beam="2">  1       21 0.15246843E-01 0.44670176E+03</pdfrwt>
<totfact> 0.63697984E+04</totfact>
</mgrwt>
</event>
<event>
 6    0  0.4712189E-002  0.5688326E+03  0.7546771E-02  0.9972265E-01
         21   -1    0    0  502  501  0.00000000000E+00  0.00000000000E+00  0.44665931751E+03  0.44665931751E+03  0.00000000000E+00 0.  1.
         21   -1    0    0  501  502 -0.00000000000E+00 -0.00000000000E+00 -0.18110587550E+03  0.18110587550E+03  0.00000000000E+00 0.  1.
      99925    2    1    2    0    0 -0.71255845322E+02 -0.57197236846E+02 -0.43852078091E+02  0.28174755854E+03  0.26288735724E+03 0.  0.
         25    1    3    3    0    0 -0.40012584892E+01 -0.50542264224E+01 -0.35658422589E+02  0.13023281643E+03  0.12509000000E+03 0.  0.
         25    1    3    3    0    0 -0.67254586832E+02 -0.52143010423E+02 -0.81936555016E+01  0.15151474211E+03  0.12509000000E+03 0.  0.
         25    1    1    2    0    0  0.71255845322E+02  0.57197236846E+02  0.30940552010E+03  0.34601763447E+03  0.12509000000E+03 0.  0.
<mgrwt>
<rscale>  2 0.56883258E+03</rscale>
<asrwt>0</asrwt>
<pdfrwt beam="1">  1       21 0.65685194E-01 0.56883258E+03</pdfrwt>
<pdfrwt beam="2">  1       21 0.26633217E-01 0.56883258E+03</pdfrwt>
<totfact> 0.25305942E+04</totfact>
</mgrwt>
</event>
<event>
 7    0  0.4712189E-002  0.3954475E+03  0.7546771E-02  0.1045368E+00
         21   -1    0    0  502  501  0.00000000000E+00  0.00000000000E+00  0.11855901811E+04  0.11855901811E+04  0.00000000000E+00 0.  1.
         21   -1    0    0  501  502 -0.00000000000E+00 -0.00000000000E+00 -0.32974862006E+02  0.32974862006E+02  0.00000000000E+00 0.  1.
      99926    2    1    2    0    0  0.88817841970E-15  0.17763568394E-14  0.11526153191E+04  0.12185650431E+04  0.39544745601E+03 0.  0.
      99925    2    3    3    0    0  0.56258119084E+01 -0.10512312292E+02  0.66935098272E+03  0.71923140176E+03  0.26290856346E+03 0.  0.
         25    1    4    4    0    0  0.28051797075E+02 -0.16319613985E+02  0.41797756223E+03  0.43749969571E+03  0.12509000000E+03 0.  0.
         25    1    4    4    0    0 -0.22425985166E+02  0.58073016927E+01  0.25137342049E+03  0.28173170605E+03  0.12509000000E+03 0.  0.
         25    1    3    3    0    0 -0.56258119084E+01  0.10512312292E+02  0.48326433634E+03  0.49933364131E+03  0.12509000000E+03 0.  0.
<mgrwt>
<rscale>  2 0.39544746E+03</rscale>
<asrwt>0</asrwt>
<pdfrwt beam="1">  1       21 0.17435147E+00 0.39544746E+03</pdfrwt>
<pdfrwt beam="2">  1       21 0.48492452E-02 0.39544746E+03</pdfrwt>
<totfact> 0.51704611E+04</totfact>
</mgrwt>
</event>
<event>
 7    0  0.4712189E-002  0.4214593E+03  0.7546771E-02  0.1036592E+00
         21   -1    0    0  502  501  0.00000000000E+00  0.00000000000E+00  0.57672414287E+02  0.57672414287E+02  0.00000000000E+00 0.  1.
         21   -1    0    0  501  502 -0.00000000000E+00 -0.00000000000E+00 -0.76998648061E+03  0.76998648061E+03  0.00000000000E+00 0.  1.
      99926    2    1    2    0    0  0.00000000000E+00 -0.14210854715E-13 -0.71231406632E+03  0.82765889490E+03  0.42145927113E+03 0.  0.
      99925    2    3    3    0    0 -0.89576817026E+01  0.73589894962E+02 -0.50871798445E+03  0.57746979570E+03  0.26302407598E+03 0.  0.
         25    1    4    4    0    0  0.65832419386E+01  0.66875777355E+02 -0.21363642761E+03  0.25652239663E+03  0.12509000000E+03 0.  0.
         25    1    3    3    0    0  0.89576817026E+01 -0.73589894962E+02 -0.20359608187E+03  0.25018909919E+03  0.12509000000E+03 0.  0.
         25    1    4    4    0    0 -0.15540923641E+02  0.67141176063E+01 -0.29508155684E+03  0.32094739907E+03  0.12509000000E+03 0.  0.
<mgrwt>
<rscale>  2 0.42145927E+03</rscale>
<asrwt>0</asrwt>
<pdfrwt beam="1">  1       21 0.84812386E-02 0.42145927E+03</pdfrwt>
<pdfrwt beam="2">  1       21 0.11323329E+00 0.42145927E+03</pdfrwt>
<totfact> 0.60988170E+04</totfact>
</mgrwt>
</event>
<event>
 7    0  0.4712189E-002  0.4537934E+03  0.7546771E-02  0.1026597E+00
         21   -1    0    0  502  501  0.00000000000E+00  0.00000000000E+00  0.53244386191E+03  0.53244386191E+03  0.00000000000E+00 0. -1.
         21   -1    0    0  501  502 -0.00000000000E+00 -0.00000000000E+00 -0.96690226171E+02  0.96690226171E+02  0.00000000000E+00 0. -1.
      99926    2    1    2    0    0 -0.17763568394E-14  0.00000000000E+00  0.43575363574E+03  0.62913408808E+03  0.45379342186E+03 0.  0.
      99925    2    3    3    0    0  0.11331140662E+02  0.10785409115E+03  0.23626517889E+03  0.36989664433E+03  0.26313759330E+03 0.  0.
         25    1    4    4    0    0 -0.35145896053E+02  0.52929323757E+02  0.11715834129E+03  0.18278493471E+03  0.12509000000E+03 0.  0.
         25    1    4    4    0    0  0.46477036715E+02  0.54924767389E+02  0.11910683760E+03  0.18711170962E+03  0.12509000000E+03 0.  0.
         25    1    3    3    0    0 -0.11331140662E+02 -0.10785409115E+03  0.19948845685E+03  0.25923744375E+03  0.12509000000E+03 0.  0.
<mgrwt>
<rscale>  2 0.45379342E+03</rscale>
<asrwt>0</asrwt>
<pdfrwt beam="1">  1       21 0.78300566E-01 0.45379342E+03</pdfrwt>
<pdfrwt beam="2">  1       21 0.14219151E-01 0.45379342E+03</pdfrwt>
<totfact> 0.57465289E+04</totfact>
</mgrwt>
</event>
<event>
 7    0  0.4712189E-002  0.4535764E+03  0.7546771E-02  0.1026661E+00
         21   -1    0    0  502  501  0.00000000000E+00  0.00000000000E+00  0.61209661230E+02  0.61209661230E+02  0.00000000000E+00 0.  1.
         21   -1    0    0  501  502 -0.00000000000E+00 -0.00000000000E+00 -0.84027403701E+03  0.84027403701E+03  0.00000000000E+00 0.  1.
      99926    2    1    2    0    0  0.00000000000E+00 -0.14210854715E-13 -0.77906437578E+03  0.90148369824E+03  0.45357640656E+03 0.  0.
      99925    2    3    3    0    0 -0.31510024682E+02 -0.80971284835E+02 -0.34576368954E+03  0.44219487471E+03  0.26159997629E+03 0.  0.
         25    1    3    3    0    0  0.31510024682E+02  0.80971284835E+02 -0.43330068624E+03  0.45928882353E+03  0.12509000000E+03 0.  0.
         25    1    4    4    0    0  0.98409853160E+01 -0.38299776385E+02 -0.12264003108E+03  0.17958787038E+03  0.12509000000E+03 0.  0.
         25    1    4    4    0    0 -0.41351009998E+02 -0.42671508450E+02 -0.22312365846E+03  0.26260700434E+03  0.12509000000E+03 0.  0.
<mgrwt>
<rscale>  2 0.45357641E+03</rscale>
<asrwt>0</asrwt>
<pdfrwt beam="1">  1       21 0.90014204E-02 0.45357641E+03</pdfrwt>
<pdfrwt beam="2">  1       21 0.12356972E+00 0.45357641E+03</pdfrwt>
<totfact> 0.43654129E+04</totfact>
</mgrwt>
</event>
<event>
 7    0  0.4712189E-002  0.4649814E+03  0.7546771E-02  0.1023346E+00
         21   -1    0    0  502  501  0.00000000000E+00  0.00000000000E+00  0.24421217967E+03  0.24421217967E+03  0.00000000000E+00 0. -1.
         21   -1    0    0  501  502 -0.00000000000E+00 -0.00000000000E+00 -0.22133179873E+03  0.22133179873E+03  0.00000000000E+00 0. -1.
      99926    2    1    2    0    0  0.00000000000E+00  0.00000000000E+00  0.22880380945E+02  0.46554397840E+03  0.46498138026E+03 0.  0.
      99925    2    3    3    0    0  0.10729509827E+03 -0.54409994475E+02 -0.76415854782E+01  0.28932881405E+03  0.26302106988E+03 0.  0.
         25    1    3    3    0    0 -0.10729509827E+03  0.54409994475E+02  0.30521966423E+02  0.17621516435E+03  0.12509000000E+03 0.  0.
         25    1    4    4    0    0  0.33343436978E+02  0.36191759134E+01  0.18052633576E+02  0.13076042560E+03  0.12509000000E+03 0.  0.
         25    1    4    4    0    0  0.73951661289E+02 -0.58029170388E+02 -0.25694219054E+02  0.15856838845E+03  0.12509000000E+03 0.  0.
<mgrwt>
<rscale>  2 0.46498138E+03</rscale>
<asrwt>0</asrwt>
<pdfrwt beam="1">  1       21 0.35913556E-01 0.46498138E+03</pdfrwt>
<pdfrwt beam="2">  1       21 0.32548794E-01 0.46498138E+03</pdfrwt>
<totfact> 0.62640829E+04</totfact>
</mgrwt>
</event>
<event>
 7    0  0.4712189E-002  0.4578467E+03  0.7546771E-02  0.1025408E+00
         21   -1    0    0  502  501  0.00000000000E+00  0.00000000000E+00  0.35726093611E+03  0.35726093611E+03  0.00000000000E+00 0.  1.
         21   -1    0    0  501  502 -0.00000000000E+00 -0.00000000000E+00 -0.14668803862E+03  0.14668803862E+03  0.00000000000E+00 0.  1.
      99926    2    1    2    0    0  0.00000000000E+00  0.00000000000E+00  0.21057289749E+03  0.50394897473E+03  0.45784672541E+03 0.  0.
      99925    2    3    3    0    0  0.12936013794E+02 -0.40851457852E+02  0.25054253037E+03  0.36581403449E+03  0.26308205230E+03 0.  0.
         25    1    4    4    0    0 -0.30573057248E+02 -0.12345277385E+02  0.10172110669E+03  0.16456551689E+03  0.12509000000E+03 0.  0.
         25    1    4    4    0    0  0.43509071042E+02 -0.28506180467E+02  0.14882142369E+03  0.20124851760E+03  0.12509000000E+03 0.  0.
         25    1    3    3    0    0 -0.12936013794E+02  0.40851457852E+02 -0.39969632886E+02  0.13813494024E+03  0.12509000000E+03 0.  0.
<mgrwt>
<rscale>  2 0.45784673E+03</rscale>
<asrwt>0</asrwt>
<pdfrwt beam="1">  1       21 0.52538373E-01 0.45784673E+03</pdfrwt>
<pdfrwt beam="2">  1       21 0.21571770E-01 0.45784673E+03</pdfrwt>
<totfact> 0.63546012E+04</totfact>
</mgrwt>
</event>
<event>
 7    0  0.4712189E-002  0.4401248E+03  0.7546771E-02  0.1030709E+00
         21   -1    0    0  502  501  0.00000000000E+00  0.00000000000E+00  0.39156205069E+03  0.39156205069E+03  0.00000000000E+00 0. -1.
         21   -1    0    0  501  502 -0.00000000000E+00 -0.00000000000E+00 -0.12367763429E+03  0.12367763429E+03  0.00000000000E+00 0. -1.
      99926    2    1    2    0    0  0.00000000000E+00  0.00000000000E+00  0.26788441641E+03  0.51523968498E+03  0.44012483732E+03 0.  0.
      99925    2    3    3    0    0  0.55664670971E+02 -0.67913777636E+02  0.11847947738E+03  0.30151046215E+03  0.26298352693E+03 0.  0.
         25    1    4    4    0    0  0.65701337758E+02 -0.23008819754E+02  0.49789177555E+02  0.15156695508E+03  0.12509000000E+03 0.  0.
         25    1    4    4    0    0 -0.10036666787E+02 -0.44904957882E+02  0.68690299828E+02  0.14994350707E+03  0.12509000000E+03 0.  0.
         25    1    3    3    0    0 -0.55664670971E+02  0.67913777636E+02  0.14940493902E+03  0.21372922283E+03  0.12509000000E+03 0.  0.
<mgrwt>
<rscale>  2 0.44012484E+03</rscale>
<asrwt>0</asrwt>
<pdfrwt beam="1">  1       21 0.57582654E-01 0.44012484E+03</pdfrwt>
<pdfrwt beam="2">  1       21 0.18187887E-01 0.44012484E+03</pdfrwt>
<totfact> 0.72380058E+04</totfact>
</mgrwt>
</event>
<event>
 7    0  0.4712189E-002  0.4579677E+03  0.7546771E-02  0.1025372E+00
         21   -1    0    0  502  501  0.00000000000E+00  0.00000000000E+00  0.17943255351E+03  0.17943255351E+03  0.00000000000E+00 0. -1.
         21   -1    0    0  501  502 -0.00000000000E+00 -0.00000000000E+00 -0.29221897377E+03  0.29221897377E+03  0.00000000000E+00 0. -1.
      99926    2    1    2    0    0  0.14210854715E-13  0.00000000000E+00 -0.11278642026E+03  0.47165152728E+03  0.45796766981E+03 0.  0.
      99925    2    3    3    0    0 -0.76334909877E+02 -0.72268919222E+02 -0.12109165701E+03  0.30804743134E+03  0.26302132120E+03 0.  0.
         25    1    3    3    0    0  0.76334909877E+02  0.72268919222E+02  0.83052367508E+01  0.16360409594E+03  0.12509000000E+03 0.  0.
         25    1    4    4    0    0 -0.67832832380E+00 -0.45268033213E+02 -0.73321029578E+02  0.15189844120E+03  0.12509000000E+03 0.  0.
         25    1    4    4    0    0 -0.75656581553E+02 -0.27000886009E+02 -0.47770627433E+02  0.15614899014E+03  0.12509000000E+03 0.  0.
<mgrwt>
<rscale>  2 0.45796767E+03</rscale>
<asrwt>0</asrwt>
<pdfrwt beam="1">  1       21 0.26387141E-01 0.45796767E+03</pdfrwt>
<pdfrwt beam="2">  1       21 0.42973378E-01 0.45796767E+03</pdfrwt>
<totfact> 0.65751496E+04</totfact>
</mgrwt>
</event>
<event>
 7    0  0.4712189E-002  0.4557236E+03  0.7546771E-02  0.1026029E+00
         21   -1    0    0  502  501  0.00000000000E+00  0.00000000000E+00  0.47272534588E+02  0.47272534588E+02  0.00000000000E+00 0. -1.
         21   -1    0    0  501  502 -0.00000000000E+00 -0.00000000000E+00 -0.10983333202E+04  0.10983333202E+04  0.00000000000E+00 0. -1.
      99926    2    1    2    0    0  0.14210854715E-13  0.00000000000E+00 -0.10510607856E+04  0.11456058548E+04  0.45572359987E+03 0.  0.
      99925    2    3    3    0    0  0.89059884488E+02 -0.12950260300E+02 -0.48540980912E+03  0.55933978245E+03  0.26294284013E+03 0.  0.
         25    1    4    4    0    0  0.35894686751E+02 -0.28365409009E+02 -0.17331267854E+03  0.21858137525E+03  0.12509000000E+03 0.  0.
         25    1    4    4    0    0  0.53165197736E+02  0.15415148709E+02 -0.31209713058E+03  0.34075840720E+03  0.12509000000E+03 0.  0.
         25    1    3    3    0    0 -0.89059884488E+02  0.12950260300E+02 -0.56565097651E+03  0.58626607236E+03  0.12509000000E+03 0.  0.
<mgrwt>
<rscale>  2 0.45572360E+03</rscale>
<asrwt>0</asrwt>
<pdfrwt beam="1">  1       21 0.69518427E-02 0.45572360E+03</pdfrwt>
<pdfrwt beam="2">  1       21 0.16151962E+00 0.45572360E+03</pdfrwt>
<totfact> 0.33738733E+04</totfact>
</mgrwt>
</event>
<event>
 7    0  0.4712189E-002  0.4548733E+03  0.7546771E-02  0.1026279E+00
         21   -1    0    0  502  501  0.00000000000E+00  0.00000000000E+00  0.21087668352E+03  0.21087668352E+03  0.00000000000E+00 0.  1.
         21   -1    0    0  501  502 -0.00000000000E+00 -0.00000000000E+00 -0.24529706404E+03  0.24529706404E+03  0.00000000000E+00 0.  1.
      99926    2    1    2    0    0  0.00000000000E+00  0.00000000000E+00 -0.34420380522E+02  0.45617374756E+03  0.45487330694E+03 0.  0.
      99925    2    3    3    0    0  0.22270317735E+02 -0.10999438509E+03 -0.34999559258E+02  0.28811847287E+03  0.26304477463E+03 0.  0.
         25    1    4    4    0    0  0.26478412126E+02 -0.23108753830E+02 -0.39138236616E+02  0.13569978068E+03  0.12509000000E+03 0.  0.
         25    1    3    3    0    0 -0.22270317735E+02  0.10999438509E+03  0.57917873579E+00  0.16805527469E+03  0.12509000000E+03 0.  0.
         25    1    4    4    0    0 -0.42080943910E+01 -0.86885631256E+02  0.41386773585E+01  0.15241869219E+03  0.12509000000E+03 0.  0.
<mgrwt>
<rscale>  2 0.45487331E+03</rscale>
<asrwt>0</asrwt>
<pdfrwt beam="1">  1       21 0.31011277E-01 0.45487331E+03</pdfrwt>
<pdfrwt beam="2">  1       21 0.36073098E-01 0.45487331E+03</pdfrwt>
<totfact> 0.68529172E+04</totfact>
</mgrwt>
</event>
<event>
 7    0  0.4712189E-002  0.4523669E+03  0.7546771E-02  0.1027019E+00
         21   -1    0    0  502  501  0.00000000000E+00  0.00000000000E+00  0.60308632694E+03  0.60308632694E+03  0.00000000000E+00 0. -1.
         21   -1    0    0  501  502 -0.00000000000E+00 -0.00000000000E+00 -0.84828559216E+02  0.84828559216E+02  0.00000000000E+00 0. -1.
      99926    2    1    2    0    0  0.00000000000E+00 -0.44408920985E-15  0.51825776773E+03  0.68791488616E+03  0.45236686084E+03 0.  0.
      99925    2    3    3    0    0  0.55987918586E+02 -0.29292039529E+01  0.47200619917E+03  0.54324304039E+03  0.26302076271E+03 0.  0.
         25    1    3    3    0    0 -0.55987918586E+02  0.29292039529E+01  0.46251568554E+02  0.14467184577E+03  0.12509000000E+03 0.  0.
         25    1    4    4    0    0  0.18177169812E+02 -0.35962826902E+01  0.31200151769E+03  0.33665382501E+03  0.12509000000E+03 0.  0.
         25    1    4    4    0    0  0.37810748774E+02  0.66707873729E+00  0.16000468148E+03  0.20658921538E+03  0.12509000000E+03 0.  0.
<mgrwt>
<rscale>  2 0.45236686E+03</rscale>
<asrwt>0</asrwt>
<pdfrwt beam="1">  1       21 0.88689163E-01 0.45236686E+03</pdfrwt>
<pdfrwt beam="2">  1       21 0.12474788E-01 0.45236686E+03</pdfrwt>
<totfact> 0.54689038E+04</totfact>
</mgrwt>
</event>
<event>
 7    0  0.4712189E-002  0.4546922E+03  0.7546771E-02  0.1026332E+00
         21   -1    0    0  502  501  0.00000000000E+00  0.00000000000E+00  0.11150132947E+04  0.11150132947E+04  0.00000000000E+00 0.  1.
         21   -1    0    0  501  502 -0.00000000000E+00 -0.00000000000E+00 -0.46354830190E+02  0.46354830190E+02  0.00000000000E+00 0.  1.
      99926    2    1    2    0    0  0.00000000000E+00  0.00000000000E+00  0.10686584645E+04  0.11613681249E+04  0.45469221210E+03 0.  0.
      99925    2    3    3    0    0  0.41728619591E+02  0.10246220868E+03  0.61293142555E+03  0.67600802761E+03  0.26279676379E+03 0.  0.
         25    1    3    3    0    0 -0.41728619591E+02 -0.10246220868E+03  0.45572703897E+03  0.48536009730E+03  0.12509000000E+03 0.  0.
         25    1    4    4    0    0  0.61215712932E+02  0.50796844655E+02  0.30753957177E+03  0.34140266437E+03  0.12509000000E+03 0.  0.
         25    1    4    4    0    0 -0.19487093341E+02  0.51665364025E+02  0.30539185379E+03  0.33460536324E+03  0.12509000000E+03 0.  0.
<mgrwt>
<rscale>  2 0.45469221E+03</rscale>
<asrwt>0</asrwt>
<pdfrwt beam="1">  1       21 0.16397253E+00 0.45469221E+03</pdfrwt>
<pdfrwt beam="2">  1       21 0.68168875E-02 0.45469221E+03</pdfrwt>
<totfact> 0.33485315E+04</totfact>
</mgrwt>
</event>
<event>
 7    0  0.4712189E-002  0.4614365E+03  0.7546771E-02  0.1024365E+00
         21   -1    0    0  502  501  0.00000000000E+00  0.00000000000E+00  0.78356895534E+03  0.78356895534E+03  0.00000000000E+00 0.  1.
         21   -1    0    0  501  502 -0.00000000000E+00 -0.00000000000E+00 -0.67933909485E+02  0.67933909485E+02  0.00000000000E+00 0.  1.
      99926    2    1    2    0    0  0.00000000000E+00  0.00000000000E+00  0.71563504586E+03  0.85150286483E+03  0.46143646361E+03 0.  0.
      99925    2    3    3    0    0  0.99034242436E+02 -0.68108415821E+02  0.44044829798E+03  0.52620024912E+03  0.26162083536E+03 0.  0.
         25    1    4    4    0    0  0.67678916241E+02 -0.10443910641E+02  0.26513857365E+03  0.30105727414E+03  0.12509000000E+03 0.  0.
         25    1    3    3    0    0 -0.99034242436E+02  0.68108415821E+02  0.27518674788E+03  0.32530261571E+03  0.12509000000E+03 0.  0.
         25    1    4    4    0    0  0.31355326195E+02 -0.57664505180E+02  0.17530972433E+03  0.22514297498E+03  0.12509000000E+03 0.  0.
<mgrwt>
<rscale>  2 0.46143646E+03</rscale>
<asrwt>0</asrwt>
<pdfrwt beam="1">  1       21 0.11523072E+00 0.46143646E+03</pdfrwt>
<pdfrwt beam="2">  1       21 0.99902812E-02 0.46143646E+03</pdfrwt>
<totfact> 0.43151827E+04</totfact>
</mgrwt>
</event>
<event>
 7    0  0.4712189E-002  0.4837824E+03  0.7546771E-02  0.1018101E+00
         21   -1    0    0  502  501  0.00000000000E+00  0.00000000000E+00  0.12982646134E+04  0.12982646134E+04  0.00000000000E+00 0. -1.
         21   -1    0    0  501  502 -0.00000000000E+00 -0.00000000000E+00 -0.45068896703E+02  0.45068896703E+02  0.00000000000E+00 0. -1.
      99926    2    1    2    0    0  0.00000000000E+00  0.00000000000E+00  0.12531957167E+04  0.13433335102E+04  0.48378240463E+03 0.  0.
      99925    2    3    3    0    0 -0.52424815860E+02 -0.12419020205E+03  0.69118085704E+03  0.75199623056E+03  0.26381013255E+03 0.  0.
         25    1    4    4    0    0 -0.41376889572E+02 -0.31058618417E+02  0.25604622449E+03  0.28962710844E+03  0.12509000000E+03 0.  0.
         25    1    4    4    0    0 -0.11047926287E+02 -0.93131583632E+02  0.43513463256E+03  0.46236912213E+03  0.12509000000E+03 0.  0.
         25    1    3    3    0    0  0.52424815860E+02  0.12419020205E+03  0.56201485970E+03  0.59133727959E+03  0.12509000000E+03 0.  0.
<mgrwt>
<rscale>  2 0.48378240E+03</rscale>
<asrwt>0</asrwt>
<pdfrwt beam="1">  1       21 0.19092124E+00 0.48378240E+03</pdfrwt>
<pdfrwt beam="2">  1       21 0.66277798E-02 0.48378240E+03</pdfrwt>
<totfact> 0.22425370E+04</totfact>
</mgrwt>
</event>
<event>
 7    0  0.4712189E-002  0.4541607E+03  0.7546771E-02  0.1026489E+00
         21   -1    0    0  502  501  0.00000000000E+00  0.00000000000E+00  0.10818273080E+03  0.10818273080E+03  0.00000000000E+00 0. -1.
         21   -1    0    0  501  502 -0.00000000000E+00 -0.00000000000E+00 -0.47665165984E+03  0.47665165984E+03  0.00000000000E+00 0. -1.
      99926    2    1    2    0    0 -0.14210854715E-13  0.00000000000E+00 -0.36846892904E+03  0.58483439063E+03  0.45416066849E+03 0.  0.
      99925    2    3    3    0    0  0.65920986462E+02 -0.52427907486E+02 -0.13727943084E+03  0.30880838802E+03  0.26348190914E+03 0.  0.
         25    1    4    4    0    0 -0.59077393000E+01 -0.41509749089E+02 -0.67704991266E+02  0.14828834949E+03  0.12509000000E+03 0.  0.
         25    1    4    4    0    0  0.71828725762E+02 -0.10918158397E+02 -0.69574439575E+02  0.16052003853E+03  0.12509000000E+03 0.  0.
         25    1    3    3    0    0 -0.65920986462E+02  0.52427907486E+02 -0.23118949820E+03  0.27602600261E+03  0.12509000000E+03 0.  0.
<mgrwt>
<rscale>  2 0.45416067E+03</rscale>
<asrwt>0</asrwt>
<pdfrwt beam="1">  1       21 0.15909226E-01 0.45416067E+03</pdfrwt>
<pdfrwt beam="2">  1       21 0.70095830E-01 0.45416067E+03</pdfrwt>
<totfact> 0.60018807E+04</totfact>
</mgrwt>
</event>
<event>
 7    0  0.4712189E-002  0.4570391E+03  0.7546771E-02  0.1025643E+00
         21   -1    0    0  502  501  0.00000000000E+00  0.00000000000E+00  0.32495893315E+03  0.32495893315E+03  0.00000000000E+00 0. -1.
         21   -1    0    0  501  502 -0.00000000000E+00 -0.00000000000E+00 -0.16070088461E+03  0.16070088461E+03  0.00000000000E+00 0. -1.
      99926    2    1    2    0    0  0.00000000000E+00  0.00000000000E+00  0.16425804854E+03  0.48565981775E+03  0.45703911438E+03 0.  0.
      99925    2    3    3    0    0 -0.41168701924E+01  0.11506368443E+03  0.10192130855E+03  0.30457978752E+03  0.26291499337E+03 0.  0.
         25    1    3    3    0    0  0.41168701924E+01 -0.11506368443E+03  0.62336739995E+02  0.18108003023E+03  0.12509000000E+03 0.  0.
         25    1    4    4    0    0 -0.38309305661E+01  0.20564993975E+02  0.22391626397E+02  0.12878854001E+03  0.12509000000E+03 0.  0.
         25    1    4    4    0    0 -0.28593962622E+00  0.94498690452E+02  0.79529682150E+02  0.17579124751E+03  0.12509000000E+03 0.  0.
<mgrwt>
<rscale>  2 0.45703911E+03</rscale>
<asrwt>0</asrwt>
<pdfrwt beam="1">  1       21 0.47788078E-01 0.45703911E+03</pdfrwt>
<pdfrwt beam="2">  1       21 0.23632483E-01 0.45703911E+03</pdfrwt>
<totfact> 0.65228098E+04</totfact>
</mgrwt>
</event>
<event>
 6    0  0.4712189E-002  0.4449644E+03  0.7546771E-02  0.1029234E+00
         21   -1    0    0  502  501  0.00000000000E+00  0.00000000000E+00  0.65638929953E+02  0.65638929953E+02  0.00000000000E+00 0.  1.
         21   -1    0    0  501  502 -0.00000000000E+00 -0.00000000000E+00 -0.75410018184E+03  0.75410018184E+03  0.00000000000E+00 0.  1.
      99926    2    1    2    0    0 -0.53290705182E-14  0.00000000000E+00 -0.68846125188E+03  0.81973911179E+03  0.44496439864E+03 0.  0.
         25    1    3    3    0    0 -0.53023601240E+02  0.51386176171E+02 -0.19035608002E+03  0.23944725242E+03  0.12509000000E+03 0.  0.
         25    1    3    3    0    0  0.91668496963E+01 -0.90832769972E+02 -0.31312764526E+03  0.34932943414E+03  0.12509000000E+03 0.  0.
         25    1    3    3    0    0  0.43856751544E+02  0.39446593801E+02 -0.18497752660E+03  0.23096242522E+03  0.12509000000E+03 0.  0.
<mgrwt>
<rscale>  2 0.44496440E+03</rscale>
<asrwt>0</asrwt>
<pdfrwt beam="1">  1       21 0.96527839E-02 0.44496440E+03</pdfrwt>
<pdfrwt beam="2">  1       21 0.11089709E+00 0.44496440E+03</pdfrwt>
<totfact> 0.50700978E+04</totfact>
</mgrwt>
</event>
<event>
 7    0  0.4712189E-002  0.4513847E+03  0.7546771E-02  0.1027310E+00
         21   -1    0    0  502  501  0.00000000000E+00  0.00000000000E+00  0.65252684607E+03  0.65252684607E+03  0.00000000000E+00 0.  1.
         21   -1    0    0  501  502 -0.00000000000E+00 -0.00000000000E+00 -0.78061213795E+02  0.78061213795E+02  0.00000000000E+00 0.  1.
      99926    2    1    2    0    0  0.00000000000E+00  0.71054273576E-14  0.57446563227E+03  0.73058805986E+03  0.45138470350E+03 0.  0.
      99925    2    3    3    0    0  0.16251702680E+02 -0.52041232541E+02  0.51665104682E+03  0.58239075181E+03  0.26320766684E+03 0.  0.
         25    1    3    3    0    0 -0.16251702680E+02  0.52041232541E+02  0.57814585455E+02  0.14819730806E+03  0.12509000000E+03 0.  0.
         25    1    4    4    0    0  0.12335837563E+02 -0.49470300148E+02  0.34029240561E+03  0.36612281123E+03  0.12509000000E+03 0.  0.
         25    1    4    4    0    0  0.39158651170E+01 -0.25709323929E+01  0.17635864121E+03  0.21626794058E+03  0.12509000000E+03 0.  0.
<mgrwt>
<rscale>  2 0.45138470E+03</rscale>
<asrwt>0</asrwt>
<pdfrwt beam="1">  1       21 0.95959828E-01 0.45138470E+03</pdfrwt>
<pdfrwt beam="2">  1       21 0.11479591E-01 0.45138470E+03</pdfrwt>
<totfact> 0.52757411E+04</totfact>
</mgrwt>
</event>
<event>
 7    0  0.4712189E-002  0.4581962E+03  0.7546771E-02  0.1025306E+00
         21   -1    0    0  502  501  0.00000000000E+00  0.00000000000E+00  0.11598195688E+04  0.11598195688E+04  0.00000000000E+00 0. -1.
         21   -1    0    0  501  502 -0.00000000000E+00 -0.00000000000E+00 -0.45253535112E+02  0.45253535112E+02  0.00000000000E+00 0. -1.
      99926    2    1    2    0    0  0.14210854715E-13  0.00000000000E+00  0.11145660337E+04  0.12050731039E+04  0.45819618322E+03 0.  0.
      99925    2    3    3    0    0  0.11579002363E+03  0.90246152322E+01  0.69353754539E+03  0.75075903929E+03  0.26297535048E+03 0.  0.
         25    1    3    3    0    0 -0.11579002363E+03 -0.90246152322E+01  0.42102848829E+03  0.45431406461E+03  0.12509000000E+03 0.  0.
         25    1    4    4    0    0  0.41633546915E+02  0.41786291352E+02  0.34444859748E+03  0.37117622604E+03  0.12509000000E+03 0.  0.
         25    1    4    4    0    0  0.74156476716E+02 -0.32761676120E+02  0.34908894791E+03  0.37958281325E+03  0.12509000000E+03 0.  0.
<mgrwt>
<rscale>  2 0.45819618E+03</rscale>
<asrwt>0</asrwt>
<pdfrwt beam="1">  1       21 0.17056168E+00 0.45819618E+03</pdfrwt>
<pdfrwt beam="2">  1       21 0.66549324E-02 0.45819618E+03</pdfrwt>
<totfact> 0.31211242E+04</totfact>
</mgrwt>
</event>
<event>
 7    0  0.4712189E-002  0.4045763E+03  0.7546771E-02  0.1042206E+00
         21   -1    0    0  502  501  0.00000000000E+00  0.00000000000E+00  0.43180930132E+03  0.43180930132E+03  0.00000000000E+00 0. -1.
         21   -1    0    0  501  502 -0.00000000000E+00 -0.00000000000E+00 -0.94765203451E+02  0.94765203451E+02  0.00000000000E+00 0. -1.
      99926    2    1    2    0    0 -0.17763568394E-14  0.17763568394E-14  0.33704409787E+03  0.52657450477E+03  0.40457630327E+03 0.  0.
      99925    2    3    3    0    0  0.89152254439E+01 -0.64245768693E+01  0.29208803375E+03  0.39319792424E+03  0.26299891965E+03 0.  0.
         25    1    4    4    0    0 -0.13388168037E+01  0.33995450965E+02  0.16736400710E+03  0.21169719434E+03  0.12509000000E+03 0.  0.
         25    1    3    3    0    0 -0.89152254439E+01  0.64245768693E+01  0.44956064118E+02  0.13337658053E+03  0.12509000000E+03 0.  0.
         25    1    4    4    0    0  0.10254042248E+02 -0.40420027835E+02  0.12472402665E+03  0.18150072990E+03  0.12509000000E+03 0.  0.
<mgrwt>
<rscale>  2 0.40457630E+03</rscale>
<asrwt>0</asrwt>
<pdfrwt beam="1">  1       21 0.63501367E-01 0.40457630E+03</pdfrwt>
<pdfrwt beam="2">  1       21 0.13936060E-01 0.40457630E+03</pdfrwt>
<totfact> 0.96608874E+04</totfact>
</mgrwt>
</event>
<event>
 7    0  0.4712189E-002  0.4520098E+03  0.7546771E-02  0.1027124E+00
         21   -1    0    0  502  501  0.00000000000E+00  0.00000000000E+00  0.30068436937E+03  0.30068436937E+03  0.00000000000E+00 0. -1.
         21   -1    0    0  501  502 -0.00000000000E+00 -0.00000000000E+00 -0.16987321222E+03  0.16987321222E+03  0.00000000000E+00 0. -1.
      99926    2    1    2    0    0  0.00000000000E+00 -0.53290705182E-14  0.13081115716E+03  0.47055758159E+03  0.45200982152E+03 0.  0.
      99925    2    3    3    0    0  0.98694806108E+02  0.14082236801E+02  0.33561165862E+02  0.28335703925E+03  0.26310812547E+03 0.  0.
         25    1    4    4    0    0  0.39582178335E+02 -0.22478473888E+02 -0.10756522666E+02  0.13354864848E+03  0.12509000000E+03 0.  0.
         25    1    3    3    0    0 -0.98694806108E+02 -0.14082236801E+02  0.97249991294E+02  0.18720054234E+03  0.12509000000E+03 0.  0.
         25    1    4    4    0    0  0.59112627772E+02  0.36560710689E+02  0.44317688528E+02  0.14980839077E+03  0.12509000000E+03 0.  0.
<mgrwt>
<rscale>  2 0.45200982E+03</rscale>
<asrwt>0</asrwt>
<pdfrwt beam="1">  1       21 0.44218290E-01 0.45200982E+03</pdfrwt>
<pdfrwt beam="2">  1       21 0.24981355E-01 0.45200982E+03</pdfrwt>
<totfact> 0.69017210E+04</totfact>
</mgrwt>
</event>
<event>
 7    0  0.4712189E-002  0.4631151E+03  0.7546771E-02  0.1023882E+00
         21   -1    0    0  502  501  0.00000000000E+00  0.00000000000E+00  0.41886310474E+03  0.41886310474E+03  0.00000000000E+00 0. -1.
         21   -1    0    0  501  502 -0.00000000000E+00 -0.00000000000E+00 -0.12801053040E+03  0.12801053040E+03  0.00000000000E+00 0. -1.
      99926    2    1    2    0    0  0.00000000000E+00  0.00000000000E+00  0.29085257434E+03  0.54687363514E+03  0.46311505353E+03 0.  0.
      99925    2    3    3    0    0  0.39930039316E+02 -0.75185142940E+02  0.28254050417E+03  0.39533548031E+03  0.26308514161E+03 0.  0.
         25    1    4    4    0    0  0.42765072182E+02 -0.65950281839E+02  0.12208333479E+03  0.19165108872E+03  0.12509000000E+03 0.  0.
         25    1    3    3    0    0 -0.39930039316E+02  0.75185142940E+02  0.83120701650E+01  0.15153815483E+03  0.12509000000E+03 0.  0.
         25    1    4    4    0    0 -0.28350328655E+01 -0.92348611010E+01  0.16045716939E+03  0.20368439159E+03  0.12509000000E+03 0.  0.
<mgrwt>
<rscale>  2 0.46311505E+03</rscale>
<asrwt>0</asrwt>
<pdfrwt beam="1">  1       21 0.61597515E-01 0.46311505E+03</pdfrwt>
<pdfrwt beam="2">  1       21 0.18825078E-01 0.46311505E+03</pdfrwt>
<totfact> 0.58242214E+04</totfact>
</mgrwt>
</event>
<event>
 7    0  0.4712189E-002  0.4596093E+03  0.7546771E-02  0.1024895E+00
         21   -1    0    0  502  501  0.00000000000E+00  0.00000000000E+00  0.12084586184E+04  0.12084586184E+04  0.00000000000E+00 0. -1.
         21   -1    0    0  501  502 -0.00000000000E+00 -0.00000000000E+00 -0.43700442190E+02  0.43700442190E+02  0.00000000000E+00 0. -1.
      99926    2    1    2    0    0  0.00000000000E+00  0.00000000000E+00  0.11647581762E+04  0.12521590606E+04  0.45960929492E+03 0.  0.
      99925    2    3    3    0    0  0.94439897816E+02  0.22656207279E+02  0.55003434703E+03  0.61736374532E+03  0.26299812375E+03 0.  0.
         25    1    3    3    0    0 -0.94439897816E+02 -0.22656207279E+02  0.61472382919E+03  0.63479531528E+03  0.12509000000E+03 0.  0.
         25    1    4    4    0    0  0.43466664991E+02  0.45970458385E+02  0.23222452943E+03  0.27125333948E+03  0.12509000000E+03 0.  0.
         25    1    4    4    0    0  0.50973232825E+02 -0.23314251105E+02  0.31780981760E+03  0.34611040584E+03  0.12509000000E+03 0.  0.
<mgrwt>
<rscale>  2 0.45960929E+03</rscale>
<asrwt>0</asrwt>
<pdfrwt beam="1">  1       21 0.17771448E+00 0.45960929E+03</pdfrwt>
<pdfrwt beam="2">  1       21 0.64265364E-02 0.45960929E+03</pdfrwt>
<totfact> 0.29464874E+04</totfact>
</mgrwt>
</event>
<event>
 7    0  0.4712189E-002  0.4487502E+03  0.7546771E-02  0.1028095E+00
         21   -1    0    0  502  501  0.00000000000E+00  0.00000000000E+00  0.12259537144E+03  0.12259537144E+03  0.00000000000E+00 0. -1.
         21   -1    0    0  501  502 -0.00000000000E+00 -0.00000000000E+00 -0.41065323266E+03  0.41065323266E+03  0.00000000000E+00 0. -1.
      99926    2    1    2    0    0  0.00000000000E+00  0.00000000000E+00 -0.28805786121E+03  0.53324860410E+03  0.44875020041E+03 0.  0.
      99925    2    3    3    0    0 -0.69477681845E+02  0.60517272335E+02 -0.24714580534E+03  0.37259122661E+03  0.26316094795E+03 0.  0.
         25    1    3    3    0    0  0.69477681845E+02 -0.60517272335E+02 -0.40912055875E+02  0.16065737749E+03  0.12509000000E+03 0.  0.
         25    1    4    4    0    0 -0.14700792777E+02  0.45910299664E+02 -0.79439454340E+02  0.15582683957E+03  0.12509000000E+03 0.  0.
         25    1    4    4    0    0 -0.54776889067E+02  0.14606972671E+02 -0.16770635100E+03  0.21676438705E+03  0.12509000000E+03 0.  0.
<mgrwt>
<rscale>  2 0.44875020E+03</rscale>
<asrwt>0</asrwt>
<pdfrwt beam="1">  1       21 0.18028731E-01 0.44875020E+03</pdfrwt>
<pdfrwt beam="2">  1       21 0.60390182E-01 0.44875020E+03</pdfrwt>
<totfact> 0.66201834E+04</totfact>
</mgrwt>
</event>
<event>
 7    0  0.4712189E-002  0.4545140E+03  0.7546771E-02  0.1026384E+00
         21   -1    0    0  502  501  0.00000000000E+00  0.00000000000E+00  0.82019048662E+03  0.82019048662E+03  0.00000000000E+00 0. -1.
         21   -1    0    0  501  502 -0.00000000000E+00 -0.00000000000E+00 -0.62967975657E+02  0.62967975657E+02  0.00000000000E+00 0. -1.
      99926    2    1    2    0    0  0.00000000000E+00 -0.71054273576E-14  0.75722251097E+03  0.88315846228E+03  0.45451395840E+03 0.  0.
      99925    2    3    3    0    0 -0.10463475716E+03  0.40544589218E+02  0.45854105252E+03  0.54044806291E+03  0.26311958447E+03 0.  0.
         25    1    4    4    0    0 -0.16755305482E+02  0.99933348570E+01  0.16386073105E+03  0.20707113339E+03  0.12509000000E+03 0.  0.
         25    1    3    3    0    0  0.10463475716E+03 -0.40544589218E+02  0.29868145844E+03  0.34271039937E+03  0.12509000000E+03 0.  0.
         25    1    4    4    0    0 -0.87879451677E+02  0.30551254361E+02  0.29468032148E+03  0.33337692952E+03  0.12509000000E+03 0.  0.
<mgrwt>
<rscale>  2 0.45451396E+03</rscale>
<asrwt>0</asrwt>
<pdfrwt beam="1">  1       21 0.12061624E+00 0.45451396E+03</pdfrwt>
<pdfrwt beam="2">  1       21 0.92599969E-02 0.45451396E+03</pdfrwt>
<totfact> 0.44137659E+04</totfact>
</mgrwt>
</event>
<event>
 7    0  0.4712189E-002  0.4561557E+03  0.7546771E-02  0.1025902E+00
         21   -1    0    0  502  501  0.00000000000E+00  0.00000000000E+00  0.60206448020E+02  0.60206448020E+02  0.00000000000E+00 0. -1.
         21   -1    0    0  501  502 -0.00000000000E+00 -0.00000000000E+00 -0.86401887477E+03  0.86401887477E+03  0.00000000000E+00 0. -1.
      99926    2    1    2    0    0  0.00000000000E+00 -0.71054273576E-14 -0.80381242675E+03  0.92422532279E+03  0.45615570794E+03 0.  0.
      99925    2    3    3    0    0  0.96218754963E+02  0.58504541687E+02 -0.46584745925E+03  0.54666915801E+03  0.26296859666E+03 0.  0.
         25    1    4    4    0    0  0.15504285867E+02  0.12247436415E+01 -0.22181324217E+03  0.25512840959E+03  0.12509000000E+03 0.  0.
         25    1    4    4    0    0  0.80714469096E+02  0.57279798046E+02 -0.24403421707E+03  0.29154074842E+03  0.12509000000E+03 0.  0.
         25    1    3    3    0    0 -0.96218754963E+02 -0.58504541687E+02 -0.33796496750E+03  0.37755616478E+03  0.12509000000E+03 0.  0.
<mgrwt>
<rscale>  2 0.45615571E+03</rscale>
<asrwt>0</asrwt>
<pdfrwt beam="1">  1       21 0.88538900E-02 0.45615571E+03</pdfrwt>
<pdfrwt beam="2">  1       21 0.12706159E+00 0.45615571E+03</pdfrwt>
<totfact> 0.41823203E+04</totfact>
</mgrwt>
</event>
<event>
 7    0  0.4712189E-002  0.4538363E+03  0.7546771E-02  0.1026584E+00
         21   -1    0    0  502  501  0.00000000000E+00  0.00000000000E+00  0.11480588150E+04  0.11480588150E+04  0.00000000000E+00 0.  1.
         21   -1    0    0  501  502 -0.00000000000E+00 -0.00000000000E+00 -0.44851226976E+02  0.44851226976E+02  0.00000000000E+00 0.  1.
      99926    2    1    2    0    0 -0.44408920985E-15  0.88817841970E-15  0.11032075880E+04  0.11929100419E+04  0.45383629865E+03 0.  0.
      99925    2    3    3    0    0 -0.21546615381E+01  0.14115033853E+01  0.98985465604E+03  0.10240816374E+04  0.26253442634E+03 0.  0.
         25    1    4    4    0    0  0.83804820644E+00 -0.13558865802E+02  0.63929110305E+03  0.65155595900E+03  0.12509000000E+03 0.  0.
         25    1    4    4    0    0 -0.29927097445E+01  0.14970369187E+02  0.35056355299E+03  0.37252567837E+03  0.12509000000E+03 0.  0.
         25    1    3    3    0    0  0.21546615381E+01 -0.14115033853E+01  0.11335293196E+03  0.16882840458E+03  0.12509000000E+03 0.  0.
<mgrwt>
<rscale>  2 0.45383630E+03</rscale>
<asrwt>0</asrwt>
<pdfrwt beam="1">  1       21 0.16883216E+00 0.45383630E+03</pdfrwt>
<pdfrwt beam="2">  1       21 0.65957694E-02 0.45383630E+03</pdfrwt>
<totfact> 0.32676703E+04</totfact>
</mgrwt>
</event>
<event>
 7    0  0.4712189E-002  0.4450560E+03  0.7546771E-02  0.1029207E+00
         21   -1    0    0  502  501  0.00000000000E+00  0.00000000000E+00  0.31140088160E+03  0.31140088160E+03  0.00000000000E+00 0. -1.
         21   -1    0    0  501  502 -0.00000000000E+00 -0.00000000000E+00 -0.15901919554E+03  0.15901919554E+03  0.00000000000E+00 0. -1.
      99926    2    1    2    0    0  0.00000000000E+00  0.00000000000E+00  0.15238168606E+03  0.47042007714E+03  0.44505603101E+03 0.  0.
      99925    2    3    3    0    0 -0.27226569295E+02 -0.75728561169E+02  0.28005392662E+02  0.27653074915E+03  0.26307575364E+03 0.  0.
         25    1    4    4    0    0 -0.26754856921E+01 -0.66728174433E+02 -0.12808784603E+02  0.14237759848E+03  0.12509000000E+03 0.  0.
         25    1    4    4    0    0 -0.24551083603E+02 -0.90003867365E+01  0.40814177265E+02  0.13415315066E+03  0.12509000000E+03 0.  0.
         25    1    3    3    0    0  0.27226569295E+02  0.75728561169E+02  0.12437629340E+03  0.19388932800E+03  0.12509000000E+03 0.  0.
<mgrwt>
<rscale>  2 0.44505603E+03</rscale>
<asrwt>0</asrwt>
<pdfrwt beam="1">  1       21 0.45794247E-01 0.44505603E+03</pdfrwt>
<pdfrwt beam="2">  1       21 0.23385176E-01 0.44505603E+03</pdfrwt>
<totfact> 0.72997239E+04</totfact>
</mgrwt>
</event>
<event>
 7    0  0.4712189E-002  0.4570969E+03  0.7546771E-02  0.1025627E+00
         21   -1    0    0  502  501  0.00000000000E+00  0.00000000000E+00  0.16632808386E+03  0.16632808386E+03  0.00000000000E+00 0.  1.
         21   -1    0    0  501  502 -0.00000000000E+00 -0.00000000000E+00 -0.31404434428E+03  0.31404434428E+03  0.00000000000E+00 0.  1.
      99926    2    1    2    0    0  0.00000000000E+00 -0.71054273576E-14 -0.14771626041E+03  0.48037242814E+03  0.45709690015E+03 0.  0.
      99925    2    3    3    0    0 -0.25383864977E+02  0.55803578873E+02 -0.19517950088E+03  0.33320365662E+03  0.26300429503E+03 0.  0.
         25    1    4    4    0    0 -0.51961276075E+02  0.35868230619E+02 -0.11164024106E+03  0.17915790717E+03  0.12509000000E+03 0.  0.
         25    1    3    3    0    0  0.25383864977E+02 -0.55803578873E+02  0.47463240467E+02  0.14716877152E+03  0.12509000000E+03 0.  0.
         25    1    4    4    0    0  0.26577411098E+02  0.19935348254E+02 -0.83539259821E+02  0.15404574945E+03  0.12509000000E+03 0.  0.
<mgrwt>
<rscale>  2 0.45709690E+03</rscale>
<asrwt>0</asrwt>
<pdfrwt beam="1">  1       21 0.24460013E-01 0.45709690E+03</pdfrwt>
<pdfrwt beam="2">  1       21 0.46182991E-01 0.45709690E+03</pdfrwt>
<totfact> 0.65574783E+04</totfact>
</mgrwt>
</event>
<event>
 7    0  0.4712189E-002  0.4703561E+03  0.7546771E-02  0.1021820E+00
         21   -1    0    0  502  501  0.00000000000E+00  0.00000000000E+00  0.28367338642E+04  0.28367338642E+04  0.00000000000E+00 0.  1.
         21   -1    0    0  501  502 -0.00000000000E+00 -0.00000000000E+00 -0.19497319466E+02  0.19497319466E+02  0.00000000000E+00 0.  1.
      99926    2    1    2    0    0  0.00000000000E+00  0.00000000000E+00  0.28172365448E+04  0.28562311837E+04  0.47035606253E+03 0.  0.
      99925    2    3    3    0    0 -0.61941464657E+02  0.10959239930E+03  0.16447319199E+04  0.16703720679E+04  0.26296866342E+03 0.  0.
         25    1    4    4    0    0 -0.41934751735E+02  0.24318817062E+02  0.62204146064E+03  0.63634347260E+03  0.12509000000E+03 0.  0.
         25    1    4    4    0    0 -0.20006712923E+02  0.85273582234E+02  0.10226904592E+04  0.10340285953E+04  0.12509000000E+03 0.  0.
         25    1    3    3    0    0  0.61941464657E+02 -0.10959239930E+03  0.11725046249E+04  0.11858591158E+04  0.12509000000E+03 0.  0.
<mgrwt>
<rscale>  2 0.47035606E+03</rscale>
<asrwt>0</asrwt>
<pdfrwt beam="1">  1       21 0.41716646E+00 0.47035606E+03</pdfrwt>
<pdfrwt beam="2">  1       21 0.28672548E-02 0.47035606E+03</pdfrwt>
<totfact> 0.36721218E+03</totfact>
</mgrwt>
</event>
<event>
 7    0  0.4712189E-002  0.4586397E+03  0.7546771E-02  0.1025176E+00
         21   -1    0    0  502  501  0.00000000000E+00  0.00000000000E+00  0.65329308666E+02  0.65329308666E+02  0.00000000000E+00 0. -1.
         21   -1    0    0  501  502 -0.00000000000E+00 -0.00000000000E+00 -0.80496157791E+03  0.80496157791E+03  0.00000000000E+00 0. -1.
      99926    2    1    2    0    0  0.35527136788E-14 -0.28421709430E-13 -0.73963226925E+03  0.87029088658E+03  0.45863965545E+03 0.  0.
      99925    2    3    3    0    0  0.30074767087E+02 -0.99134754594E+02 -0.56518204388E+03  0.63193698916E+03  0.26302361940E+03 0.  0.
         25    1    3    3    0    0 -0.30074767087E+02  0.99134754594E+02 -0.17445022536E+03  0.23835389742E+03  0.12509000000E+03 0.  0.
         25    1    4    4    0    0  0.18088332083E+02 -0.27182352563E+02 -0.19029849920E+03  0.23005889452E+03  0.12509000000E+03 0.  0.
         25    1    4    4    0    0  0.11986435004E+02 -0.71952402031E+02 -0.37488354468E+03  0.40187809465E+03  0.12509000000E+03 0.  0.
<mgrwt>
<rscale>  2 0.45863966E+03</rscale>
<asrwt>0</asrwt>
<pdfrwt beam="1">  1       21 0.96072514E-02 0.45863966E+03</pdfrwt>
<pdfrwt beam="2">  1       21 0.11837670E+00 0.45863966E+03</pdfrwt>
<totfact> 0.43295512E+04</totfact>
</mgrwt>
</event>
<event>
 7    0  0.4712189E-002  0.4548008E+03  0.7546771E-02  0.1026300E+00
         21   -1    0    0  502  501  0.00000000000E+00  0.00000000000E+00  0.25121798285E+02  0.25121798285E+02  0.00000000000E+00 0. -1.
         21   -1    0    0  501  502 -0.00000000000E+00 -0.00000000000E+00 -0.20584095568E+04  0.20584095568E+04  0.00000000000E+00 0. -1.
      99926    2    1    2    0    0  0.00000000000E+00  0.00000000000E+00 -0.20332877585E+04  0.20835313551E+04  0.45480083410E+03 0.  0.
      99925    2    3    3    0    0  0.36559937103E+02  0.45792687448E+02 -0.17221099095E+04  0.17430717230E+04  0.26306442576E+03 0.  0.
         25    1    4    4    0    0  0.26143713262E+02  0.47142082653E+02 -0.11018025444E+04  0.11101901749E+04  0.12509000000E+03 0.  0.
         25    1    3    3    0    0 -0.36559937103E+02 -0.45792687448E+02 -0.31117784905E+03  0.34045963206E+03  0.12509000000E+03 0.  0.
         25    1    4    4    0    0  0.10416223841E+02 -0.13493952053E+01 -0.62030736512E+03  0.63288154809E+03  0.12509000000E+03 0.  0.
<mgrwt>
<rscale>  2 0.45480083E+03</rscale>
<asrwt>0</asrwt>
<pdfrwt beam="1">  1       21 0.36943826E-02 0.45480083E+03</pdfrwt>
<pdfrwt beam="2">  1       21 0.30270725E+00 0.45480083E+03</pdfrwt>
<totfact> 0.12412826E+04</totfact>
</mgrwt>
</event>
<event>
 7    0  0.4712189E-002  0.4605090E+03  0.7546771E-02  0.1024634E+00
         21   -1    0    0  502  501  0.00000000000E+00  0.00000000000E+00  0.49856326351E+03  0.49856326351E+03  0.00000000000E+00 0.  1.
         21   -1    0    0  501  502 -0.00000000000E+00 -0.00000000000E+00 -0.10633984897E+03  0.10633984897E+03  0.00000000000E+00 0.  1.
      99926    2    1    2    0    0  0.00000000000E+00  0.14210854715E-13  0.39222341454E+03  0.60490311247E+03  0.46050903201E+03 0.  0.
      99925    2    3    3    0    0 -0.42788136705E+02  0.82575890724E+02  0.14958002479E+03  0.31650594698E+03  0.26296811269E+03 0.  0.
         25    1    4    4    0    0 -0.31903610463E+02  0.17701133601E+02  0.35980413208E+02  0.13517865485E+03  0.12509000000E+03 0.  0.
         25    1    3    3    0    0  0.42788136705E+02 -0.82575890724E+02  0.24264338975E+03  0.28839716549E+03  0.12509000000E+03 0.  0.
         25    1    4    4    0    0 -0.10884526241E+02  0.64874757124E+02  0.11359961158E+03  0.18132729214E+03  0.12509000000E+03 0.  0.
<mgrwt>
<rscale>  2 0.46050903E+03</rscale>
<asrwt>0</asrwt>
<pdfrwt beam="1">  1       21 0.73318126E-01 0.46050903E+03</pdfrwt>
<pdfrwt beam="2">  1       21 0.15638213E-01 0.46050903E+03</pdfrwt>
<totfact> 0.55904319E+04</totfact>
</mgrwt>
</event>
<event>
 7    0  0.4712189E-002  0.4543073E+03  0.7546771E-02  0.1026445E+00
         21   -1    0    0  502  501  0.00000000000E+00  0.00000000000E+00  0.15913036623E+04  0.15913036623E+04  0.00000000000E+00 0.  1.
         21   -1    0    0  501  502 -0.00000000000E+00 -0.00000000000E+00 -0.32425474576E+02  0.32425474576E+02  0.00000000000E+00 0.  1.
      99926    2    1    2    0    0 -0.14210854715E-13  0.00000000000E+00  0.15588781877E+04  0.16237291369E+04  0.45430728123E+03 0.  0.
      99925    2    3    3    0    0 -0.93852574242E+02 -0.12834963846E+02  0.76417148139E+03  0.81368018824E+03  0.26295313990E+03 0.  0.
         25    1    4    4    0    0 -0.21355217968E+02 -0.21810493510E+02  0.44338948598E+03  0.46170714456E+03  0.12509000000E+03 0.  0.
         25    1    4    4    0    0 -0.72497356274E+02  0.89755296640E+01  0.32078199541E+03  0.35197304368E+03  0.12509000000E+03 0.  0.
         25    1    3    3    0    0  0.93852574242E+02  0.12834963846E+02  0.79470670635E+03  0.81004894865E+03  0.12509000000E+03 0.  0.
<mgrwt>
<rscale>  2 0.45430728E+03</rscale>
<asrwt>0</asrwt>
<pdfrwt beam="1">  1       21 0.23401519E+00 0.45430728E+03</pdfrwt>
<pdfrwt beam="2">  1       21 0.47684532E-02 0.45430728E+03</pdfrwt>
<totfact> 0.21011625E+04</totfact>
</mgrwt>
</event>
<event>
 7    0  0.4712189E-002  0.4557427E+03  0.7546771E-02  0.1026023E+00
         21   -1    0    0  502  501  0.00000000000E+00  0.00000000000E+00  0.37789280683E+03  0.37789280683E+03  0.00000000000E+00 0.  1.
         21   -1    0    0  501  502 -0.00000000000E+00 -0.00000000000E+00 -0.13740762253E+03  0.13740762253E+03  0.00000000000E+00 0.  1.
      99926    2    1    2    0    0  0.00000000000E+00 -0.71054273576E-14  0.24048518430E+03  0.51530042936E+03  0.45574270003E+03 0.  0.
      99925    2    3    3    0    0  0.64685123410E+02  0.37215506141E+02  0.24846363722E+03  0.36942266238E+03  0.26300145507E+03 0.  0.
         25    1    3    3    0    0 -0.64685123410E+02 -0.37215506141E+02 -0.79784529252E+01  0.14587776698E+03  0.12509000000E+03 0.  0.
         25    1    4    4    0    0  0.59187212077E+02  0.32719369993E+02  0.93683255732E+02  0.17028723895E+03  0.12509000000E+03 0.  0.
         25    1    4    4    0    0  0.54979113330E+01  0.44961361482E+01  0.15478038149E+03  0.19913542343E+03  0.12509000000E+03 0.  0.
<mgrwt>
<rscale>  2 0.45574270E+03</rscale>
<asrwt>0</asrwt>
<pdfrwt beam="1">  1       21 0.55572472E-01 0.45574270E+03</pdfrwt>
<pdfrwt beam="2">  1       21 0.20207003E-01 0.45574270E+03</pdfrwt>
<totfact> 0.63831569E+04</totfact>
</mgrwt>
</event>
<event>
 7    0  0.4712189E-002  0.4557153E+03  0.7546771E-02  0.1026031E+00
         21   -1    0    0  502  501  0.00000000000E+00  0.00000000000E+00  0.10738096769E+03  0.10738096769E+03  0.00000000000E+00 0.  1.
         21   -1    0    0  501  502 -0.00000000000E+00 -0.00000000000E+00 -0.48350379527E+03  0.48350379527E+03  0.00000000000E+00 0.  1.
      99926    2    1    2    0    0  0.14210854715E-13  0.11657341759E-14 -0.37612282759E+03  0.59088476296E+03  0.45571528575E+03 0.  0.
      99925    2    3    3    0    0 -0.11159930388E+03 -0.20927638150E+00 -0.20947773065E+03  0.35451102318E+03  0.26333001633E+03 0.  0.
         25    1    4    4    0    0 -0.66691083629E+02 -0.23729499866E+02 -0.14763823523E+03  0.20604695193E+03  0.12509000000E+03 0.  0.
         25    1    3    3    0    0  0.11159930388E+03  0.20927638150E+00 -0.16664509694E+03  0.23637373978E+03  0.12509000000E+03 0.  0.
         25    1    4    4    0    0 -0.44908220249E+02  0.23520223485E+02 -0.61839495424E+02  0.14846407125E+03  0.12509000000E+03 0.  0.
<mgrwt>
<rscale>  2 0.45571529E+03</rscale>
<asrwt>0</asrwt>
<pdfrwt beam="1">  1       21 0.15791319E-01 0.45571529E+03</pdfrwt>
<pdfrwt beam="2">  1       21 0.71103497E-01 0.45571529E+03</pdfrwt>
<totfact> 0.58909141E+04</totfact>
</mgrwt>
</event>
<event>
 7    0  0.4712189E-002  0.4623058E+03  0.7546771E-02  0.1024115E+00
         21   -1    0    0  502  501  0.00000000000E+00  0.00000000000E+00  0.27250400147E+03  0.27250400147E+03  0.00000000000E+00 0. -1.
         21   -1    0    0  501  502 -0.00000000000E+00 -0.00000000000E+00 -0.19607663223E+03  0.19607663223E+03  0.00000000000E+00 0. -1.
      99926    2    1    2    0    0  0.00000000000E+00  0.00000000000E+00  0.76427369239E+02  0.46858063371E+03  0.46230581601E+03 0.  0.
      99925    2    3    3    0    0 -0.15571909420E+02 -0.23626840580E+02  0.16561328799E+03  0.31236812409E+03  0.26333509418E+03 0.  0.
         25    1    4    4    0    0 -0.12444143919E+01  0.13832365772E+02  0.11834738451E+03  0.17276138003E+03  0.12509000000E+03 0.  0.
         25    1    4    4    0    0 -0.14327495028E+02 -0.37459206352E+02  0.47265903476E+02  0.13960674406E+03  0.12509000000E+03 0.  0.
         25    1    3    3    0    0  0.15571909420E+02  0.23626840580E+02 -0.89185918749E+02  0.15621250962E+03  0.12509000000E+03 0.  0.
<mgrwt>
<rscale>  2 0.46230582E+03</rscale>
<asrwt>0</asrwt>
<pdfrwt beam="1">  1       21 0.40074118E-01 0.46230582E+03</pdfrwt>
<pdfrwt beam="2">  1       21 0.28834799E-01 0.46230582E+03</pdfrwt>
<totfact> 0.63760880E+04</totfact>
</mgrwt>
</event>
<event>
 7    0  0.4712189E-002  0.4496305E+03  0.7546771E-02  0.1027832E+00
         21   -1    0    0  502  501  0.00000000000E+00  0.00000000000E+00  0.20741988934E+03  0.20741988934E+03  0.00000000000E+00 0. -1.
         21   -1    0    0  501  502 -0.00000000000E+00 -0.00000000000E+00 -0.24366952509E+03  0.24366952509E+03  0.00000000000E+00 0. -1.
      99926    2    1    2    0    0  0.00000000000E+00  0.00000000000E+00 -0.36249635750E+02  0.45108941443E+03  0.44963054135E+03 0.  0.
      99925    2    3    3    0    0  0.73863066249E+02  0.76967641856E+02 -0.40343028906E+02  0.28663870930E+03  0.26297227846E+03 0.  0.
         25    1    4    4    0    0  0.54399277500E+02  0.17068034124E+02 -0.49936972397E+02  0.14625938771E+03  0.12509000000E+03 0.  0.
         25    1    3    3    0    0 -0.73863066249E+02 -0.76967641856E+02  0.40933931553E+01  0.16445070512E+03  0.12509000000E+03 0.  0.
         25    1    4    4    0    0  0.19463788749E+02  0.59899607732E+02  0.95939434916E+01  0.14037932159E+03  0.12509000000E+03 0.  0.
<mgrwt>
<rscale>  2 0.44963054E+03</rscale>
<asrwt>0</asrwt>
<pdfrwt beam="1">  1       21 0.30502925E-01 0.44963054E+03</pdfrwt>
<pdfrwt beam="2">  1       21 0.35833754E-01 0.44963054E+03</pdfrwt>
<totfact> 0.71862971E+04</totfact>
</mgrwt>
</event>
<event>
 7    0  0.4712189E-002  0.4567098E+03  0.7546771E-02  0.1025740E+00
         21   -1    0    0  502  501  0.00000000000E+00  0.00000000000E+00  0.99325457421E+03  0.99325457421E+03  0.00000000000E+00 0. -1.
         21   -1    0    0  501  502 -0.00000000000E+00 -0.00000000000E+00 -0.52500092067E+02  0.52500092067E+02  0.00000000000E+00 0. -1.
      99926    2    1    2    0    0  0.71054273576E-14  0.00000000000E+00  0.94075448214E+03  0.10457546663E+04  0.45670978352E+03 0.  0.
      99925    2    3    3    0    0 -0.60797559329E+02 -0.37051313011E+02  0.38520423955E+03  0.47186206033E+03  0.26306340451E+03 0.  0.
         25    1    4    4    0    0 -0.37770330608E+02 -0.51745780064E+02  0.24128787117E+03  0.27923389569E+03  0.12509000000E+03 0.  0.
         25    1    3    3    0    0  0.60797559329E+02  0.37051313011E+02  0.55555024259E+03  0.57389260595E+03  0.12509000000E+03 0.  0.
         25    1    4    4    0    0 -0.23027228722E+02  0.14694467053E+02  0.14391636838E+03  0.19262816464E+03  0.12509000000E+03 0.  0.
<mgrwt>
<rscale>  2 0.45670978E+03</rscale>
<asrwt>0</asrwt>
<pdfrwt beam="1">  1       21 0.14606684E+00 0.45670978E+03</pdfrwt>
<pdfrwt beam="2">  1       21 0.77206024E-02 0.45670978E+03</pdfrwt>
<totfact> 0.36938111E+04</totfact>
</mgrwt>
</event>
<event>
 7    0  0.4712189E-002  0.4561190E+03  0.7546771E-02  0.1025913E+00
         21   -1    0    0  502  501  0.00000000000E+00  0.00000000000E+00  0.47758644173E+03  0.47758644173E+03  0.00000000000E+00 0. -1.
         21   -1    0    0  501  502 -0.00000000000E+00 -0.00000000000E+00 -0.10890412429E+03  0.10890412429E+03  0.00000000000E+00 0. -1.
      99926    2    1    2    0    0  0.00000000000E+00  0.00000000000E+00  0.36868231744E+03  0.58649056602E+03  0.45611898978E+03 0.  0.
      99925    2    3    3    0    0 -0.59766638535E+02  0.16909348756E+02  0.35496284902E+03  0.44615628984E+03  0.26305671180E+03 0.  0.
         25    1    4    4    0    0  0.19306957293E+01 -0.12343106742E+02  0.19400701556E+03  0.23117592880E+03  0.12509000000E+03 0.  0.
         25    1    4    4    0    0 -0.61697334265E+02  0.29252455499E+02  0.16095583346E+03  0.21498036104E+03  0.12509000000E+03 0.  0.
         25    1    3    3    0    0  0.59766638535E+02 -0.16909348756E+02  0.13719468418E+02  0.14033427618E+03  0.12509000000E+03 0.  0.
<mgrwt>
<rscale>  2 0.45611899E+03</rscale>
<asrwt>0</asrwt>
<pdfrwt beam="1">  1       21 0.70233300E-01 0.45611899E+03</pdfrwt>
<pdfrwt beam="2">  1       21 0.16015312E-01 0.45611899E+03</pdfrwt>
<totfact> 0.58994079E+04</totfact>
</mgrwt>
</event>
<event>
 7    0  0.4712189E-002  0.4531062E+03  0.7546771E-02  0.1026800E+00
         21   -1    0    0  502  501  0.00000000000E+00  0.00000000000E+00  0.99041508997E+02  0.99041508997E+02  0.00000000000E+00 0. -1.
         21   -1    0    0  501  502 -0.00000000000E+00 -0.00000000000E+00 -0.51823034596E+03  0.51823034596E+03  0.00000000000E+00 0. -1.
      99926    2    1    2    0    0  0.00000000000E+00  0.35527136788E-14 -0.41918883697E+03  0.61727185496E+03  0.45310623687E+03 0.  0.
      99925    2    3    3    0    0  0.17621496173E+02 -0.24313293173E+02 -0.11776857655E+03  0.28954737488E+03  0.26280523459E+03 0.  0.
         25    1    4    4    0    0  0.34603692435E+01 -0.31554407245E+01 -0.10090590401E+03  0.16078383167E+03  0.12509000000E+03 0.  0.
         25    1    4    4    0    0  0.14161126930E+02 -0.21157852449E+02 -0.16862672538E+02  0.12876354321E+03  0.12509000000E+03 0.  0.
         25    1    3    3    0    0 -0.17621496173E+02  0.24313293173E+02 -0.30142026042E+03  0.32772448008E+03  0.12509000000E+03 0.  0.
<mgrwt>
<rscale>  2 0.45310624E+03</rscale>
<asrwt>0</asrwt>
<pdfrwt beam="1">  1       21 0.14564928E-01 0.45310624E+03</pdfrwt>
<pdfrwt beam="2">  1       21 0.76210346E-01 0.45310624E+03</pdfrwt>
<totfact> 0.58497487E+04</totfact>
</mgrwt>
</event>
<event>
 7    0  0.4712189E-002  0.4456113E+03  0.7546771E-02  0.1029039E+00
         21   -1    0    0  502  501  0.00000000000E+00  0.00000000000E+00  0.53938520447E+03  0.53938520447E+03  0.00000000000E+00 0. -1.
         21   -1    0    0  501  502 -0.00000000000E+00 -0.00000000000E+00 -0.92035088434E+02  0.92035088434E+02  0.00000000000E+00 0. -1.
      99926    2    1    2    0    0 -0.14210854715E-13  0.71054273576E-14  0.44735011604E+03  0.63142029290E+03  0.44561133286E+03 0.  0.
      99925    2    3    3    0    0  0.86862415016E+02 -0.55233492052E+02  0.26270495273E+03  0.38578405327E+03  0.26309622914E+03 0.  0.
         25    1    4    4    0    0  0.35486323956E+02 -0.59593317108E+02  0.16795818841E+03  0.22060848530E+03  0.12509000000E+03 0.  0.
         25    1    4    4    0    0  0.51376091061E+02  0.43598250567E+01  0.94746764324E+02  0.16517556798E+03  0.12509000000E+03 0.  0.
         25    1    3    3    0    0 -0.86862415016E+02  0.55233492052E+02  0.18464516330E+03  0.24563623963E+03  0.12509000000E+03 0.  0.
<mgrwt>
<rscale>  2 0.44561133E+03</rscale>
<asrwt>0</asrwt>
<pdfrwt beam="1">  1       21 0.79321352E-01 0.44561133E+03</pdfrwt>
<pdfrwt beam="2">  1       21 0.13534572E-01 0.44561133E+03</pdfrwt>
<totfact> 0.61195188E+04</totfact>
</mgrwt>
</event>
<event>
 7    0  0.4712189E-002  0.4573640E+03  0.7546771E-02  0.1025549E+00
         21   -1    0    0  502  501  0.00000000000E+00  0.00000000000E+00  0.80298104597E+03  0.80298104597E+03  0.00000000000E+00 0.  1.
         21   -1    0    0  501  502 -0.00000000000E+00 -0.00000000000E+00 -0.65126640817E+02  0.65126640817E+02  0.00000000000E+00 0.  1.
      99926    2    1    2    0    0  0.00000000000E+00  0.00000000000E+00  0.73785440516E+03  0.86810768679E+03  0.45736400455E+03 0.  0.
      99925    2    3    3    0    0  0.77461160033E+02 -0.80777863264E+02  0.51850044453E+03  0.59190312012E+03  0.26264290991E+03 0.  0.
         25    1    4    4    0    0  0.30255219653E+02 -0.70280537391E+02  0.21675311261E+03  0.26169476911E+03  0.12509000000E+03 0.  0.
         25    1    4    4    0    0  0.47205940381E+02 -0.10497325872E+02  0.30174733192E+03  0.33020835101E+03  0.12509000000E+03 0.  0.
         25    1    3    3    0    0 -0.77461160033E+02  0.80777863264E+02  0.21935396063E+03  0.27620456667E+03  0.12509000000E+03 0.  0.
<mgrwt>
<rscale>  2 0.45736400E+03</rscale>
<asrwt>0</asrwt>
<pdfrwt beam="1">  1       21 0.11808544E+00 0.45736400E+03</pdfrwt>
<pdfrwt beam="2">  1       21 0.95774477E-02 0.45736400E+03</pdfrwt>
<totfact> 0.43821646E+04</totfact>
</mgrwt>
</event>
<event>
 7    0  0.4712189E-002  0.4559353E+03  0.7546771E-02  0.1025967E+00
         21   -1    0    0  502  501  0.00000000000E+00  0.00000000000E+00  0.53660454795E+02  0.53660454795E+02  0.00000000000E+00 0.  1.
         21   -1    0    0  501  502 -0.00000000000E+00 -0.00000000000E+00 -0.96848316912E+03  0.96848316912E+03  0.00000000000E+00 0.  1.
      99926    2    1    2    0    0  0.00000000000E+00  0.00000000000E+00 -0.91482271432E+03  0.10221436239E+04  0.45593529065E+03 0.  0.
      99925    2    3    3    0    0  0.45205401433E+02 -0.16962769166E+02 -0.80686048634E+03  0.84999655125E+03  0.26294301447E+03 0.  0.
         25    1    4    4    0    0  0.62736822640E+02 -0.90059436979E+00 -0.41303353263E+03  0.43609738266E+03  0.12509000000E+03 0.  0.
         25    1    4    4    0    0 -0.17531421207E+02 -0.16062174796E+02 -0.39382695371E+03  0.41389916859E+03  0.12509000000E+03 0.  0.
         25    1    3    3    0    0 -0.45205401433E+02  0.16962769166E+02 -0.10796222798E+03  0.17214707267E+03  0.12509000000E+03 0.  0.
<mgrwt>
<rscale>  2 0.45593529E+03</rscale>
<asrwt>0</asrwt>
<pdfrwt beam="1">  1       21 0.78912438E-02 0.45593529E+03</pdfrwt>
<pdfrwt beam="2">  1       21 0.14242399E+00 0.45593529E+03</pdfrwt>
<totfact> 0.38037880E+04</totfact>
</mgrwt>
</event>
<event>
 7    0  0.4712189E-002  0.4551369E+03  0.7546771E-02  0.1026201E+00
         21   -1    0    0  502  501  0.00000000000E+00  0.00000000000E+00  0.45852748476E+03  0.45852748476E+03  0.00000000000E+00 0. -1.
         21   -1    0    0  501  502 -0.00000000000E+00 -0.00000000000E+00 -0.11294283685E+03  0.11294283685E+03  0.00000000000E+00 0. -1.
      99926    2    1    2    0    0 -0.35527136788E-14 -0.35527136788E-14  0.34558464792E+03  0.57147032161E+03  0.45513688007E+03 0.  0.
      99925    2    3    3    0    0  0.30771962577E+02  0.25264891154E+02  0.84428080550E+02  0.27917682325E+03  0.26310904478E+03 0.  0.
         25    1    4    4    0    0  0.10982815907E+02  0.52865110136E+02  0.37330650182E+02  0.14126722075E+03  0.12509000000E+03 0.  0.
         25    1    4    4    0    0  0.19789146670E+02 -0.27600218983E+02  0.47097430369E+02  0.13790960250E+03  0.12509000000E+03 0.  0.
         25    1    3    3    0    0 -0.30771962577E+02 -0.25264891154E+02  0.26115656737E+03  0.29229349836E+03  0.12509000000E+03 0.  0.
<mgrwt>
<rscale>  2 0.45513688E+03</rscale>
<asrwt>0</asrwt>
<pdfrwt beam="1">  1       21 0.67430512E-01 0.45513688E+03</pdfrwt>
<pdfrwt beam="2">  1       21 0.16609241E-01 0.45513688E+03</pdfrwt>
<totfact> 0.60404227E+04</totfact>
</mgrwt>
</event>
<event>
 7    0  0.4712189E-002  0.4587155E+03  0.7546771E-02  0.1025154E+00
         21   -1    0    0  502  501  0.00000000000E+00  0.00000000000E+00  0.71944909172E+02  0.71944909172E+02  0.00000000000E+00 0.  1.
         21   -1    0    0  501  502 -0.00000000000E+00 -0.00000000000E+00 -0.73118421178E+03  0.73118421178E+03  0.00000000000E+00 0.  1.
      99926    2    1    2    0    0  0.00000000000E+00  0.00000000000E+00 -0.65923930261E+03  0.80312912095E+03  0.45871551840E+03 0.  0.
      99925    2    3    3    0    0 -0.94977247360E+02 -0.20234988651E+02 -0.30079653657E+03  0.41126325499E+03  0.26311361845E+03 0.  0.
         25    1    4    4    0    0 -0.52708735461E+02  0.27790859235E+02 -0.16990736575E+03  0.21924088051E+03  0.12509000000E+03 0.  0.
         25    1    3    3    0    0  0.94977247360E+02  0.20234988651E+02 -0.35844276604E+03  0.39186586596E+03  0.12509000000E+03 0.  0.
         25    1    4    4    0    0 -0.42268511898E+02 -0.48025847886E+02 -0.13088917083E+03  0.19202237449E+03  0.12509000000E+03 0.  0.
<mgrwt>
<rscale>  2 0.45871552E+03</rscale>
<asrwt>0</asrwt>
<pdfrwt beam="1">  1       21 0.10580134E-01 0.45871552E+03</pdfrwt>
<pdfrwt beam="2">  1       21 0.10752708E+00 0.45871552E+03</pdfrwt>
<totfact> 0.46250445E+04</totfact>
</mgrwt>
</event>
<event>
 7    0  0.4712189E-002  0.4535228E+03  0.7546771E-02  0.1026677E+00
         21   -1    0    0  502  501  0.00000000000E+00  0.00000000000E+00  0.84002740935E+03  0.84002740935E+03  0.00000000000E+00 0. -1.
         21   -1    0    0  501  502 -0.00000000000E+00 -0.00000000000E+00 -0.61213153885E+02  0.61213153885E+02  0.00000000000E+00 0. -1.
      99926    2    1    2    0    0 -0.14210854715E-13  0.00000000000E+00  0.77881425547E+03  0.90124056324E+03  0.45352277595E+03 0.  0.
      99925    2    3    3    0    0 -0.10037893329E+03  0.65293684604E+01  0.58841746980E+03  0.65220842275E+03  0.26272065972E+03 0.  0.
         25    1    4    4    0    0 -0.21730867359E+02  0.82675078538E+01  0.34174706359E+03  0.36466305797E+03  0.12509000000E+03 0.  0.
         25    1    4    4    0    0 -0.78648065934E+02 -0.17381393934E+01  0.24667040621E+03  0.28754536478E+03  0.12509000000E+03 0.  0.
         25    1    3    3    0    0  0.10037893329E+03 -0.65293684604E+01  0.19039678567E+03  0.24903214049E+03  0.12509000000E+03 0.  0.
<mgrwt>
<rscale>  2 0.45352278E+03</rscale>
<asrwt>0</asrwt>
<pdfrwt beam="1">  1       21 0.12353344E+00 0.45352278E+03</pdfrwt>
<pdfrwt beam="2">  1       21 0.90019349E-02 0.45352278E+03</pdfrwt>
<totfact> 0.43683135E+04</totfact>
</mgrwt>
</event>
<event>
 7    0  0.4712189E-002  0.4482727E+03  0.7546771E-02  0.1028238E+00
         21   -1    0    0  502  501  0.00000000000E+00  0.00000000000E+00  0.69345216464E+03  0.69345216464E+03  0.00000000000E+00 0. -1.
         21   -1    0    0  501  502 -0.00000000000E+00 -0.00000000000E+00 -0.72444945432E+02  0.72444945432E+02  0.00000000000E+00 0. -1.
      99926    2    1    2    0    0  0.00000000000E+00 -0.71054273576E-14  0.62100721920E+03  0.76589711007E+03  0.44827270373E+03 0.  0.
      99925    2    3    3    0    0  0.64327346827E+02  0.37083488609E+02  0.52415783009E+03  0.59113869125E+03  0.26304054586E+03 0.  0.
         25    1    4    4    0    0 -0.92979344584E+01  0.22515106332E+02  0.24539950856E+03  0.27651728427E+03  0.12509000000E+03 0.  0.
         25    1    3    3    0    0 -0.64327346827E+02 -0.37083488609E+02  0.96849389115E+02  0.17475841882E+03  0.12509000000E+03 0.  0.
         25    1    4    4    0    0  0.73625281285E+02  0.14568382276E+02  0.27875832153E+03  0.31462140698E+03  0.12509000000E+03 0.  0.
<mgrwt>
<rscale>  2 0.44827270E+03</rscale>
<asrwt>0</asrwt>
<pdfrwt beam="1">  1       21 0.10197826E+00 0.44827270E+03</pdfrwt>
<pdfrwt beam="2">  1       21 0.10653669E-01 0.44827270E+03</pdfrwt>
<totfact> 0.52159037E+04</totfact>
</mgrwt>
</event>
<event>
 7    0  0.4712189E-002  0.4521035E+03  0.7546771E-02  0.1027097E+00
         21   -1    0    0  502  501  0.00000000000E+00  0.00000000000E+00  0.13221581561E+03  0.13221581561E+03  0.00000000000E+00 0. -1.
         21   -1    0    0  501  502 -0.00000000000E+00 -0.00000000000E+00 -0.38648477269E+03  0.38648477269E+03  0.00000000000E+00 0. -1.
      99926    2    1    2    0    0  0.00000000000E+00  0.00000000000E+00 -0.25426895708E+03  0.51870058830E+03  0.45210352550E+03 0.  0.
      99925    2    3    3    0    0  0.63679479239E+02 -0.43173379263E+02 -0.25137088681E+03  0.37181653994E+03  0.26294714276E+03 0.  0.
         25    1    4    4    0    0  0.54409580411E+02 -0.16295260266E+02 -0.17514927167E+03  0.22259989536E+03  0.12509000000E+03 0.  0.
         25    1    4    4    0    0  0.92698988281E+01 -0.26878118997E+02 -0.76221615137E+02  0.14921664458E+03  0.12509000000E+03 0.  0.
         25    1    3    3    0    0 -0.63679479239E+02  0.43173379263E+02 -0.28980702755E+01  0.14688404837E+03  0.12509000000E+03 0.  0.
<mgrwt>
<rscale>  2 0.45210353E+03</rscale>
<asrwt>0</asrwt>
<pdfrwt beam="1">  1       21 0.19443502E-01 0.45210353E+03</pdfrwt>
<pdfrwt beam="2">  1       21 0.56835996E-01 0.45210353E+03</pdfrwt>
<totfact> 0.65467413E+04</totfact>
</mgrwt>
</event>
<event>
 7    0  0.4712189E-002  0.4565893E+03  0.7546771E-02  0.1025775E+00
         21   -1    0    0  502  501  0.00000000000E+00  0.00000000000E+00  0.15188058380E+03  0.15188058380E+03  0.00000000000E+00 0.  1.
         21   -1    0    0  501  502 -0.00000000000E+00 -0.00000000000E+00 -0.34315414639E+03  0.34315414639E+03  0.00000000000E+00 0.  1.
      99926    2    1    2    0    0  0.00000000000E+00  0.00000000000E+00 -0.19127356259E+03  0.49503473020E+03  0.45658932133E+03 0.  0.
      99925    2    3    3    0    0 -0.11188497884E+03 -0.18025870278E+02 -0.13902628141E+03  0.31834158664E+03  0.26300166991E+03 0.  0.
         25    1    4    4    0    0 -0.68147454580E+02  0.17345974076E+00 -0.29523661881E+02  0.14547597865E+03  0.12509000000E+03 0.  0.
         25    1    4    4    0    0 -0.43737524257E+02 -0.18199330019E+02 -0.10950261953E+03  0.17286560799E+03  0.12509000000E+03 0.  0.
         25    1    3    3    0    0  0.11188497884E+03  0.18025870278E+02 -0.52247281183E+02  0.17669314356E+03  0.12509000000E+03 0.  0.
<mgrwt>
<rscale>  2 0.45658932E+03</rscale>
<asrwt>0</asrwt>
<pdfrwt beam="1">  1       21 0.22335380E-01 0.45658932E+03</pdfrwt>
<pdfrwt beam="2">  1       21 0.50463844E-01 0.45658932E+03</pdfrwt>
<totfact> 0.64799468E+04</totfact>
</mgrwt>
</event>
<event>
 7    0  0.4712189E-002  0.4581041E+03  0.7546771E-02  0.1025333E+00
         21   -1    0    0  502  501  0.00000000000E+00  0.00000000000E+00  0.19354995047E+03  0.19354995047E+03  0.00000000000E+00 0.  1.
         21   -1    0    0  501  502 -0.00000000000E+00 -0.00000000000E+00 -0.27106618280E+03  0.27106618280E+03  0.00000000000E+00 0.  1.
      99926    2    1    2    0    0  0.00000000000E+00  0.00000000000E+00 -0.77516232330E+02  0.46461613326E+03  0.45810412028E+03 0.  0.
      99925    2    3    3    0    0 -0.80685727093E+02  0.81807230378E+02 -0.64921922226E+02  0.29429662691E+03  0.26304569779E+03 0.  0.
         25    1    4    4    0    0 -0.24910276485E+02  0.30274978484E+02 -0.68519389723E+02  0.14791724397E+03  0.12509000000E+03 0.  0.
         25    1    4    4    0    0 -0.55775450608E+02  0.51532251894E+02  0.35974674966E+01  0.14637938293E+03  0.12509000000E+03 0.  0.
         25    1    3    3    0    0  0.80685727093E+02 -0.81807230378E+02 -0.12594310104E+02  0.17031950636E+03  0.12509000000E+03 0.  0.
<mgrwt>
<rscale>  2 0.45810412E+03</rscale>
<asrwt>0</asrwt>
<pdfrwt beam="1">  1       21 0.28463228E-01 0.45810412E+03</pdfrwt>
<pdfrwt beam="2">  1       21 0.39862674E-01 0.45810412E+03</pdfrwt>
<totfact> 0.66190164E+04</totfact>
</mgrwt>
</event>
<event>
 7    0  0.4712189E-002  0.4529415E+03  0.7546771E-02  0.1026848E+00
         21   -1    0    0  502  501  0.00000000000E+00  0.00000000000E+00  0.29926212580E+03  0.29926212580E+03  0.00000000000E+00 0.  1.
         21   -1    0    0  501  502 -0.00000000000E+00 -0.00000000000E+00 -0.17138486535E+03  0.17138486535E+03  0.00000000000E+00 0.  1.
      99926    2    1    2    0    0  0.00000000000E+00  0.00000000000E+00  0.12787726044E+03  0.47064699115E+03  0.45294149351E+03 0.  0.
      99925    2    3    3    0    0 -0.77745118870E+02  0.67090924639E+02  0.12522307661E+03  0.30878270087E+03  0.26290766775E+03 0.  0.
         25    1    4    4    0    0 -0.44824033599E+02 -0.53275516123E+01  0.46118590230E+02  0.14075513937E+03  0.12509000000E+03 0.  0.
         25    1    4    4    0    0 -0.32921085271E+02  0.72418476251E+02  0.79104486381E+02  0.16802756150E+03  0.12509000000E+03 0.  0.
         25    1    3    3    0    0  0.77745118870E+02 -0.67090924639E+02  0.26541838331E+01  0.16186429028E+03  0.12509000000E+03 0.  0.
<mgrwt>
<rscale>  2 0.45294149E+03</rscale>
<asrwt>0</asrwt>
<pdfrwt beam="1">  1       21 0.44009136E-01 0.45294149E+03</pdfrwt>
<pdfrwt beam="2">  1       21 0.25203657E-01 0.45294149E+03</pdfrwt>
<totfact> 0.68499552E+04</totfact>
</mgrwt>
</event>
<event>
 7    0  0.4712189E-002  0.4537508E+03  0.7546771E-02  0.1026609E+00
         21   -1    0    0  502  501  0.00000000000E+00  0.00000000000E+00  0.20834313509E+03  0.20834313509E+03  0.00000000000E+00 0.  1.
         21   -1    0    0  501  502 -0.00000000000E+00 -0.00000000000E+00 -0.24705610513E+03  0.24705610513E+03  0.00000000000E+00 0.  1.
      99926    2    1    2    0    0 -0.71054273576E-14  0.00000000000E+00 -0.38712970047E+02  0.45539924022E+03  0.45375078396E+03 0.  0.
      99925    2    3    3    0    0  0.58781810820E+02  0.60103250945E+02  0.50146389271E+02  0.28043868496E+03  0.26279934096E+03 0.  0.
         25    1    4    4    0    0  0.68553818122E+02  0.20649296580E+02  0.20131139385E+02  0.14552934516E+03  0.12509000000E+03 0.  0.
         25    1    4    4    0    0 -0.97720073015E+01  0.39453954365E+02  0.30015249886E+02  0.13490933981E+03  0.12509000000E+03 0.  0.
         25    1    3    3    0    0 -0.58781810820E+02 -0.60103250945E+02 -0.88859359318E+02  0.17496055526E+03  0.12509000000E+03 0.  0.
<mgrwt>
<rscale>  2 0.45375078E+03</rscale>
<asrwt>0</asrwt>
<pdfrwt beam="1">  1       21 0.30638697E-01 0.45375078E+03</pdfrwt>
<pdfrwt beam="2">  1       21 0.36331780E-01 0.45375078E+03</pdfrwt>
<totfact> 0.69203772E+04</totfact>
</mgrwt>
</event>
<event>
 7    0  0.4712189E-002  0.4525308E+03  0.7546771E-02  0.1026970E+00
         21   -1    0    0  502  501  0.00000000000E+00  0.00000000000E+00  0.14063435461E+03  0.14063435461E+03  0.00000000000E+00 0.  1.
         21   -1    0    0  501  502 -0.00000000000E+00 -0.00000000000E+00 -0.36403643148E+03  0.36403643148E+03  0.00000000000E+00 0.  1.
      99926    2    1    2    0    0  0.00000000000E+00  0.00000000000E+00 -0.22340207686E+03  0.50467078609E+03  0.45253078833E+03 0.  0.
      99925    2    3    3    0    0  0.97502673141E+02  0.29456057643E+01 -0.82303392719E+02  0.29236959761E+03  0.26304122356E+03 0.  0.
         25    1    4    4    0    0  0.36594076158E+02  0.39094487467E+02 -0.50534770982E+02  0.14515087509E+03  0.12509000000E+03 0.  0.
         25    1    3    3    0    0 -0.97502673141E+02 -0.29456057643E+01 -0.14109868414E+03  0.21230118848E+03  0.12509000000E+03 0.  0.
         25    1    4    4    0    0  0.60908596983E+02 -0.36148881703E+02 -0.31768621737E+02  0.14721872252E+03  0.12509000000E+03 0.  0.
<mgrwt>
<rscale>  2 0.45253079E+03</rscale>
<asrwt>0</asrwt>
<pdfrwt beam="1">  1       21 0.20681523E-01 0.45253079E+03</pdfrwt>
<pdfrwt beam="2">  1       21 0.53534769E-01 0.45253079E+03</pdfrwt>
<totfact> 0.66232312E+04</totfact>
</mgrwt>
</event>
<event>
 7    0  0.4712189E-002  0.4239524E+03  0.7546771E-02  0.1035788E+00
         21   -1    0    0  502  501  0.00000000000E+00  0.00000000000E+00  0.24125918153E+03  0.24125918153E+03  0.00000000000E+00 0. -1.
         21   -1    0    0  501  502 -0.00000000000E+00 -0.00000000000E+00 -0.18624746329E+03  0.18624746329E+03  0.00000000000E+00 0. -1.
      99926    2    1    2    0    0  0.00000000000E+00  0.00000000000E+00  0.55011718240E+02  0.42750664483E+03  0.42395240562E+03 0.  0.
      99925    2    3    3    0    0 -0.37778735820E+02 -0.70627628909E+02  0.26014463977E+02  0.27616648591E+03  0.26301270076E+03 0.  0.
         25    1    4    4    0    0 -0.57993161996E+02 -0.46859974601E+02  0.21145653201E+02  0.14715199899E+03  0.12509000000E+03 0.  0.
         25    1    4    4    0    0  0.20214426176E+02 -0.23767654308E+02  0.48688107757E+01  0.12901448692E+03  0.12509000000E+03 0.  0.
         25    1    3    3    0    0  0.37778735820E+02  0.70627628909E+02  0.28997254262E+02  0.15134015891E+03  0.12509000000E+03 0.  0.
<mgrwt>
<rscale>  2 0.42395241E+03</rscale>
<asrwt>0</asrwt>
<pdfrwt beam="1">  1       21 0.35479291E-01 0.42395241E+03</pdfrwt>
<pdfrwt beam="2">  1       21 0.27389333E-01 0.42395241E+03</pdfrwt>
<totfact> 0.91188081E+04</totfact>
</mgrwt>
</event>
<event>
 7    0  0.4712189E-002  0.4590953E+03  0.7546771E-02  0.1025044E+00
         21   -1    0    0  502  501  0.00000000000E+00  0.00000000000E+00  0.87505202397E+03  0.87505202397E+03  0.00000000000E+00 0.  1.
         21   -1    0    0  501  502 -0.00000000000E+00 -0.00000000000E+00 -0.60215993532E+02  0.60215993532E+02  0.00000000000E+00 0.  1.
      99926    2    1    2    0    0  0.00000000000E+00  0.00000000000E+00  0.81483603044E+03  0.93526801751E+03  0.45909531479E+03 0.  0.
      99925    2    3    3    0    0  0.66080226354E+02 -0.96354349578E+02  0.52280055369E+03  0.59676693216E+03  0.26298211990E+03 0.  0.
         25    1    3    3    0    0 -0.66080226354E+02  0.96354349578E+02  0.29203547675E+03  0.33850108535E+03  0.12509000000E+03 0.  0.
         25    1    4    4    0    0  0.14092407124E+02 -0.43040505507E+02  0.17577705209E+03  0.22044537009E+03  0.12509000000E+03 0.  0.
         25    1    4    4    0    0  0.51987819230E+02 -0.53313844071E+02  0.34702350159E+03  0.37632156207E+03  0.12509000000E+03 0.  0.
<mgrwt>
<rscale>  2 0.45909531E+03</rscale>
<asrwt>0</asrwt>
<pdfrwt beam="1">  1       21 0.12868411E+00 0.45909531E+03</pdfrwt>
<pdfrwt beam="2">  1       21 0.88552937E-02 0.45909531E+03</pdfrwt>
<totfact> 0.40432510E+04</totfact>
</mgrwt>
</event>
<event>
 7    0  0.4712189E-002  0.4593977E+03  0.7546771E-02  0.1024956E+00
         21   -1    0    0  502  501  0.00000000000E+00  0.00000000000E+00  0.18668746048E+02  0.18668746048E+02  0.00000000000E+00 0. -1.
         21   -1    0    0  501  502 -0.00000000000E+00 -0.00000000000E+00 -0.28261970868E+04  0.28261970868E+04  0.00000000000E+00 0. -1.
      99926    2    1    2    0    0  0.00000000000E+00  0.00000000000E+00 -0.28075283407E+04  0.28448658328E+04  0.45939767389E+03 0.  0.
      99925    2    3    3    0    0 -0.20912502456E+02  0.69937981975E+02 -0.12011100086E+04  0.12319318540E+04  0.26393595076E+03 0.  0.
         25    1    3    3    0    0  0.20912502456E+02 -0.69937981975E+02 -0.16064183322E+04  0.16129339788E+04  0.12509000000E+03 0.  0.
         25    1    4    4    0    0 -0.14292687268E+02 -0.82449803886E+01 -0.54830891223E+03  0.56263881127E+03  0.12509000000E+03 0.  0.
         25    1    4    4    0    0 -0.66198151877E+01  0.78182962364E+02 -0.65280109633E+03  0.66929304272E+03  0.12509000000E+03 0.  0.
<mgrwt>
<rscale>  2 0.45939767E+03</rscale>
<asrwt>0</asrwt>
<pdfrwt beam="1">  1       21 0.27454029E-02 0.45939767E+03</pdfrwt>
<pdfrwt beam="2">  1       21 0.41561735E+00 0.45939767E+03</pdfrwt>
<totfact> 0.40669365E+03</totfact>
</mgrwt>
</event>
<event>
 7    0  0.4712189E-002  0.4568771E+03  0.7546771E-02  0.1025691E+00
         21   -1    0    0  502  501  0.00000000000E+00  0.00000000000E+00  0.15369036501E+03  0.15369036501E+03  0.00000000000E+00 0. -1.
         21   -1    0    0  501  502 -0.00000000000E+00 -0.00000000000E+00 -0.33954096930E+03  0.33954096930E+03  0.00000000000E+00 0. -1.
      99926    2    1    2    0    0 -0.14210854715E-13 -0.17763568394E-14 -0.18585060429E+03  0.49323133431E+03  0.45687711918E+03 0.  0.
      99925    2    3    3    0    0 -0.11350591827E+03  0.12420760161E+02 -0.13299800861E+03  0.31580874912E+03  0.26269531203E+03 0.  0.
         25    1    4    4    0    0 -0.48504684924E+02 -0.16444351465E+02 -0.28943861900E+02  0.13823305103E+03  0.12509000000E+03 0.  0.
         25    1    3    3    0    0  0.11350591827E+03 -0.12420760161E+02 -0.52852595673E+02  0.17742258519E+03  0.12509000000E+03 0.  0.
         25    1    4    4    0    0 -0.65001233345E+02  0.28865111626E+02 -0.10405414671E+03  0.17757569809E+03  0.12509000000E+03 0.  0.
<mgrwt>
<rscale>  2 0.45687712E+03</rscale>
<asrwt>0</asrwt>
<pdfrwt beam="1">  1       21 0.22601525E-01 0.45687712E+03</pdfrwt>
<pdfrwt beam="2">  1       21 0.49932495E-01 0.45687712E+03</pdfrwt>
<totfact> 0.64778133E+04</totfact>
</mgrwt>
</event>
<event>
 7    0  0.4712189E-002  0.4317611E+03  0.7546771E-02  0.1033305E+00
         21   -1    0    0  502  501  0.00000000000E+00  0.00000000000E+00  0.11869701686E+04  0.11869701686E+04  0.00000000000E+00 0.  1.
         21   -1    0    0  501  502 -0.00000000000E+00 -0.00000000000E+00 -0.39263333271E+02  0.39263333271E+02  0.00000000000E+00 0.  1.
      99926    2    1    2    0    0  0.00000000000E+00  0.00000000000E+00  0.11477068353E+04  0.12262335019E+04  0.43176106963E+03 0.  0.
      99925    2    3    3    0    0 -0.39080737500E+02  0.80289866460E+02  0.71415246944E+03  0.76624365092E+03  0.26294831482E+03 0.  0.
         25    1    4    4    0    0 -0.18592493415E+02  0.40924441883E+02  0.46893405444E+03  0.48740860299E+03  0.12509000000E+03 0.  0.
         25    1    3    3    0    0  0.39080737500E+02 -0.80289866460E+02  0.43355436589E+03  0.45998985095E+03  0.12509000000E+03 0.  0.
         25    1    4    4    0    0 -0.20488244084E+02  0.39365424577E+02  0.24521841500E+03  0.27883504793E+03  0.12509000000E+03 0.  0.
<mgrwt>
<rscale>  2 0.43176107E+03</rscale>
<asrwt>0</asrwt>
<pdfrwt beam="1">  1       21 0.17455441E+00 0.43176107E+03</pdfrwt>
<pdfrwt beam="2">  1       21 0.57740204E-02 0.43176107E+03</pdfrwt>
<totfact> 0.37707555E+04</totfact>
</mgrwt>
</event>
<event>
 7    0  0.4712189E-002  0.4524946E+03  0.7546771E-02  0.1026981E+00
         21   -1    0    0  502  501  0.00000000000E+00  0.00000000000E+00  0.80073904785E+02  0.80073904785E+02  0.00000000000E+00 0. -1.
         21   -1    0    0  501  502 -0.00000000000E+00 -0.00000000000E+00 -0.63925753809E+03  0.63925753809E+03  0.00000000000E+00 0. -1.
      99926    2    1    2    0    0  0.00000000000E+00 -0.17763568394E-14 -0.55918363331E+03  0.71933144288E+03  0.45249462865E+03 0.  0.
      99925    2    3    3    0    0 -0.10619804743E+02 -0.69047407489E+01 -0.52766573921E+03  0.58971145428E+03  0.26299812028E+03 0.  0.
         25    1    4    4    0    0 -0.92410504202E+01  0.33718300598E+02 -0.22692343773E+03  0.26146524721E+03  0.12509000000E+03 0.  0.
         25    1    4    4    0    0 -0.13787543227E+01 -0.40623041347E+02 -0.30074230148E+03  0.32824620706E+03  0.12509000000E+03 0.  0.
         25    1    3    3    0    0  0.10619804743E+02  0.69047407489E+01 -0.31517894098E+02  0.12961998861E+03  0.12509000000E+03 0.  0.
<mgrwt>
<rscale>  2 0.45249463E+03</rscale>
<asrwt>0</asrwt>
<pdfrwt beam="1">  1       21 0.11775574E-01 0.45249463E+03</pdfrwt>
<pdfrwt beam="2">  1       21 0.94008462E-01 0.45249463E+03</pdfrwt>
<totfact> 0.52900764E+04</totfact>
</mgrwt>
</event>
<event>
 7    0  0.4712189E-002  0.4566387E+03  0.7546771E-02  0.1025761E+00
         21   -1    0    0  502  501  0.00000000000E+00  0.00000000000E+00  0.24425540059E+03  0.24425540059E+03  0.00000000000E+00 0.  1.
         21   -1    0    0  501  502 -0.00000000000E+00 -0.00000000000E+00 -0.21342302960E+03  0.21342302960E+03  0.00000000000E+00 0.  1.
      99926    2    1    2    0    0  0.00000000000E+00  0.44408920985E-15  0.30832370989E+02  0.45767843020E+03  0.45663870879E+03 0.  0.
      99925    2    3    3    0    0  0.11439006413E+03 -0.33537404861E+01  0.10576375314E+02  0.28693257283E+03  0.26291083524E+03 0.  0.
         25    1    4    4    0    0  0.21455607951E+02  0.20386963387E+02  0.13681200419E+02  0.12926969766E+03  0.12509000000E+03 0.  0.
         25    1    3    3    0    0 -0.11439006413E+03  0.33537404861E+01  0.20255995675E+02  0.17074585737E+03  0.12509000000E+03 0.  0.
         25    1    4    4    0    0  0.92934456184E+02 -0.23740703873E+02 -0.31048251054E+01  0.15766287517E+03  0.12509000000E+03 0.  0.
<mgrwt>
<rscale>  2 0.45663871E+03</rscale>
<asrwt>0</asrwt>
<pdfrwt beam="1">  1       21 0.35919912E-01 0.45663871E+03</pdfrwt>
<pdfrwt beam="2">  1       21 0.31385740E-01 0.45663871E+03</pdfrwt>
<totfact> 0.67463649E+04</totfact>
</mgrwt>
</event>
<event>
 7    0  0.4712189E-002  0.4467621E+03  0.7546771E-02  0.1028692E+00
         21   -1    0    0  502  501  0.00000000000E+00  0.00000000000E+00  0.68666416820E+02  0.68666416820E+02  0.00000000000E+00 0. -1.
         21   -1    0    0  501  502 -0.00000000000E+00 -0.00000000000E+00 -0.72668845920E+03  0.72668845920E+03  0.00000000000E+00 0. -1.
      99926    2    1    2    0    0  0.00000000000E+00 -0.44408920985E-15 -0.65802204238E+03  0.79535487602E+03  0.44676209614E+03 0.  0.
      99925    2    3    3    0    0 -0.51100480326E+02 -0.22188118541E+01 -0.25129898810E+03  0.36676727331E+03  0.26220386941E+03 0.  0.
         25    1    4    4    0    0  0.10789036052E+02  0.12287870666E+02 -0.13203468873E+03  0.18261451802E+03  0.12509000000E+03 0.  0.
         25    1    4    4    0    0 -0.61889516378E+02 -0.14506682520E+02 -0.11926429937E+03  0.18415275529E+03  0.12509000000E+03 0.  0.
         25    1    3    3    0    0  0.51100480326E+02  0.22188118541E+01 -0.40672305428E+03  0.42858760271E+03  0.12509000000E+03 0.  0.
<mgrwt>
<rscale>  2 0.44676210E+03</rscale>
<asrwt>0</asrwt>
<pdfrwt beam="1">  1       21 0.10098002E-01 0.44676210E+03</pdfrwt>
<pdfrwt beam="2">  1       21 0.10686596E+00 0.44676210E+03</pdfrwt>
<totfact> 0.51222550E+04</totfact>
</mgrwt>
</event>
<event>
 7    0  0.4712189E-002  0.4579337E+03  0.7546771E-02  0.1025382E+00
         21   -1    0    0  502  501  0.00000000000E+00  0.00000000000E+00  0.44612304298E+03  0.44612304298E+03  0.00000000000E+00 0. -1.
         21   -1    0    0  501  502 -0.00000000000E+00 -0.00000000000E+00 -0.11751423838E+03  0.11751423838E+03  0.00000000000E+00 0. -1.
      99926    2    1    2    0    0  0.00000000000E+00  0.00000000000E+00  0.32860880459E+03  0.56363728136E+03  0.45793366166E+03 0.  0.
      99925    2    3    3    0    0 -0.94943432408E+02 -0.66529098123E+02  0.20853485082E+03  0.35505722783E+03  0.26294196085E+03 0.  0.
         25    1    3    3    0    0  0.94943432408E+02  0.66529098123E+02  0.12007395377E+03  0.20858005352E+03  0.12509000000E+03 0.  0.
         25    1    4    4    0    0 -0.30489009672E+02 -0.68737109764E+00  0.68210407624E+02  0.14570593673E+03  0.12509000000E+03 0.  0.
         25    1    4    4    0    0 -0.64454422737E+02 -0.65841727025E+02  0.14032444320E+03  0.20935129110E+03  0.12509000000E+03 0.  0.
<mgrwt>
<rscale>  2 0.45793366E+03</rscale>
<asrwt>0</asrwt>
<pdfrwt beam="1">  1       21 0.65606329E-01 0.45793366E+03</pdfrwt>
<pdfrwt beam="2">  1       21 0.17281506E-01 0.45793366E+03</pdfrwt>
<totfact> 0.59579740E+04</totfact>
</mgrwt>
</event>
<event>
 7    0  0.4712189E-002  0.4442135E+03  0.7546771E-02  0.1029462E+00
         21   -1    0    0  502  501  0.00000000000E+00  0.00000000000E+00  0.13871066712E+03  0.13871066712E+03  0.00000000000E+00 0. -1.
         21   -1    0    0  501  502 -0.00000000000E+00 -0.00000000000E+00 -0.35564248583E+03  0.35564248583E+03  0.00000000000E+00 0. -1.
      99926    2    1    2    0    0  0.00000000000E+00  0.00000000000E+00 -0.21693181871E+03  0.49435315296E+03  0.44421349132E+03 0.  0.
      99925    2    3    3    0    0  0.23437142697E+02  0.99817849500E+02 -0.13048963082E+03  0.31096105202E+03  0.26297591028E+03 0.  0.
         25    1    4    4    0    0  0.10927604812E+02  0.85826373804E+02 -0.95980004334E+02  0.17984784769E+03  0.12509000000E+03 0.  0.
         25    1    3    3    0    0 -0.23437142697E+02 -0.99817849500E+02 -0.86442187892E+02  0.18339210093E+03  0.12509000000E+03 0.  0.
         25    1    4    4    0    0  0.12509537885E+02  0.13991475696E+02 -0.34509626486E+02  0.13111320433E+03  0.12509000000E+03 0.  0.
<mgrwt>
<rscale>  2 0.44421349E+03</rscale>
<asrwt>0</asrwt>
<pdfrwt beam="1">  1       21 0.20398628E-01 0.44421349E+03</pdfrwt>
<pdfrwt beam="2">  1       21 0.52300365E-01 0.44421349E+03</pdfrwt>
<totfact> 0.71606753E+04</totfact>
</mgrwt>
</event>
<event>
 7    0  0.4712189E-002  0.4085511E+03  0.7546771E-02  0.1040858E+00
         21   -1    0    0  502  501  0.00000000000E+00  0.00000000000E+00  0.14112042873E+03  0.14112042873E+03  0.00000000000E+00 0. -1.
         21   -1    0    0  501  502 -0.00000000000E+00 -0.00000000000E+00 -0.29569424590E+03  0.29569424590E+03  0.00000000000E+00 0. -1.
      99926    2    1    2    0    0 -0.71054273576E-14 -0.26645352591E-14 -0.15457381718E+03  0.43681467463E+03  0.40855109230E+03 0.  0.
      99925    2    3    3    0    0 -0.57665857707E+02  0.21477397764E+01 -0.11972189618E+03  0.29471566539E+03  0.26304757568E+03 0.  0.
         25    1    3    3    0    0  0.57665857707E+02 -0.21477397764E+01 -0.34851920999E+02  0.14209900925E+03  0.12509000000E+03 0.  0.
         25    1    4    4    0    0 -0.25325071087E+02  0.33018448986E+02 -0.32424137061E+02  0.13575864600E+03  0.12509000000E+03 0.  0.
         25    1    4    4    0    0 -0.32340786620E+02 -0.30870709209E+02 -0.87297759116E+02  0.15895701939E+03  0.12509000000E+03 0.  0.
<mgrwt>
<rscale>  2 0.40855109E+03</rscale>
<asrwt>0</asrwt>
<pdfrwt beam="1">  1       21 0.20753005E-01 0.40855109E+03</pdfrwt>
<pdfrwt beam="2">  1       21 0.43484447E-01 0.40855109E+03</pdfrwt>
<totfact> 0.10303767E+05</totfact>
</mgrwt>
</event>
<event>
 7    0  0.4712189E-002  0.4621465E+03  0.7546771E-02  0.1024161E+00
         21   -1    0    0  502  501  0.00000000000E+00  0.00000000000E+00  0.19324360846E+04  0.19324360846E+04  0.00000000000E+00 0. -1.
         21   -1    0    0  501  502 -0.00000000000E+00 -0.00000000000E+00 -0.27630841734E+02  0.27630841734E+02  0.00000000000E+00 0. -1.
      99926    2    1    2    0    0  0.00000000000E+00  0.00000000000E+00  0.19048052429E+04  0.19600669264E+04  0.46214645132E+03 0.  0.
      99925    2    3    3    0    0 -0.87088049667E+02 -0.46962815680E+02  0.90366751046E+03  0.94630457657E+03  0.26284510216E+03 0.  0.
         25    1    4    4    0    0 -0.39810811605E+02 -0.46043322274E+02  0.57241680971E+03  0.58907843313E+03  0.12509000000E+03 0.  0.
         25    1    3    3    0    0  0.87088049667E+02  0.46962815680E+02  0.10011377325E+04  0.10137623498E+04  0.12509000000E+03 0.  0.
         25    1    4    4    0    0 -0.47277238062E+02 -0.91949340567E+00  0.33125070075E+03  0.35722614344E+03  0.12509000000E+03 0.  0.
<mgrwt>
<rscale>  2 0.46214645E+03</rscale>
<asrwt>0</asrwt>
<pdfrwt beam="1">  1       21 0.28418169E+00 0.46214645E+03</pdfrwt>
<pdfrwt beam="2">  1       21 0.40633604E-02 0.46214645E+03</pdfrwt>
<totfact> 0.13602755E+04</totfact>
</mgrwt>
</event>
<event>
 7    0  0.4712189E-002  0.4588553E+03  0.7546771E-02  0.1025114E+00
         21   -1    0    0  502  501  0.00000000000E+00  0.00000000000E+00  0.77172767878E+02  0.77172767878E+02  0.00000000000E+00 0.  1.
         21   -1    0    0  501  502 -0.00000000000E+00 -0.00000000000E+00 -0.68206765186E+03  0.68206765186E+03  0.00000000000E+00 0.  1.
      99926    2    1    2    0    0  0.00000000000E+00  0.14210854715E-13 -0.60489488398E+03  0.75924041974E+03  0.45885530867E+03 0.  0.
      99925    2    3    3    0    0  0.47480355038E+02 -0.10637688310E+03 -0.36623922544E+03  0.46568555804E+03  0.26298563334E+03 0.  0.
         25    1    4    4    0    0  0.28074077937E+02 -0.65858543106E+02 -0.25254950523E+03  0.29078215599E+03  0.12509000000E+03 0.  0.
         25    1    3    3    0    0 -0.47480355038E+02  0.10637688310E+03 -0.23865565855E+03  0.29355486170E+03  0.12509000000E+03 0.  0.
         25    1    4    4    0    0  0.19406277101E+02 -0.40518339991E+02 -0.11368972021E+03  0.17490340204E+03  0.12509000000E+03 0.  0.
<mgrwt>
<rscale>  2 0.45885531E+03</rscale>
<asrwt>0</asrwt>
<pdfrwt beam="1">  1       21 0.11348936E-01 0.45885531E+03</pdfrwt>
<pdfrwt beam="2">  1       21 0.10030407E+00 0.45885531E+03</pdfrwt>
<totfact> 0.48319677E+04</totfact>
</mgrwt>
</event>
<event>
 7    0  0.4712189E-002  0.4436390E+03  0.7546771E-02  0.1029636E+00
         21   -1    0    0  502  501  0.00000000000E+00  0.00000000000E+00  0.32953438300E+03  0.32953438300E+03  0.00000000000E+00 0. -1.
         21   -1    0    0  501  502 -0.00000000000E+00 -0.00000000000E+00 -0.14931337840E+03  0.14931337840E+03  0.00000000000E+00 0. -1.
      99926    2    1    2    0    0  0.35527136788E-14  0.14210854715E-13  0.18022100460E+03  0.47884776140E+03  0.44363900651E+03 0.  0.
      99925    2    3    3    0    0 -0.29903796625E+02 -0.87300485429E+02  0.16193692028E+03  0.32233122026E+03  0.26297953837E+03 0.  0.
         25    1    4    4    0    0 -0.13157378834E+02 -0.63652403788E+02  0.43189838121E+02  0.14743681814E+03  0.12509000000E+03 0.  0.
         25    1    3    3    0    0  0.29903796625E+02  0.87300485429E+02  0.18284084321E+02  0.15651654113E+03  0.12509000000E+03 0.  0.
         25    1    4    4    0    0 -0.16746417791E+02 -0.23648081641E+02  0.11874708216E+03  0.17489440212E+03  0.12509000000E+03 0.  0.
<mgrwt>
<rscale>  2 0.44363901E+03</rscale>
<asrwt>0</asrwt>
<pdfrwt beam="1">  1       21 0.48460939E-01 0.44363901E+03</pdfrwt>
<pdfrwt beam="2">  1       21 0.21957850E-01 0.44363901E+03</pdfrwt>
<totfact> 0.73163128E+04</totfact>
</mgrwt>
</event>
<event>
 7    0  0.4712189E-002  0.4559116E+03  0.7546771E-02  0.1025974E+00
         21   -1    0    0  502  501  0.00000000000E+00  0.00000000000E+00  0.19183198179E+03  0.19183198179E+03  0.00000000000E+00 0.  1.
         21   -1    0    0  501  502 -0.00000000000E+00 -0.00000000000E+00 -0.27088208886E+03  0.27088208886E+03  0.00000000000E+00 0.  1.
      99926    2    1    2    0    0  0.00000000000E+00  0.35527136788E-14 -0.79050107070E+02  0.46271407065E+03  0.45591160519E+03 0.  0.
      99925    2    3    3    0    0  0.11175147757E+03 -0.18593551326E+02 -0.63057171549E+02  0.29319299533E+03  0.26296732257E+03 0.  0.
         25    1    3    3    0    0 -0.11175147757E+03  0.18593551326E+02 -0.15992935521E+02  0.16952107531E+03  0.12509000000E+03 0.  0.
         25    1    4    4    0    0  0.37501808690E+02 -0.45689279742E+02 -0.29196972163E+02  0.14139967193E+03  0.12509000000E+03 0.  0.
         25    1    4    4    0    0  0.74249668877E+02  0.27095728415E+02 -0.33860199387E+02  0.15179332340E+03  0.12509000000E+03 0.  0.
<mgrwt>
<rscale>  2 0.45591161E+03</rscale>
<asrwt>0</asrwt>
<pdfrwt beam="1">  1       21 0.28210585E-01 0.45591161E+03</pdfrwt>
<pdfrwt beam="2">  1       21 0.39835601E-01 0.45591161E+03</pdfrwt>
<totfact> 0.67489720E+04</totfact>
</mgrwt>
</event>
<event>
 7    0  0.4712189E-002  0.4164036E+03  0.7546771E-02  0.1038243E+00
         21   -1    0    0  502  501  0.00000000000E+00  0.00000000000E+00  0.10393215592E+03  0.10393215592E+03  0.00000000000E+00 0. -1.
         21   -1    0    0  501  502 -0.00000000000E+00 -0.00000000000E+00 -0.41707969048E+03  0.41707969048E+03  0.00000000000E+00 0. -1.
      99926    2    1    2    0    0 -0.35527136788E-14  0.17763568394E-14 -0.31314753456E+03  0.52101184640E+03  0.41640360912E+03 0.  0.
      99925    2    3    3    0    0  0.31551692898E+02 -0.70234403300E+01 -0.28424677058E+03  0.38862000263E+03  0.26302935543E+03 0.  0.
         25    1    4    4    0    0 -0.43311291102E+01 -0.20257981624E+02 -0.18564920065E+03  0.22481609885E+03  0.12509000000E+03 0.  0.
         25    1    3    3    0    0 -0.31551692898E+02  0.70234403300E+01 -0.28900763978E+02  0.13239184377E+03  0.12509000000E+03 0.  0.
         25    1    4    4    0    0  0.35882822008E+02  0.13234541294E+02 -0.98597569929E+02  0.16380390378E+03  0.12509000000E+03 0.  0.
<mgrwt>
<rscale>  2 0.41640361E+03</rscale>
<asrwt>0</asrwt>
<pdfrwt beam="1">  1       21 0.15284141E-01 0.41640361E+03</pdfrwt>
<pdfrwt beam="2">  1       21 0.61335248E-01 0.41640361E+03</pdfrwt>
<totfact> 0.87708802E+04</totfact>
</mgrwt>
</event>
<event>
 7    0  0.4712189E-002  0.4599978E+03  0.7546771E-02  0.1024782E+00
         21   -1    0    0  502  501  0.00000000000E+00  0.00000000000E+00  0.13448078409E+03  0.13448078409E+03  0.00000000000E+00 0.  1.
         21   -1    0    0  501  502 -0.00000000000E+00 -0.00000000000E+00 -0.39336102810E+03  0.39336102810E+03  0.00000000000E+00 0.  1.
      99926    2    1    2    0    0  0.00000000000E+00 -0.35527136788E-14 -0.25888024401E+03  0.52784181219E+03  0.45999782386E+03 0.  0.
      99925    2    3    3    0    0 -0.17054506479E+02  0.23846276978E+02 -0.29315300203E+03  0.39486951749E+03  0.26291396335E+03 0.  0.
         25    1    4    4    0    0  0.10418995372E+02  0.29144587399E+02 -0.10026373769E+03  0.16327365873E+03  0.12509000000E+03 0.  0.
         25    1    4    4    0    0 -0.27473501850E+02 -0.52983104211E+01 -0.19288926434E+03  0.23159585876E+03  0.12509000000E+03 0.  0.
         25    1    3    3    0    0  0.17054506479E+02 -0.23846276978E+02  0.34272758018E+02  0.13297229470E+03  0.12509000000E+03 0.  0.
<mgrwt>
<rscale>  2 0.45999782E+03</rscale>
<asrwt>0</asrwt>
<pdfrwt beam="1">  1       21 0.19776586E-01 0.45999782E+03</pdfrwt>
<pdfrwt beam="2">  1       21 0.57847209E-01 0.45999782E+03</pdfrwt>
<totfact> 0.60903893E+04</totfact>
</mgrwt>
</event>
<event>
 7    0  0.4712189E-002  0.4566353E+03  0.7546771E-02  0.1025762E+00
         21   -1    0    0  502  501  0.00000000000E+00  0.00000000000E+00  0.22237138437E+03  0.22237138437E+03  0.00000000000E+00 0.  1.
         21   -1    0    0  501  502 -0.00000000000E+00 -0.00000000000E+00 -0.23442288369E+03  0.23442288369E+03  0.00000000000E+00 0.  1.
      99926    2    1    2    0    0 -0.17763568394E-14  0.00000000000E+00 -0.12051499322E+02  0.45679426806E+03  0.45663526441E+03 0.  0.
      99925    2    3    3    0    0  0.14737873674E+02  0.79685413617E+02  0.73655552750E+02  0.28486353510E+03  0.26297361676E+03 0.  0.
         25    1    4    4    0    0 -0.32544787414E+02  0.46577032934E+02  0.35029537502E+02  0.14178561204E+03  0.12509000000E+03 0.  0.
         25    1    3    3    0    0 -0.14737873674E+02 -0.79685413617E+02 -0.85707052072E+02  0.17193073297E+03  0.12509000000E+03 0.  0.
         25    1    4    4    0    0  0.47282661088E+02  0.33108380683E+02  0.38626015248E+02  0.14307792305E+03  0.12509000000E+03 0.  0.
<mgrwt>
<rscale>  2 0.45663526E+03</rscale>
<asrwt>0</asrwt>
<pdfrwt beam="1">  1       21 0.32701674E-01 0.45663526E+03</pdfrwt>
<pdfrwt beam="2">  1       21 0.34473953E-01 0.45663526E+03</pdfrwt>
<totfact> 0.67529145E+04</totfact>
</mgrwt>
</event>
<event>
 7    0  0.4712189E-002  0.4457615E+03  0.7546771E-02  0.1028994E+00
         21   -1    0    0  502  501  0.00000000000E+00  0.00000000000E+00  0.32954474505E+03  0.32954474505E+03  0.00000000000E+00 0.  1.
         21   -1    0    0  501  502 -0.00000000000E+00 -0.00000000000E+00 -0.15074077901E+03  0.15074077901E+03  0.00000000000E+00 0.  1.
      99926    2    1    2    0    0  0.00000000000E+00  0.00000000000E+00  0.17880396604E+03  0.48028552407E+03  0.44576151287E+03 0.  0.
      99925    2    3    3    0    0 -0.90424364884E+02  0.22245193812E+01  0.16903564648E+03  0.32561024350E+03  0.26318713236E+03 0.  0.
         25    1    4    4    0    0 -0.23060662616E+02 -0.27853344120E+02  0.56756287019E+02  0.14204361005E+03  0.12509000000E+03 0.  0.
         25    1    4    4    0    0 -0.67363702268E+02  0.30077863501E+02  0.11227935946E+03  0.18356663345E+03  0.12509000000E+03 0.  0.
         25    1    3    3    0    0  0.90424364884E+02 -0.22245193812E+01  0.97683195548E+01  0.15467528057E+03  0.12509000000E+03 0.  0.
<mgrwt>
<rscale>  2 0.44576151E+03</rscale>
<asrwt>0</asrwt>
<pdfrwt beam="1">  1       21 0.48462462E-01 0.44576151E+03</pdfrwt>
<pdfrwt beam="2">  1       21 0.22167762E-01 0.44576151E+03</pdfrwt>
<totfact> 0.71802483E+04</totfact>
</mgrwt>
</event>
<event>
 7    0  0.4712189E-002  0.4747558E+03  0.7546771E-02  0.1020586E+00
         21   -1    0    0  502  501  0.00000000000E+00  0.00000000000E+00  0.66477244740E+02  0.66477244740E+02  0.00000000000E+00 0. -1.
         21   -1    0    0  501  502 -0.00000000000E+00 -0.00000000000E+00 -0.84763237390E+03  0.84763237390E+03  0.00000000000E+00 0. -1.
      99926    2    1    2    0    0  0.17763568394E-14  0.00000000000E+00 -0.78115512916E+03  0.91410961864E+03  0.47475578888E+03 0.  0.
      99925    2    3    3    0    0  0.12908600015E+02  0.47187245776E+02 -0.71699546490E+03  0.76525654095E+03  0.26294830037E+03 0.  0.
         25    1    4    4    0    0  0.17013218240E+02  0.45105556499E+02 -0.46416326476E+03  0.48313456228E+03  0.12509000000E+03 0.  0.
         25    1    4    4    0    0 -0.41046182251E+01  0.20816892773E+01 -0.25283220014E+03  0.28212197867E+03  0.12509000000E+03 0.  0.
         25    1    3    3    0    0 -0.12908600015E+02 -0.47187245776E+02 -0.64159664260E+02  0.14885307768E+03  0.12509000000E+03 0.  0.
<mgrwt>
<rscale>  2 0.47475579E+03</rscale>
<asrwt>0</asrwt>
<pdfrwt beam="1">  1       21 0.97760660E-02 0.47475579E+03</pdfrwt>
<pdfrwt beam="2">  1       21 0.12465181E+00 0.47475579E+03</pdfrwt>
<totfact> 0.36627591E+04</totfact>
</mgrwt>
</event>
<event>
 7    0  0.4712189E-002  0.4614531E+03  0.7546771E-02  0.1024361E+00
         21   -1    0    0  502  501  0.00000000000E+00  0.00000000000E+00  0.12777281476E+03  0.12777281476E+03  0.00000000000E+00 0.  1.
         21   -1    0    0  501  502 -0.00000000000E+00 -0.00000000000E+00 -0.41663595506E+03  0.41663595506E+03  0.00000000000E+00 0.  1.
      99926    2    1    2    0    0  0.00000000000E+00  0.00000000000E+00 -0.28886314031E+03  0.54440876982E+03  0.46145313395E+03 0.  0.
      99925    2    3    3    0    0 -0.60055339157E+02  0.36849389444E+02 -0.29360495853E+03  0.40076158327E+03  0.26351746373E+03 0.  0.
         25    1    4    4    0    0 -0.63172274805E+02  0.20341204921E+02 -0.19290013626E+03  0.23929578264E+03  0.12509000000E+03 0.  0.
         25    1    3    3    0    0  0.60055339157E+02 -0.36849389444E+02  0.47418182246E+01  0.14364718655E+03  0.12509000000E+03 0.  0.
         25    1    4    4    0    0  0.31169356482E+01  0.16508184522E+02 -0.10070482227E+03  0.16146580063E+03  0.12509000000E+03 0.  0.
<mgrwt>
<rscale>  2 0.46145313E+03</rscale>
<asrwt>0</asrwt>
<pdfrwt beam="1">  1       21 0.18790120E-01 0.46145313E+03</pdfrwt>
<pdfrwt beam="2">  1       21 0.61269993E-01 0.46145313E+03</pdfrwt>
<totfact> 0.59157981E+04</totfact>
</mgrwt>
</event>
<event>
 7    0  0.4712189E-002  0.4594882E+03  0.7546771E-02  0.1024930E+00
         21   -1    0    0  502  501  0.00000000000E+00  0.00000000000E+00  0.68793130006E+02  0.68793130006E+02  0.00000000000E+00 0. -1.
         21   -1    0    0  501  502 -0.00000000000E+00 -0.00000000000E+00 -0.76726210251E+03  0.76726210251E+03  0.00000000000E+00 0. -1.
      99926    2    1    2    0    0  0.00000000000E+00 -0.14210854715E-13 -0.69846897251E+03  0.83605523252E+03  0.45948824388E+03 0.  0.
      99925    2    3    3    0    0 -0.90406462413E+02  0.72960266321E+02 -0.40882915476E+03  0.49984806271E+03  0.26307846568E+03 0.  0.
         25    1    3    3    0    0  0.90406462413E+02 -0.72960266321E+02 -0.28963981775E+03  0.33620716981E+03  0.12509000000E+03 0.  0.
         25    1    4    4    0    0 -0.64444758463E+02  0.75261086552E+02 -0.23702542999E+03  0.28573750297E+03  0.12509000000E+03 0.  0.
         25    1    4    4    0    0 -0.25961703950E+02 -0.23008202306E+01 -0.17180372477E+03  0.21411055974E+03  0.12509000000E+03 0.  0.
<mgrwt>
<rscale>  2 0.45948824E+03</rscale>
<asrwt>0</asrwt>
<pdfrwt beam="1">  1       21 0.10116637E-01 0.45948824E+03</pdfrwt>
<pdfrwt beam="2">  1       21 0.11283266E+00 0.45948824E+03</pdfrwt>
<totfact> 0.44482569E+04</totfact>
</mgrwt>
</event>
<event>
 7    0  0.4712189E-002  0.4763402E+03  0.7546771E-02  0.1020146E+00
         21   -1    0    0  502  501  0.00000000000E+00  0.00000000000E+00  0.36943184581E+03  0.36943184581E+03  0.00000000000E+00 0.  1.
         21   -1    0    0  501  502 -0.00000000000E+00 -0.00000000000E+00 -0.15354656009E+03  0.15354656009E+03  0.00000000000E+00 0.  1.
      99926    2    1    2    0    0  0.00000000000E+00  0.00000000000E+00  0.21588528572E+03  0.52297840589E+03  0.47634016883E+03 0.  0.
      99925    2    3    3    0    0  0.56238412903E+02 -0.23508412221E+02  0.47021000129E+01  0.27007278999E+03  0.26306234549E+03 0.  0.
         25    1    4    4    0    0  0.33807879100E+02  0.27082390656E+02  0.13136770389E+02  0.13302823538E+03  0.12509000000E+03 0.  0.
         25    1    4    4    0    0  0.22430533803E+02 -0.50590802878E+02 -0.84346703764E+01  0.13704455460E+03  0.12509000000E+03 0.  0.
         25    1    3    3    0    0 -0.56238412903E+02  0.23508412221E+02  0.21118318571E+03  0.25290561591E+03  0.12509000000E+03 0.  0.
<mgrwt>
<rscale>  2 0.47634017E+03</rscale>
<asrwt>0</asrwt>
<pdfrwt beam="1">  1       21 0.54328213E-01 0.47634017E+03</pdfrwt>
<pdfrwt beam="2">  1       21 0.22580376E-01 0.47634017E+03</pdfrwt>
<totfact> 0.53952154E+04</totfact>
</mgrwt>
</event>
<event>
 7    0  0.4712189E-002  0.4568202E+03  0.7546771E-02  0.1025707E+00
         21   -1    0    0  502  501  0.00000000000E+00  0.00000000000E+00  0.12774395454E+04  0.12774395454E+04  0.00000000000E+00 0. -1.
         21   -1    0    0  501  502 -0.00000000000E+00 -0.00000000000E+00 -0.40840431982E+02  0.40840431982E+02  0.00000000000E+00 0. -1.
      99926    2    1    2    0    0  0.00000000000E+00 -0.35527136788E-14  0.12365991134E+04  0.13182799774E+04  0.45682023977E+03 0.  0.
      99925    2    3    3    0    0 -0.11388934412E+03  0.10829443838E+02  0.75639283255E+03  0.80903186512E+03  0.26327624672E+03 0.  0.
         25    1    3    3    0    0  0.11388934412E+03 -0.10829443838E+02  0.48020628087E+03  0.50924811227E+03  0.12509000000E+03 0.  0.
         25    1    4    4    0    0 -0.85265233578E+02  0.28803500438E+02  0.34845491542E+03  0.38100936717E+03  0.12509000000E+03 0.  0.
         25    1    4    4    0    0 -0.28624110538E+02 -0.17974056599E+02  0.40793791713E+03  0.42802249795E+03  0.12509000000E+03 0.  0.
<mgrwt>
<rscale>  2 0.45682024E+03</rscale>
<asrwt>0</asrwt>
<pdfrwt beam="1">  1       21 0.18785873E+00 0.45682024E+03</pdfrwt>
<pdfrwt beam="2">  1       21 0.60059467E-02 0.45682024E+03</pdfrwt>
<totfact> 0.28187316E+04</totfact>
</mgrwt>
</event>
<event>
 7    0  0.4712189E-002  0.4553476E+03  0.7546771E-02  0.1026139E+00
         21   -1    0    0  502  501  0.00000000000E+00  0.00000000000E+00  0.81241404713E+03  0.81241404713E+03  0.00000000000E+00 0. -1.
         21   -1    0    0  501  502 -0.00000000000E+00 -0.00000000000E+00 -0.63804119727E+02  0.63804119727E+02  0.00000000000E+00 0. -1.
      99926    2    1    2    0    0  0.17763568394E-14  0.62172489379E-14  0.74860992741E+03  0.87621816686E+03  0.45534761724E+03 0.  0.
      99925    2    3    3    0    0  0.57715760038E+01  0.46674138703E+01  0.25310885278E+03  0.36511747336E+03  0.26304292835E+03 0.  0.
         25    1    3    3    0    0 -0.57715760038E+01 -0.46674138703E+01  0.49550107463E+03  0.51110069350E+03  0.12509000000E+03 0.  0.
         25    1    4    4    0    0 -0.15885713903E+02 -0.32299452910E+02  0.11171929681E+03  0.17153518573E+03  0.12509000000E+03 0.  0.
         25    1    4    4    0    0  0.21657289906E+02  0.36966866781E+02  0.14138955597E+03  0.19358228763E+03  0.12509000000E+03 0.  0.
<mgrwt>
<rscale>  2 0.45534762E+03</rscale>
<asrwt>0</asrwt>
<pdfrwt beam="1">  1       21 0.11947265E+00 0.45534762E+03</pdfrwt>
<pdfrwt beam="2">  1       21 0.93829592E-02 0.45534762E+03</pdfrwt>
<totfact> 0.44157590E+04</totfact>
</mgrwt>
</event>
<event>
 7    0  0.4712189E-002  0.4541780E+03  0.7546771E-02  0.1026483E+00
         21   -1    0    0  502  501  0.00000000000E+00  0.00000000000E+00  0.17545525317E+03  0.17545525317E+03  0.00000000000E+00 0.  1.
         21   -1    0    0  501  502 -0.00000000000E+00 -0.00000000000E+00 -0.29391780644E+03  0.29391780644E+03  0.00000000000E+00 0.  1.
      99926    2    1    2    0    0  0.00000000000E+00  0.35527136788E-14 -0.11846255328E+03  0.46937305961E+03  0.45417804060E+03 0.  0.
      99925    2    3    3    0    0 -0.10803309908E+03  0.31182281817E+02 -0.77365176014E+02  0.29622575899E+03  0.26290843393E+03 0.  0.
         25    1    4    4    0    0 -0.46421212243E+02 -0.19812860846E+02 -0.56704108232E+02  0.14632273368E+03  0.12509000000E+03 0.  0.
         25    1    3    3    0    0  0.10803309908E+03 -0.31182281817E+02 -0.41097377263E+02  0.17314730062E+03  0.12509000000E+03 0.  0.
         25    1    4    4    0    0 -0.61611886835E+02  0.50995142662E+02 -0.20661067782E+02  0.14990302531E+03  0.12509000000E+03 0.  0.
<mgrwt>
<rscale>  2 0.45417804E+03</rscale>
<asrwt>0</asrwt>
<pdfrwt beam="1">  1       21 0.25802243E-01 0.45417804E+03</pdfrwt>
<pdfrwt beam="2">  1       21 0.43223206E-01 0.45417804E+03</pdfrwt>
<totfact> 0.67924199E+04</totfact>
</mgrwt>
</event>
<event>
 7    0  0.4712189E-002  0.4356803E+03  0.7546771E-02  0.1032080E+00
         21   -1    0    0  502  501  0.00000000000E+00  0.00000000000E+00  0.17034032842E+03  0.17034032842E+03  0.00000000000E+00 0.  1.
         21   -1    0    0  501  502 -0.00000000000E+00 -0.00000000000E+00 -0.27858537992E+03  0.27858537992E+03  0.00000000000E+00 0.  1.
      99926    2    1    2    0    0 -0.17763568394E-14  0.17763568394E-14 -0.10824505150E+03  0.44892570834E+03  0.43568027317E+03 0.  0.
      99925    2    3    3    0    0  0.81447267083E+01  0.84660867638E+01  0.27579755592E+02  0.26390166255E+03  0.26219350370E+03 0.  0.
         25    1    4    4    0    0 -0.15459328669E+02  0.91807619514E+01  0.47589591488E+02  0.13503908527E+03  0.12509000000E+03 0.  0.
         25    1    3    3    0    0 -0.81447267083E+01 -0.84660867638E+01 -0.13582480709E+03  0.18502404579E+03  0.12509000000E+03 0.  0.
         25    1    4    4    0    0  0.23604055377E+02 -0.71467518760E+00 -0.20009835896E+02  0.12886257728E+03  0.12509000000E+03 0.  0.
<mgrwt>
<rscale>  2 0.43568027E+03</rscale>
<asrwt>0</asrwt>
<pdfrwt beam="1">  1       21 0.25050049E-01 0.43568027E+03</pdfrwt>
<pdfrwt beam="2">  1       21 0.40968437E-01 0.43568027E+03</pdfrwt>
<totfact> 0.80713142E+04</totfact>
</mgrwt>
</event>
<event>
 7    0  0.4712189E-002  0.4591273E+03  0.7546771E-02  0.1025035E+00
         21   -1    0    0  502  501  0.00000000000E+00  0.00000000000E+00  0.77127164430E+03  0.77127164430E+03  0.00000000000E+00 0.  1.
         21   -1    0    0  501  502 -0.00000000000E+00 -0.00000000000E+00 -0.68328014124E+02  0.68328014124E+02  0.00000000000E+00 0.  1.
      99926    2    1    2    0    0  0.71054273576E-14  0.00000000000E+00  0.70294363017E+03  0.83959965842E+03  0.45912725820E+03 0.  0.
      99925    2    3    3    0    0 -0.56362036326E+02  0.34933317792E+02  0.61705136184E+03  0.67400374757E+03  0.26292898806E+03 0.  0.
         25    1    4    4    0    0 -0.86811480095E+01 -0.15495675659E+02  0.32794739923E+03  0.35144342796E+03  0.12509000000E+03 0.  0.
         25    1    4    4    0    0 -0.47680888317E+02  0.50428993451E+02  0.28910396261E+03  0.32256031961E+03  0.12509000000E+03 0.  0.
         25    1    3    3    0    0  0.56362036326E+02 -0.34933317792E+02  0.85892268334E+02  0.16559591085E+03  0.12509000000E+03 0.  0.
<mgrwt>
<rscale>  2 0.45912726E+03</rscale>
<asrwt>0</asrwt>
<pdfrwt beam="1">  1       21 0.11342230E+00 0.45912726E+03</pdfrwt>
<pdfrwt beam="2">  1       21 0.10048238E-01 0.45912726E+03</pdfrwt>
<totfact> 0.44451346E+04</totfact>
</mgrwt>
</event>
<event>
 7    0  0.4712189E-002  0.4996160E+03  0.7546771E-02  0.1013879E+00
         21   -1    0    0  502  501  0.00000000000E+00  0.00000000000E+00  0.87706574856E+02  0.87706574856E+02  0.00000000000E+00 0. -1.
         21   -1    0    0  501  502 -0.00000000000E+00 -0.00000000000E+00 -0.71150918915E+03  0.71150918915E+03  0.00000000000E+00 0. -1.
      99926    2    1    2    0    0 -0.14210854715E-13  0.14210854715E-13 -0.62380261429E+03  0.79921576401E+03  0.49961598837E+03 0.  0.
      99925    2    3    3    0    0 -0.11644216301E+03  0.79567238602E+02 -0.46593267740E+03  0.55332931082E+03  0.26304057398E+03 0.  0.
         25    1    4    4    0    0 -0.31209927675E+02  0.59817994618E+02 -0.18152854672E+03  0.23054798511E+03  0.12509000000E+03 0.  0.
         25    1    4    4    0    0 -0.85232235333E+02  0.19749243984E+02 -0.28440413068E+03  0.32278132571E+03  0.12509000000E+03 0.  0.
         25    1    3    3    0    0  0.11644216301E+03 -0.79567238602E+02 -0.15786993689E+03  0.24588645318E+03  0.12509000000E+03 0.  0.
<mgrwt>
<rscale>  2 0.49961599E+03</rscale>
<asrwt>0</asrwt>
<pdfrwt beam="1">  1       21 0.12898025E-01 0.49961599E+03</pdfrwt>
<pdfrwt beam="2">  1       21 0.10463371E+00 0.49961599E+03</pdfrwt>
<totfact> 0.34172899E+04</totfact>
</mgrwt>
</event>
<event>
 7    0  0.4712189E-002  0.4574814E+03  0.7546771E-02  0.1025514E+00
         21   -1    0    0  502  501  0.00000000000E+00  0.00000000000E+00  0.15257178396E+03  0.15257178396E+03  0.00000000000E+00 0. -1.
         21   -1    0    0  501  502 -0.00000000000E+00 -0.00000000000E+00 -0.34293560358E+03  0.34293560358E+03  0.00000000000E+00 0. -1.
      99926    2    1    2    0    0  0.00000000000E+00 -0.71054273576E-14 -0.19036381962E+03  0.49550738754E+03  0.45748135184E+03 0.  0.
      99925    2    3    3    0    0  0.60007986889E+02  0.59416835222E+02 -0.20476977476E+03  0.34389486021E+03  0.26306215126E+03 0.  0.
         25    1    3    3    0    0 -0.60007986889E+02 -0.59416835222E+02  0.14405955134E+02  0.15161252732E+03  0.12509000000E+03 0.  0.
         25    1    4    4    0    0  0.29365684976E+02  0.11904046565E+02 -0.14519923000E+03  0.19425337647E+03  0.12509000000E+03 0.  0.
         25    1    4    4    0    0  0.30642301913E+02  0.47512788657E+02 -0.59570544759E+02  0.14964148374E+03  0.12509000000E+03 0.  0.
<mgrwt>
<rscale>  2 0.45748135E+03</rscale>
<asrwt>0</asrwt>
<pdfrwt beam="1">  1       21 0.22437027E-01 0.45748135E+03</pdfrwt>
<pdfrwt beam="2">  1       21 0.50431706E-01 0.45748135E+03</pdfrwt>
<totfact> 0.64311246E+04</totfact>
</mgrwt>
</event>
<event>
 7    0  0.4712189E-002  0.4625886E+03  0.7546771E-02  0.1024033E+00
         21   -1    0    0  502  501  0.00000000000E+00  0.00000000000E+00  0.10807864401E+04  0.10807864401E+04  0.00000000000E+00 0. -1.
         21   -1    0    0  501  502 -0.00000000000E+00 -0.00000000000E+00 -0.49498262832E+02  0.49498262832E+02  0.00000000000E+00 0. -1.
      99926    2    1    2    0    0  0.00000000000E+00 -0.35527136788E-14  0.10312881773E+04  0.11302847029E+04  0.46258859163E+03 0.  0.
      99925    2    3    3    0    0  0.25535149832E+02  0.10001858285E+02  0.35859399663E+03  0.44550952099E+03  0.26293915232E+03 0.  0.
         25    1    4    4    0    0 -0.11428164583E+02 -0.27343575711E+02  0.16735322464E+03  0.21102815920E+03  0.12509000000E+03 0.  0.
         25    1    3    3    0    0 -0.25535149832E+02 -0.10001858285E+02  0.67269418063E+03  0.68477518194E+03  0.12509000000E+03 0.  0.
         25    1    4    4    0    0  0.36963314415E+02  0.37345433996E+02  0.19124077199E+03  0.23448136179E+03  0.12509000000E+03 0.  0.
<mgrwt>
<rscale>  2 0.46258859E+03</rscale>
<asrwt>0</asrwt>
<pdfrwt beam="1">  1       21 0.15893917E+00 0.46258859E+03</pdfrwt>
<pdfrwt beam="2">  1       21 0.72791570E-02 0.46258859E+03</pdfrwt>
<totfact> 0.32482976E+04</totfact>
</mgrwt>
</event>
<event>
 7    0  0.4712189E-002  0.4547583E+03  0.7546771E-02  0.1026312E+00
         21   -1    0    0  502  501  0.00000000000E+00  0.00000000000E+00  0.90481073685E+03  0.90481073685E+03  0.00000000000E+00 0. -1.
         21   -1    0    0  501  502 -0.00000000000E+00 -0.00000000000E+00 -0.57140437213E+02  0.57140437213E+02  0.00000000000E+00 0. -1.
      99926    2    1    2    0    0  0.14210854715E-13  0.00000000000E+00  0.84767029964E+03  0.96195117406E+03  0.45475831427E+03 0.  0.
      99925    2    3    3    0    0  0.10900600948E+03 -0.28149784465E+02  0.54706898827E+03  0.61744663568E+03  0.26321312566E+03 0.  0.
         25    1    4    4    0    0  0.84956971482E+02  0.13693043431E+02  0.30615909123E+03  0.34173978944E+03  0.12509000000E+03 0.  0.
         25    1    3    3    0    0 -0.10900600948E+03  0.28149784465E+02  0.30060131137E+03  0.34450453838E+03  0.12509000000E+03 0.  0.
         25    1    4    4    0    0  0.24049038002E+02 -0.41842827896E+02  0.24090989704E+03  0.27570684625E+03  0.12509000000E+03 0.  0.
<mgrwt>
<rscale>  2 0.45475831E+03</rscale>
<asrwt>0</asrwt>
<pdfrwt beam="1">  1       21 0.13306039E+00 0.45475831E+03</pdfrwt>
<pdfrwt beam="2">  1       21 0.84030060E-02 0.45475831E+03</pdfrwt>
<totfact> 0.40737578E+04</totfact>
</mgrwt>
</event>
<event>
 7    0  0.4712189E-002  0.4530005E+03  0.7546771E-02  0.1026831E+00
         21   -1    0    0  502  501  0.00000000000E+00  0.00000000000E+00  0.16966394403E+03  0.16966394403E+03  0.00000000000E+00 0. -1.
         21   -1    0    0  501  502 -0.00000000000E+00 -0.00000000000E+00 -0.30237637578E+03  0.30237637578E+03  0.00000000000E+00 0. -1.
      99926    2    1    2    0    0  0.00000000000E+00  0.00000000000E+00 -0.13271243175E+03  0.47204031981E+03  0.45300052316E+03 0.  0.
      99925    2    3    3    0    0  0.43816626499E+02  0.11067908053E+02  0.22368713651E+02  0.26773646496E+03  0.26294497518E+03 0.  0.
         25    1    4    4    0    0 -0.13572034357E+02 -0.30340043353E+01  0.29263815820E+02  0.12921797211E+03  0.12509000000E+03 0.  0.
         25    1    4    4    0    0  0.57388660856E+02  0.14101912389E+02 -0.68951021691E+01  0.13851849285E+03  0.12509000000E+03 0.  0.
         25    1    3    3    0    0 -0.43816626499E+02 -0.11067908053E+02 -0.15508114540E+03  0.20430385485E+03  0.12509000000E+03 0.  0.
<mgrwt>
<rscale>  2 0.45300052E+03</rscale>
<asrwt>0</asrwt>
<pdfrwt beam="1">  1       21 0.24950580E-01 0.45300052E+03</pdfrwt>
<pdfrwt beam="2">  1       21 0.44467113E-01 0.45300052E+03</pdfrwt>
<totfact> 0.68362480E+04</totfact>
</mgrwt>
</event>
<event>
 7    0  0.4712189E-002  0.4709579E+03  0.7546771E-02  0.1021650E+00
         21   -1    0    0  502  501  0.00000000000E+00  0.00000000000E+00  0.99543838947E+02  0.99543838947E+02  0.00000000000E+00 0.  1.
         21   -1    0    0  501  502 -0.00000000000E+00 -0.00000000000E+00 -0.55704431875E+03  0.55704431875E+03  0.00000000000E+00 0.  1.
      99926    2    1    2    0    0  0.71054273576E-14  0.14210854715E-13 -0.45750047980E+03  0.65658815769E+03  0.47095787477E+03 0.  0.
      99925    2    3    3    0    0 -0.42264820042E+02  0.91390149150E+02 -0.39309257782E+03  0.48357266615E+03  0.26302523518E+03 0.  0.
         25    1    3    3    0    0  0.42264820042E+02 -0.91390149150E+02 -0.64407901984E+02  0.17301549154E+03  0.12509000000E+03 0.  0.
         25    1    4    4    0    0  0.10135221762E+02  0.39905211738E+02 -0.23215029700E+03  0.26690151206E+03  0.12509000000E+03 0.  0.
         25    1    4    4    0    0 -0.52400041803E+02  0.51484937412E+02 -0.16094228082E+03  0.21667115409E+03  0.12509000000E+03 0.  0.
<mgrwt>
<rscale>  2 0.47095787E+03</rscale>
<asrwt>0</asrwt>
<pdfrwt beam="1">  1       21 0.14638800E-01 0.47095787E+03</pdfrwt>
<pdfrwt beam="2">  1       21 0.81918282E-01 0.47095787E+03</pdfrwt>
<totfact> 0.48874404E+04</totfact>
</mgrwt>
</event>
<event>
 7    0  0.4712189E-002  0.4564216E+03  0.7546771E-02  0.1025824E+00
         21   -1    0    0  502  501  0.00000000000E+00  0.00000000000E+00  0.32233967459E+03  0.32233967459E+03  0.00000000000E+00 0. -1.
         21   -1    0    0  501  502 -0.00000000000E+00 -0.00000000000E+00 -0.16156919426E+03  0.16156919426E+03  0.00000000000E+00 0. -1.
      99926    2    1    2    0    0  0.00000000000E+00  0.00000000000E+00  0.16077048033E+03  0.48390886885E+03  0.45642156611E+03 0.  0.
      99925    2    3    3    0    0 -0.68028970147E+02 -0.84660684698E+02  0.65335091096E+02  0.29272624953E+03  0.26386475839E+03 0.  0.
         25    1    4    4    0    0 -0.16305920089E+02 -0.78591884028E+02  0.47653024008E+02  0.15607974264E+03  0.12509000000E+03 0.  0.
         25    1    3    3    0    0  0.68028970147E+02  0.84660684698E+02  0.95435389235E+02  0.19118261932E+03  0.12509000000E+03 0.  0.
         25    1    4    4    0    0 -0.51723050058E+02 -0.60688006701E+01  0.17682067088E+02  0.13664650689E+03  0.12509000000E+03 0.  0.
<mgrwt>
<rscale>  2 0.45642157E+03</rscale>
<asrwt>0</asrwt>
<pdfrwt beam="1">  1       21 0.47402894E-01 0.45642157E+03</pdfrwt>
<pdfrwt beam="2">  1       21 0.23760176E-01 0.45642157E+03</pdfrwt>
<totfact> 0.65672433E+04</totfact>
</mgrwt>
</event>
<event>
 7    0  0.4712189E-002  0.4571686E+03  0.7546771E-02  0.1025606E+00
         21   -1    0    0  502  501  0.00000000000E+00  0.00000000000E+00  0.72104062500E+02  0.72104062500E+02  0.00000000000E+00 0.  1.
         21   -1    0    0  501  502 -0.00000000000E+00 -0.00000000000E+00 -0.72465790824E+03  0.72465790824E+03  0.00000000000E+00 0.  1.
      99926    2    1    2    0    0  0.35527136788E-14 -0.35527136788E-14 -0.65255384574E+03  0.79676197075E+03  0.45716858644E+03 0.  0.
      99925    2    3    3    0    0  0.27684041148E+02 -0.24787700680E+02 -0.59973980096E+03  0.65598673263E+03  0.26315381110E+03 0.  0.
         25    1    3    3    0    0 -0.27684041148E+02  0.24787700680E+02 -0.52814044783E+02  0.14077523811E+03  0.12509000000E+03 0.  0.
         25    1    4    4    0    0  0.20154643893E+02 -0.51563396346E+02 -0.28377453965E+03  0.31502458788E+03  0.12509000000E+03 0.  0.
         25    1    4    4    0    0  0.75293972552E+01  0.26775695666E+02 -0.31596526131E+03  0.34096214475E+03  0.12509000000E+03 0.  0.
<mgrwt>
<rscale>  2 0.45716859E+03</rscale>
<asrwt>0</asrwt>
<pdfrwt beam="1">  1       21 0.10603539E-01 0.45716859E+03</pdfrwt>
<pdfrwt beam="2">  1       21 0.10656733E+00 0.45716859E+03</pdfrwt>
<totfact> 0.47114851E+04</totfact>
</mgrwt>
</event>
<event>
 7    0  0.4712189E-002  0.4618584E+03  0.7546771E-02  0.1024244E+00
         21   -1    0    0  502  501  0.00000000000E+00  0.00000000000E+00  0.19906858356E+03  0.19906858356E+03  0.00000000000E+00 0. -1.
         21   -1    0    0  501  502 -0.00000000000E+00 -0.00000000000E+00 -0.26788900677E+03  0.26788900677E+03  0.00000000000E+00 0. -1.
      99926    2    1    2    0    0 -0.14210854715E-13  0.00000000000E+00 -0.68820423210E+02  0.46695759033E+03  0.46185835547E+03 0.  0.
      99925    2    3    3    0    0 -0.83498940742E+02 -0.85291575648E+02 -0.49239034638E+02  0.29295280632E+03  0.26296413865E+03 0.  0.
         25    1    4    4    0    0 -0.88272259901E+01 -0.66360118844E+02 -0.23856070640E+02  0.14386870924E+03  0.12509000000E+03 0.  0.
         25    1    4    4    0    0 -0.74671714752E+02 -0.18931456804E+02 -0.25382963998E+02  0.14908409708E+03  0.12509000000E+03 0.  0.
         25    1    3    3    0    0  0.83498940742E+02  0.85291575648E+02 -0.19581388572E+02  0.17400478401E+03  0.12509000000E+03 0.  0.
<mgrwt>
<rscale>  2 0.46185836E+03</rscale>
<asrwt>0</asrwt>
<pdfrwt beam="1">  1       21 0.29274792E-01 0.46185836E+03</pdfrwt>
<pdfrwt beam="2">  1       21 0.39395442E-01 0.46185836E+03</pdfrwt>
<totfact> 0.64098325E+04</totfact>
</mgrwt>
</event>
<event>
 7    0  0.4712189E-002  0.4287475E+03  0.7546771E-02  0.1034256E+00
         21   -1    0    0  502  501  0.00000000000E+00  0.00000000000E+00  0.26507946920E+03  0.26507946920E+03  0.00000000000E+00 0. -1.
         21   -1    0    0  501  502 -0.00000000000E+00 -0.00000000000E+00 -0.17336724211E+03  0.17336724211E+03  0.00000000000E+00 0. -1.
      99926    2    1    2    0    0 -0.17763568394E-14  0.00000000000E+00  0.91712227091E+02  0.43844671130E+03  0.42874746186E+03 0.  0.
      99925    2    3    3    0    0 -0.81620742438E+01 -0.42308027412E+02  0.13555269185E+03  0.29906922715E+03  0.26308037122E+03 0.  0.
         25    1    3    3    0    0  0.81620742438E+01  0.42308027412E+02 -0.43840464754E+02  0.13937748415E+03  0.12509000000E+03 0.  0.
         25    1    4    4    0    0 -0.26383883772E+02  0.12906494476E+02  0.60347789893E+02  0.14195791900E+03  0.12509000000E+03 0.  0.
         25    1    4    4    0    0  0.18221809528E+02 -0.55214521888E+02  0.75204901952E+02  0.15711130815E+03  0.12509000000E+03 0.  0.
<mgrwt>
<rscale>  2 0.42874746E+03</rscale>
<asrwt>0</asrwt>
<pdfrwt beam="1">  1       21 0.38982275E-01 0.42874746E+03</pdfrwt>
<pdfrwt beam="2">  1       21 0.25495183E-01 0.42874746E+03</pdfrwt>
<totfact> 0.86512864E+04</totfact>
</mgrwt>
</event>
<event>
 7    0  0.4712189E-002  0.4592576E+03  0.7546771E-02  0.1024997E+00
         21   -1    0    0  502  501  0.00000000000E+00  0.00000000000E+00  0.40802715385E+03  0.40802715385E+03  0.00000000000E+00 0. -1.
         21   -1    0    0  501  502 -0.00000000000E+00 -0.00000000000E+00 -0.12923007136E+03  0.12923007136E+03  0.00000000000E+00 0. -1.
      99926    2    1    2    0    0  0.00000000000E+00  0.00000000000E+00  0.27879708249E+03  0.53725722521E+03  0.45925756698E+03 0.  0.
      99925    2    3    3    0    0 -0.69968994747E+02 -0.80291289319E+02  0.23181078975E+03  0.36638425727E+03  0.26298066538E+03 0.  0.
         25    1    4    4    0    0 -0.50308659897E+02 -0.92917748382E+01  0.83569792328E+02  0.15889844754E+03  0.12509000000E+03 0.  0.
         25    1    3    3    0    0  0.69968994747E+02  0.80291289319E+02  0.46986292745E+02  0.17087296794E+03  0.12509000000E+03 0.  0.
         25    1    4    4    0    0 -0.19660334851E+02 -0.70999514481E+02  0.14824099742E+03  0.20748580973E+03  0.12509000000E+03 0.  0.
<mgrwt>
<rscale>  2 0.45925757E+03</rscale>
<asrwt>0</asrwt>
<pdfrwt beam="1">  1       21 0.60003993E-01 0.45925757E+03</pdfrwt>
<pdfrwt beam="2">  1       21 0.19004422E-01 0.45925757E+03</pdfrwt>
<totfact> 0.60645607E+04</totfact>
</mgrwt>
</event>
<event>
 7    0  0.4712189E-002  0.4227507E+03  0.7546771E-02  0.1036175E+00
         21   -1    0    0  502  501  0.00000000000E+00  0.00000000000E+00  0.11894625651E+03  0.11894625651E+03  0.00000000000E+00 0. -1.
         21   -1    0    0  501  502 -0.00000000000E+00 -0.00000000000E+00 -0.37562793969E+03  0.37562793969E+03  0.00000000000E+00 0. -1.
      99926    2    1    2    0    0  0.88817841970E-15  0.00000000000E+00 -0.25668168318E+03  0.49457419620E+03  0.42275069375E+03 0.  0.
      99925    2    3    3    0    0  0.50243688426E+01 -0.68837058023E+02 -0.12188754423E+03  0.29815435801E+03  0.26320270311E+03 0.  0.
         25    1    4    4    0    0  0.13297902637E+02 -0.32688710040E+02 -0.17667647891E+02  0.13116798337E+03  0.12509000000E+03 0.  0.
         25    1    3    3    0    0 -0.50243688426E+01  0.68837058023E+02 -0.13479413895E+03  0.19641983819E+03  0.12509000000E+03 0.  0.
         25    1    4    4    0    0 -0.82735337944E+01 -0.36148347983E+02 -0.10421989634E+03  0.16698637464E+03  0.12509000000E+03 0.  0.
<mgrwt>
<rscale>  2 0.42275069E+03</rscale>
<asrwt>0</asrwt>
<pdfrwt beam="1">  1       21 0.17492096E-01 0.42275069E+03</pdfrwt>
<pdfrwt beam="2">  1       21 0.55239404E-01 0.42275069E+03</pdfrwt>
<totfact> 0.85526304E+04</totfact>
</mgrwt>
</event>
<event>
 7    0  0.4712189E-002  0.4566157E+03  0.7546771E-02  0.1025767E+00
         21   -1    0    0  502  501  0.00000000000E+00  0.00000000000E+00  0.15809283504E+03  0.15809283504E+03  0.00000000000E+00 0. -1.
         21   -1    0    0  501  502 -0.00000000000E+00 -0.00000000000E+00 -0.32970798207E+03  0.32970798207E+03  0.00000000000E+00 0. -1.
      99926    2    1    2    0    0  0.00000000000E+00  0.71054273576E-14 -0.17161514704E+03  0.48780081711E+03  0.45661567919E+03 0.  0.
      99925    2    3    3    0    0  0.92135901628E+02 -0.54309204424E+02 -0.15180598976E+03  0.32203464183E+03  0.26310214359E+03 0.  0.
         25    1    3    3    0    0 -0.92135901628E+02  0.54309204424E+02 -0.19809157281E+02  0.16576617528E+03  0.12509000000E+03 0.  0.
         25    1    4    4    0    0  0.35525108467E+02 -0.53723423848E+01 -0.33730638638E+02  0.13444760867E+03  0.12509000000E+03 0.  0.
         25    1    4    4    0    0  0.56610793161E+02 -0.48936862039E+02 -0.11807535112E+03  0.18758703316E+03  0.12509000000E+03 0.  0.
<mgrwt>
<rscale>  2 0.45661568E+03</rscale>
<asrwt>0</asrwt>
<pdfrwt beam="1">  1       21 0.23248947E-01 0.45661568E+03</pdfrwt>
<pdfrwt beam="2">  1       21 0.48486467E-01 0.45661568E+03</pdfrwt>
<totfact> 0.65294986E+04</totfact>
</mgrwt>
</event>
<event>
 7    0  0.4712189E-002  0.4569011E+03  0.7546771E-02  0.1025684E+00
         21   -1    0    0  502  501  0.00000000000E+00  0.00000000000E+00  0.18041401632E+03  0.18041401632E+03  0.00000000000E+00 0. -1.
         21   -1    0    0  501  502 -0.00000000000E+00 -0.00000000000E+00 -0.28927719204E+03  0.28927719204E+03  0.00000000000E+00 0. -1.
      99926    2    1    2    0    0  0.00000000000E+00  0.14210854715E-13 -0.10886317572E+03  0.46969120836E+03  0.45690112736E+03 0.  0.
      99925    2    3    3    0    0 -0.84165027997E+02  0.76816736143E+02 -0.53165854336E+02  0.29155007723E+03  0.26304044666E+03 0.  0.
         25    1    4    4    0    0 -0.37518397237E+02  0.48586936690E+02 -0.66590680537E+02  0.15443492928E+03  0.12509000000E+03 0.  0.
         25    1    4    4    0    0 -0.46646630760E+02  0.28229799454E+02  0.13424826202E+02  0.13711514795E+03  0.12509000000E+03 0.  0.
         25    1    3    3    0    0  0.84165027997E+02 -0.76816736143E+02 -0.55697321385E+02  0.17814113113E+03  0.12509000000E+03 0.  0.
<mgrwt>
<rscale>  2 0.45690113E+03</rscale>
<asrwt>0</asrwt>
<pdfrwt beam="1">  1       21 0.26531473E-01 0.45690113E+03</pdfrwt>
<pdfrwt beam="2">  1       21 0.42540763E-01 0.45690113E+03</pdfrwt>
<totfact> 0.66451007E+04</totfact>
</mgrwt>
</event>
<event>
 7    0  0.4712189E-002  0.4568764E+03  0.7546771E-02  0.1025691E+00
         21   -1    0    0  502  501  0.00000000000E+00  0.00000000000E+00  0.85582836123E+03  0.85582836123E+03  0.00000000000E+00 0. -1.
         21   -1    0    0  501  502 -0.00000000000E+00 -0.00000000000E+00 -0.60974851767E+02  0.60974851767E+02  0.00000000000E+00 0. -1.
      99926    2    1    2    0    0 -0.71054273576E-14  0.14210854715E-13  0.79485350946E+03  0.91680321299E+03  0.45687638356E+03 0.  0.
      99925    2    3    3    0    0 -0.57172136538E+02  0.95739276274E+02  0.44417402429E+03  0.52814105683E+03  0.26307365857E+03 0.  0.
         25    1    3    3    0    0  0.57172136538E+02 -0.95739276274E+02  0.35067948517E+03  0.38866215617E+03  0.12509000000E+03 0.  0.
         25    1    4    4    0    0 -0.67506775487E+02  0.49083720248E+02  0.20834234794E+03  0.25694438771E+03  0.12509000000E+03 0.  0.
         25    1    4    4    0    0  0.10334638949E+02  0.46655556026E+02  0.23583167634E+03  0.27119666911E+03  0.12509000000E+03 0.  0.
<mgrwt>
<rscale>  2 0.45687638E+03</rscale>
<asrwt>0</asrwt>
<pdfrwt beam="1">  1       21 0.12585710E+00 0.45687638E+03</pdfrwt>
<pdfrwt beam="2">  1       21 0.89668905E-02 0.45687638E+03</pdfrwt>
<totfact> 0.41896506E+04</totfact>
</mgrwt>
</event>
<event>
 7    0  0.4712189E-002  0.4496247E+03  0.7546771E-02  0.1027834E+00
         21   -1    0    0  502  501  0.00000000000E+00  0.00000000000E+00  0.14911815196E+03  0.14911815196E+03  0.00000000000E+00 0.  1.
         21   -1    0    0  501  502 -0.00000000000E+00 -0.00000000000E+00 -0.33892988849E+03  0.33892988849E+03  0.00000000000E+00 0.  1.
      99926    2    1    2    0    0 -0.71054273576E-14  0.00000000000E+00 -0.18981173653E+03  0.48804804045E+03  0.44962472626E+03 0.  0.
      99925    2    3    3    0    0 -0.60186481988E+02  0.45167235931E+02 -0.35832136813E+02  0.27586953767E+03  0.26297826520E+03 0.  0.
         25    1    4    4    0    0 -0.56650433405E+02 -0.10348790011E+00  0.26324637153E+01  0.13734525940E+03  0.12509000000E+03 0.  0.
         25    1    3    3    0    0  0.60186481988E+02 -0.45167235931E+02 -0.15397959971E+03  0.21217850278E+03  0.12509000000E+03 0.  0.
         25    1    4    4    0    0 -0.35360485831E+01  0.45270723831E+02 -0.38464600528E+02  0.13852427827E+03  0.12509000000E+03 0.  0.
<mgrwt>
<rscale>  2 0.44962473E+03</rscale>
<asrwt>0</asrwt>
<pdfrwt beam="1">  1       21 0.21929140E-01 0.44962473E+03</pdfrwt>
<pdfrwt beam="2">  1       21 0.49842630E-01 0.44962473E+03</pdfrwt>
<totfact> 0.69017219E+04</totfact>
</mgrwt>
</event>
<event>
 7    0  0.4712189E-002  0.4545897E+03  0.7546771E-02  0.1026362E+00
         21   -1    0    0  502  501  0.00000000000E+00  0.00000000000E+00  0.85066083326E+03  0.85066083326E+03  0.00000000000E+00 0.  1.
         21   -1    0    0  501  502 -0.00000000000E+00 -0.00000000000E+00 -0.60732728322E+02  0.60732728322E+02  0.00000000000E+00 0.  1.
      99926    2    1    2    0    0  0.00000000000E+00  0.00000000000E+00  0.78992810494E+03  0.91139356159E+03  0.45458971955E+03 0.  0.
      99925    2    3    3    0    0 -0.35549908388E+02 -0.94503635974E+02  0.39704453537E+03  0.48689416166E+03  0.26310991694E+03 0.  0.
         25    1    4    4    0    0 -0.26703269142E+02 -0.19659580646E+02  0.23844666938E+03  0.27130036110E+03  0.12509000000E+03 0.  0.
         25    1    4    4    0    0 -0.88466392464E+01 -0.74844055328E+02  0.15859786600E+03  0.21559380057E+03  0.12509000000E+03 0.  0.
         25    1    3    3    0    0  0.35549908388E+02  0.94503635974E+02  0.39288356957E+03  0.42449939992E+03  0.12509000000E+03 0.  0.
<mgrwt>
<rscale>  2 0.45458972E+03</rscale>
<asrwt>0</asrwt>
<pdfrwt beam="1">  1       21 0.12509717E+00 0.45458972E+03</pdfrwt>
<pdfrwt beam="2">  1       21 0.89312841E-02 0.45458972E+03</pdfrwt>
<totfact> 0.42882365E+04</totfact>
</mgrwt>
</event>
<event>
 7    0  0.4712189E-002  0.4461362E+03  0.7546771E-02  0.1028881E+00
         21   -1    0    0  502  501  0.00000000000E+00  0.00000000000E+00  0.14673919059E+03  0.14673919059E+03  0.00000000000E+00 0. -1.
         21   -1    0    0  501  502 -0.00000000000E+00 -0.00000000000E+00 -0.33910080478E+03  0.33910080478E+03  0.00000000000E+00 0. -1.
      99926    2    1    2    0    0  0.71054273576E-14  0.00000000000E+00 -0.19236161419E+03  0.48583999537E+03  0.44613620172E+03 0.  0.
      99925    2    3    3    0    0  0.60417076773E+02  0.60999471415E+02 -0.18718674496E+03  0.33403272924E+03  0.26299777192E+03 0.  0.
         25    1    3    3    0    0 -0.60417076773E+02 -0.60999471415E+02 -0.51748692289E+01  0.15180726613E+03  0.12509000000E+03 0.  0.
         25    1    4    4    0    0  0.51273941050E+02  0.26647767559E+02 -0.54307307311E+02  0.14810777250E+03  0.12509000000E+03 0.  0.
         25    1    4    4    0    0  0.91431357225E+01  0.34351703856E+02 -0.13287943765E+03  0.18592495674E+03  0.12509000000E+03 0.  0.
<mgrwt>
<rscale>  2 0.44613620E+03</rscale>
<asrwt>0</asrwt>
<pdfrwt beam="1">  1       21 0.21579293E-01 0.44613620E+03</pdfrwt>
<pdfrwt beam="2">  1       21 0.49867765E-01 0.44613620E+03</pdfrwt>
<totfact> 0.71153979E+04</totfact>
</mgrwt>
</event>
<event>
 7    0  0.4712189E-002  0.4424107E+03  0.7546771E-02  0.1030010E+00
         21   -1    0    0  502  501  0.00000000000E+00  0.00000000000E+00  0.17931335210E+03  0.17931335210E+03  0.00000000000E+00 0. -1.
         21   -1    0    0  501  502 -0.00000000000E+00 -0.00000000000E+00 -0.27288436317E+03  0.27288436317E+03  0.00000000000E+00 0. -1.
      99926    2    1    2    0    0  0.00000000000E+00  0.14210854715E-13 -0.93571011067E+02  0.45219771528E+03  0.44241071369E+03 0.  0.
      99925    2    3    3    0    0 -0.50241859309E+01  0.78014907653E+02 -0.12485762996E+03  0.30140670466E+03  0.26295437930E+03 0.  0.
         25    1    3    3    0    0  0.50241859309E+01 -0.78014907653E+02  0.31286618894E+02  0.15079101061E+03  0.12509000000E+03 0.  0.
         25    1    4    4    0    0  0.22534482833E+02  0.38434747226E+02 -0.27203138209E+02  0.13554538553E+03  0.12509000000E+03 0.  0.
         25    1    4    4    0    0 -0.27558668764E+02  0.39580160428E+02 -0.97654491752E+02  0.16586131913E+03  0.12509000000E+03 0.  0.
<mgrwt>
<rscale>  2 0.44241071E+03</rscale>
<asrwt>0</asrwt>
<pdfrwt beam="1">  1       21 0.26369611E-01 0.44241071E+03</pdfrwt>
<pdfrwt beam="2">  1       21 0.40130053E-01 0.44241071E+03</pdfrwt>
<totfact> 0.76103462E+04</totfact>
</mgrwt>
</event>
<event>
 7    0  0.4712189E-002  0.4443207E+03  0.7546771E-02  0.1029429E+00
         21   -1    0    0  502  501  0.00000000000E+00  0.00000000000E+00  0.44916462588E+03  0.44916462588E+03  0.00000000000E+00 0.  1.
         21   -1    0    0  501  502 -0.00000000000E+00 -0.00000000000E+00 -0.10988224565E+03  0.10988224565E+03  0.00000000000E+00 0.  1.
      99926    2    1    2    0    0  0.71054273576E-14  0.00000000000E+00  0.33928238023E+03  0.55904687153E+03  0.44432068490E+03 0.  0.
      99925    2    3    3    0    0 -0.63774743606E+02 -0.81117873821E+02  0.22923648346E+03  0.36307510093E+03  0.26196724259E+03 0.  0.
         25    1    4    4    0    0 -0.68158984725E+02 -0.43425558818E+02  0.14305497978E+03  0.20650341813E+03  0.12509000000E+03 0.  0.
         25    1    4    4    0    0  0.43842411183E+01 -0.37692315003E+02  0.86181503678E+02  0.15657168281E+03  0.12509000000E+03 0.  0.
         25    1    3    3    0    0  0.63774743606E+02  0.81117873821E+02  0.11004589677E+03  0.19597177060E+03  0.12509000000E+03 0.  0.
<mgrwt>
<rscale>  2 0.44432068E+03</rscale>
<asrwt>0</asrwt>
<pdfrwt beam="1">  1       21 0.66053621E-01 0.44432068E+03</pdfrwt>
<pdfrwt beam="2">  1       21 0.16159154E-01 0.44432068E+03</pdfrwt>
<totfact> 0.66733645E+04</totfact>
</mgrwt>
</event>
<event>
 7    0  0.4712189E-002  0.4573486E+03  0.7546771E-02  0.1025553E+00
         21   -1    0    0  502  501  0.00000000000E+00  0.00000000000E+00  0.44398623934E+03  0.44398623934E+03  0.00000000000E+00 0. -1.
         21   -1    0    0  501  502 -0.00000000000E+00 -0.00000000000E+00 -0.11777826617E+03  0.11777826617E+03  0.00000000000E+00 0. -1.
      99926    2    1    2    0    0 -0.17763568394E-14  0.00000000000E+00  0.32620797318E+03  0.56176450551E+03  0.45734857372E+03 0.  0.
      99925    2    3    3    0    0  0.50708241010E+01 -0.10844069828E+03  0.25288893798E+03  0.38063392465E+03  0.26295298313E+03 0.  0.
         25    1    3    3    0    0 -0.50708241010E+01  0.10844069828E+03  0.73319035197E+02  0.18113058086E+03  0.12509000000E+03 0.  0.
         25    1    4    4    0    0 -0.31466833350E+02 -0.70817195903E+02  0.15224373280E+03  0.21173308460E+03  0.12509000000E+03 0.  0.
         25    1    4    4    0    0  0.36537657451E+02 -0.37623502379E+02  0.10064520518E+03  0.16890084005E+03  0.12509000000E+03 0.  0.
<mgrwt>
<rscale>  2 0.45734857E+03</rscale>
<asrwt>0</asrwt>
<pdfrwt beam="1">  1       21 0.65292094E-01 0.45734857E+03</pdfrwt>
<pdfrwt beam="2">  1       21 0.17320333E-01 0.45734857E+03</pdfrwt>
<totfact> 0.59973859E+04</totfact>
</mgrwt>
</event>
<event>
 7    0  0.4712189E-002  0.4502766E+03  0.7546771E-02  0.1027640E+00
         21   -1    0    0  502  501  0.00000000000E+00  0.00000000000E+00  0.43239809066E+03  0.43239809066E+03  0.00000000000E+00 0.  1.
         21   -1    0    0  501  502 -0.00000000000E+00 -0.00000000000E+00 -0.11722360975E+03  0.11722360975E+03  0.00000000000E+00 0.  1.
      99926    2    1    2    0    0  0.00000000000E+00  0.00000000000E+00  0.31517448091E+03  0.54962170042E+03  0.45027664846E+03 0.  0.
      99925    2    3    3    0    0 -0.51011693363E+02 -0.61510070925E+02  0.28897196504E+03  0.39889094170E+03  0.26310360147E+03 0.  0.
         25    1    4    4    0    0  0.93445689433E+01 -0.26759646719E+02  0.10490327737E+03  0.16569733059E+03  0.12509000000E+03 0.  0.
         25    1    3    3    0    0  0.51011693363E+02  0.61510070925E+02  0.26202515867E+02  0.15073075871E+03  0.12509000000E+03 0.  0.
         25    1    4    4    0    0 -0.60356262306E+02 -0.34750424206E+02  0.18406868768E+03  0.23319361111E+03  0.12509000000E+03 0.  0.
<mgrwt>
<rscale>  2 0.45027665E+03</rscale>
<asrwt>0</asrwt>
<pdfrwt beam="1">  1       21 0.63587954E-01 0.45027665E+03</pdfrwt>
<pdfrwt beam="2">  1       21 0.17238766E-01 0.45027665E+03</pdfrwt>
<totfact> 0.64259483E+04</totfact>
</mgrwt>
</event>
<event>
 7    0  0.4712189E-002  0.4477152E+03  0.7546771E-02  0.1028406E+00
         21   -1    0    0  502  501  0.00000000000E+00  0.00000000000E+00  0.84684493392E+02  0.84684493392E+02  0.00000000000E+00 0. -1.
         21   -1    0    0  501  502 -0.00000000000E+00 -0.00000000000E+00 -0.59175205816E+03  0.59175205816E+03  0.00000000000E+00 0. -1.
      99926    2    1    2    0    0 -0.71054273576E-14  0.35527136788E-14 -0.50706756477E+03  0.67643655155E+03  0.44771519188E+03 0.  0.
      99925    2    3    3    0    0 -0.56293820487E+02  0.30822045920E+02 -0.19331370809E+03  0.33262267252E+03  0.26296132757E+03 0.  0.
         25    1    4    4    0    0 -0.63495762306E+02  0.36562865878E+02 -0.11119986925E+03  0.18270597695E+03  0.12509000000E+03 0.  0.
         25    1    3    3    0    0  0.56293820487E+02 -0.30822045920E+02 -0.31375385667E+03  0.34381387903E+03  0.12509000000E+03 0.  0.
         25    1    4    4    0    0  0.72019418194E+01 -0.57408199588E+01 -0.82113838839E+02  0.14991669556E+03  0.12509000000E+03 0.  0.
<mgrwt>
<rscale>  2 0.44771519E+03</rscale>
<asrwt>0</asrwt>
<pdfrwt beam="1">  1       21 0.12453602E-01 0.44771519E+03</pdfrwt>
<pdfrwt beam="2">  1       21 0.87022358E-01 0.44771519E+03</pdfrwt>
<totfact> 0.57425751E+04</totfact>
</mgrwt>
</event>
<event>
 7    0  0.4712189E-002  0.4550421E+03  0.7546771E-02  0.1026229E+00
         21   -1    0    0  502  501  0.00000000000E+00  0.00000000000E+00  0.10549683360E+03  0.10549683360E+03  0.00000000000E+00 0.  1.
         21   -1    0    0  501  502 -0.00000000000E+00 -0.00000000000E+00 -0.49068598143E+03  0.49068598143E+03  0.00000000000E+00 0.  1.
      99926    2    1    2    0    0  0.00000000000E+00  0.14210854715E-13 -0.38518914783E+03  0.59618281502E+03  0.45504205226E+03 0.  0.
      99925    2    3    3    0    0  0.20395510101E+02 -0.68431284611E+02 -0.35817864970E+03  0.44963626046E+03  0.26226323432E+03 0.  0.
         25    1    3    3    0    0 -0.20395510101E+02  0.68431284611E+02 -0.27010498129E+02  0.14654655457E+03  0.12509000000E+03 0.  0.
         25    1    4    4    0    0  0.42021088549E+01 -0.33859043324E+02 -0.24270638010E+03  0.27516901638E+03  0.12509000000E+03 0.  0.
         25    1    4    4    0    0  0.16193401246E+02 -0.34572241287E+02 -0.11547226960E+03  0.17446724408E+03  0.12509000000E+03 0.  0.
<mgrwt>
<rscale>  2 0.45504205E+03</rscale>
<asrwt>0</asrwt>
<pdfrwt beam="1">  1       21 0.15514240E-01 0.45504205E+03</pdfrwt>
<pdfrwt beam="2">  1       21 0.72159704E-01 0.45504205E+03</pdfrwt>
<totfact> 0.58894268E+04</totfact>
</mgrwt>
</event>
<event>
 7    0  0.4712189E-002  0.4465734E+03  0.7546771E-02  0.1028749E+00
         21   -1    0    0  502  501  0.00000000000E+00  0.00000000000E+00  0.38638440076E+03  0.38638440076E+03  0.00000000000E+00 0.  1.
         21   -1    0    0  501  502 -0.00000000000E+00 -0.00000000000E+00 -0.12903456974E+03  0.12903456974E+03  0.00000000000E+00 0.  1.
      99926    2    1    2    0    0  0.00000000000E+00  0.00000000000E+00  0.25734983101E+03  0.51541897050E+03  0.44657337541E+03 0.  0.
      99925    2    3    3    0    0 -0.10272674186E+03  0.86847644164E+01  0.14010699954E+03  0.31536498214E+03  0.26305302130E+03 0.  0.
         25    1    3    3    0    0  0.10272674186E+03 -0.86847644164E+01  0.11724283148E+03  0.20005398836E+03  0.12509000000E+03 0.  0.
         25    1    4    4    0    0 -0.94387087623E+01  0.59821577288E+01  0.74857180286E+02  0.14620527000E+03  0.12509000000E+03 0.  0.
         25    1    4    4    0    0 -0.93288033093E+02  0.27026066876E+01  0.65249819251E+02  0.16915971215E+03  0.12509000000E+03 0.  0.
<mgrwt>
<rscale>  2 0.44657338E+03</rscale>
<asrwt>0</asrwt>
<pdfrwt beam="1">  1       21 0.56821235E-01 0.44657338E+03</pdfrwt>
<pdfrwt beam="2">  1       21 0.18975672E-01 0.44657338E+03</pdfrwt>
<totfact> 0.68678265E+04</totfact>
</mgrwt>
</event>
<event>
 7    0  0.4712189E-002  0.4669430E+03  0.7546771E-02  0.1022787E+00
         21   -1    0    0  502  501  0.00000000000E+00  0.00000000000E+00  0.17605235276E+04  0.17605235276E+04  0.00000000000E+00 0. -1.
         21   -1    0    0  501  502 -0.00000000000E+00 -0.00000000000E+00 -0.30961773037E+02  0.30961773037E+02  0.00000000000E+00 0. -1.
      99926    2    1    2    0    0  0.00000000000E+00  0.00000000000E+00  0.17295617546E+04  0.17914853007E+04  0.46694295107E+03 0.  0.
      99925    2    3    3    0    0  0.48494006447E+02  0.10746986664E+03  0.12207753066E+04  0.12544447075E+04  0.26351040623E+03 0.  0.
         25    1    3    3    0    0 -0.48494006447E+02 -0.10746986664E+03  0.50878644802E+03  0.53704059314E+03  0.12509000000E+03 0.  0.
         25    1    4    4    0    0 -0.12946055264E+02  0.65920010770E+02  0.66194174431E+03  0.67699883983E+03  0.12509000000E+03 0.  0.
         25    1    4    4    0    0  0.61440061710E+02  0.41549855869E+02  0.55883356225E+03  0.57744586768E+03  0.12509000000E+03 0.  0.
<mgrwt>
<rscale>  2 0.46694295E+03</rscale>
<asrwt>0</asrwt>
<pdfrwt beam="1">  1       21 0.25890045E+00 0.46694295E+03</pdfrwt>
<pdfrwt beam="2">  1       21 0.45532031E-02 0.46694295E+03</pdfrwt>
<totfact> 0.15897745E+04</totfact>
</mgrwt>
</event>
<event>
 7    0  0.4712189E-002  0.4545167E+03  0.7546771E-02  0.1026384E+00
         21   -1    0    0  502  501  0.00000000000E+00  0.00000000000E+00  0.32286203071E+03  0.32286203071E+03  0.00000000000E+00 0.  1.
         21   -1    0    0  501  502 -0.00000000000E+00 -0.00000000000E+00 -0.15996414650E+03  0.15996414650E+03  0.00000000000E+00 0.  1.
      99926    2    1    2    0    0  0.00000000000E+00 -0.12490009027E-15  0.16289788421E+03  0.48282617722E+03  0.45451666276E+03 0.  0.
      99925    2    3    3    0    0  0.11044460020E+02  0.10237300535E+00 -0.16635148527E+02  0.26373348331E+03  0.26297648465E+03 0.  0.
         25    1    4    4    0    0 -0.32814686439E+02  0.93000028951E+01  0.12348764833E+01  0.12966235660E+03  0.12509000000E+03 0.  0.
         25    1    4    4    0    0  0.43859146459E+02 -0.91976298897E+01 -0.17870025010E+02  0.13407112671E+03  0.12509000000E+03 0.  0.
         25    1    3    3    0    0 -0.11044460020E+02 -0.10237300535E+00  0.17953303274E+03  0.21909269390E+03  0.12509000000E+03 0.  0.
<mgrwt>
<rscale>  2 0.45451666E+03</rscale>
<asrwt>0</asrwt>
<pdfrwt beam="1">  1       21 0.47479710E-01 0.45451666E+03</pdfrwt>
<pdfrwt beam="2">  1       21 0.23524139E-01 0.45451666E+03</pdfrwt>
<totfact> 0.66750686E+04</totfact>
</mgrwt>
</event>
<event>
 7    0  0.4712189E-002  0.4549148E+03  0.7546771E-02  0.1026266E+00
         21   -1    0    0  502  501  0.00000000000E+00  0.00000000000E+00  0.30172567180E+03  0.30172567180E+03  0.00000000000E+00 0.  1.
         21   -1    0    0  501  502 -0.00000000000E+00 -0.00000000000E+00 -0.17146992630E+03  0.17146992630E+03  0.00000000000E+00 0.  1.
      99926    2    1    2    0    0  0.71054273576E-14  0.14210854715E-13  0.13025574550E+03  0.47319559809E+03  0.45491484348E+03 0.  0.
      99925    2    3    3    0    0  0.56130524587E+02  0.91263156505E+02  0.11951758669E+03  0.30814283174E+03  0.26303602738E+03 0.  0.
         25    1    4    4    0    0 -0.88362023151E+01  0.54926788961E+02  0.74035379472E+02  0.15563989248E+03  0.12509000000E+03 0.  0.
         25    1    4    4    0    0  0.64966726902E+02  0.36336367544E+02  0.45482207223E+02  0.15250293927E+03  0.12509000000E+03 0.  0.
         25    1    3    3    0    0 -0.56130524587E+02 -0.91263156505E+02  0.10738158808E+02  0.16505276635E+03  0.12509000000E+03 0.  0.
<mgrwt>
<rscale>  2 0.45491484E+03</rscale>
<asrwt>0</asrwt>
<pdfrwt beam="1">  1       21 0.44371422E-01 0.45491484E+03</pdfrwt>
<pdfrwt beam="2">  1       21 0.25216166E-01 0.45491484E+03</pdfrwt>
<totfact> 0.67244306E+04</totfact>
</mgrwt>
</event>
<event>
 7    0  0.4712189E-002  0.4483692E+03  0.7546771E-02  0.1028209E+00
         21   -1    0    0  502  501  0.00000000000E+00  0.00000000000E+00  0.99279635771E+02  0.99279635771E+02  0.00000000000E+00 0. -1.
         21   -1    0    0  501  502 -0.00000000000E+00 -0.00000000000E+00 -0.50623415759E+03  0.50623415759E+03  0.00000000000E+00 0. -1.
      99926    2    1    2    0    0  0.00000000000E+00  0.14210854715E-13 -0.40695452181E+03  0.60551379336E+03  0.44836923525E+03 0.  0.
      99925    2    3    3    0    0  0.71608377318E+02 -0.79026841604E+02 -0.24961116360E+03  0.37796722258E+03  0.26302183742E+03 0.  0.
         25    1    4    4    0    0  0.12691135373E+02 -0.71159881927E+02 -0.14206232826E+03  0.20261788402E+03  0.12509000000E+03 0.  0.
         25    1    4    4    0    0  0.58917241945E+02 -0.78669596766E+01 -0.10754883533E+03  0.17534933856E+03  0.12509000000E+03 0.  0.
         25    1    3    3    0    0 -0.71608377318E+02  0.79026841604E+02 -0.15734335822E+03  0.22754657078E+03  0.12509000000E+03 0.  0.
<mgrwt>
<rscale>  2 0.44836924E+03</rscale>
<asrwt>0</asrwt>
<pdfrwt beam="1">  1       21 0.14599946E-01 0.44836924E+03</pdfrwt>
<pdfrwt beam="2">  1       21 0.74446200E-01 0.44836924E+03</pdfrwt>
<totfact> 0.61498777E+04</totfact>
</mgrwt>
</event>
<event>
 7    0  0.4712189E-002  0.4085371E+03  0.7546771E-02  0.1040863E+00
         21   -1    0    0  502  501  0.00000000000E+00  0.00000000000E+00  0.23411733762E+03  0.23411733762E+03  0.00000000000E+00 0. -1.
         21   -1    0    0  501  502 -0.00000000000E+00 -0.00000000000E+00 -0.17822532512E+03  0.17822532512E+03  0.00000000000E+00 0. -1.
      99926    2    1    2    0    0  0.17763568394E-14  0.00000000000E+00  0.55892012498E+02  0.41234266274E+03  0.40853709067E+03 0.  0.
      99925    2    3    3    0    0 -0.10719442550E+02 -0.49827929702E+02  0.68711304789E+02  0.27666078709E+03  0.26310115674E+03 0.  0.
         25    1    4    4    0    0 -0.35770033001E+02 -0.28155463559E+02  0.62639140047E+02  0.14711694449E+03  0.12509000000E+03 0.  0.
         25    1    4    4    0    0  0.25050590451E+02 -0.21672466142E+02  0.60721647413E+01  0.12954384260E+03  0.12509000000E+03 0.  0.
         25    1    3    3    0    0  0.10719442550E+02  0.49827929702E+02 -0.12819292291E+02  0.13568187566E+03  0.12509000000E+03 0.  0.
<mgrwt>
<rscale>  2 0.40853709E+03</rscale>
<asrwt>0</asrwt>
<pdfrwt beam="1">  1       21 0.34429020E-01 0.40853709E+03</pdfrwt>
<pdfrwt beam="2">  1       21 0.26209607E-01 0.40853709E+03</pdfrwt>
<totfact> 0.10593932E+05</totfact>
</mgrwt>
</event>
<event>
 7    0  0.4712189E-002  0.4595123E+03  0.7546771E-02  0.1024923E+00
         21   -1    0    0  502  501  0.00000000000E+00  0.00000000000E+00  0.34361790945E+03  0.34361790945E+03  0.00000000000E+00 0. -1.
         21   -1    0    0  501  502 -0.00000000000E+00 -0.00000000000E+00 -0.15362379875E+03  0.15362379875E+03  0.00000000000E+00 0. -1.
      99926    2    1    2    0    0  0.00000000000E+00  0.35527136788E-14  0.18999411070E+03  0.49724170820E+03  0.45951230046E+03 0.  0.
      99925    2    3    3    0    0  0.47000603653E+02 -0.25978706531E+02  0.61886424336E+01  0.26851499747E+03  0.26301721357E+03 0.  0.
         25    1    4    4    0    0 -0.68487948733E+01 -0.58417184437E+01  0.29625930083E+02  0.12886518342E+03  0.12509000000E+03 0.  0.
         25    1    3    3    0    0 -0.47000603653E+02  0.25978706531E+02  0.18380546827E+03  0.22872671073E+03  0.12509000000E+03 0.  0.
         25    1    4    4    0    0  0.53849398526E+02 -0.20136988087E+02 -0.23437287649E+02  0.13964981405E+03  0.12509000000E+03 0.  0.
<mgrwt>
<rscale>  2 0.45951230E+03</rscale>
<asrwt>0</asrwt>
<pdfrwt beam="1">  1       21 0.50532045E-01 0.45951230E+03</pdfrwt>
<pdfrwt beam="2">  1       21 0.22591735E-01 0.45951230E+03</pdfrwt>
<totfact> 0.63171495E+04</totfact>
</mgrwt>
</event>
<event>
 7    0  0.4712189E-002  0.4519575E+03  0.7546771E-02  0.1027140E+00
         21   -1    0    0  502  501  0.00000000000E+00  0.00000000000E+00  0.10903708076E+03  0.10903708076E+03  0.00000000000E+00 0. -1.
         21   -1    0    0  501  502 -0.00000000000E+00 -0.00000000000E+00 -0.46833981193E+03  0.46833981193E+03  0.00000000000E+00 0. -1.
      99926    2    1    2    0    0  0.00000000000E+00  0.00000000000E+00 -0.35930273117E+03  0.57737689269E+03  0.45195754622E+03 0.  0.
      99925    2    3    3    0    0  0.28242366030E+02  0.60345883749E+02 -0.11442963055E+03  0.29444651180E+03  0.26299306272E+03 0.  0.
         25    1    4    4    0    0  0.82756574169E+01  0.14698120338E+02 -0.15092619853E+02  0.12712126699E+03  0.12509000000E+03 0.  0.
         25    1    4    4    0    0  0.19966708613E+02  0.45647763411E+02 -0.99337010701E+02  0.16732524481E+03  0.12509000000E+03 0.  0.
         25    1    3    3    0    0 -0.28242366030E+02 -0.60345883749E+02 -0.24487310061E+03  0.28293038089E+03  0.12509000000E+03 0.  0.
<mgrwt>
<rscale>  2 0.45195755E+03</rscale>
<asrwt>0</asrwt>
<pdfrwt beam="1">  1       21 0.16034865E-01 0.45195755E+03</pdfrwt>
<pdfrwt beam="2">  1       21 0.68873502E-01 0.45195755E+03</pdfrwt>
<totfact> 0.61560320E+04</totfact>
</mgrwt>
</event>
<event>
 7    0  0.4712189E-002  0.4558548E+03  0.7546771E-02  0.1025990E+00
         21   -1    0    0  502  501  0.00000000000E+00  0.00000000000E+00  0.47701823130E+03  0.47701823130E+03  0.00000000000E+00 0. -1.
         21   -1    0    0  501  502 -0.00000000000E+00 -0.00000000000E+00 -0.10890759050E+03  0.10890759050E+03  0.00000000000E+00 0. -1.
      99926    2    1    2    0    0  0.00000000000E+00  0.00000000000E+00  0.36811064080E+03  0.58592582180E+03  0.45585482863E+03 0.  0.
      99925    2    3    3    0    0  0.98686715299E+02 -0.39044183014E+02  0.17837170150E+03  0.33510339619E+03  0.26308611943E+03 0.  0.
         25    1    4    4    0    0  0.59105651305E+02 -0.55018057625E+02  0.11709572393E+03  0.18941853485E+03  0.12509000000E+03 0.  0.
         25    1    3    3    0    0 -0.98686715299E+02  0.39044183014E+02  0.18973893930E+03  0.25082242561E+03  0.12509000000E+03 0.  0.
         25    1    4    4    0    0  0.39581063994E+02  0.15973874611E+02  0.61275977569E+02  0.14568486134E+03  0.12509000000E+03 0.  0.
<mgrwt>
<rscale>  2 0.45585483E+03</rscale>
<asrwt>0</asrwt>
<pdfrwt beam="1">  1       21 0.70149739E-01 0.45585483E+03</pdfrwt>
<pdfrwt beam="2">  1       21 0.16015822E-01 0.45585483E+03</pdfrwt>
<totfact> 0.59152336E+04</totfact>
</mgrwt>
</event>
<event>
 7    0  0.4712189E-002  0.4526274E+03  0.7546771E-02  0.1026941E+00
         21   -1    0    0  502  501  0.00000000000E+00  0.00000000000E+00  0.18329565491E+04  0.18329565491E+04  0.00000000000E+00 0.  1.
         21   -1    0    0  501  502 -0.00000000000E+00 -0.00000000000E+00 -0.27942779855E+02  0.27942779855E+02  0.00000000000E+00 0.  1.
      99926    2    1    2    0    0 -0.35527136788E-14 -0.71054273576E-14  0.18050137693E+04  0.18608993290E+04  0.45262744652E+03 0.  0.
      99925    2    3    3    0    0 -0.21073127663E+02 -0.37834310863E+02  0.71836746616E+03  0.76621982887E+03  0.26299334200E+03 0.  0.
         25    1    3    3    0    0  0.21073127663E+02  0.37834310863E+02  0.10866463031E+04  0.10946795001E+04  0.12509000000E+03 0.  0.
         25    1    4    4    0    0 -0.35667657846E+02 -0.16826134322E+02  0.27234304578E+03  0.30228057050E+03  0.12509000000E+03 0.  0.
         25    1    4    4    0    0  0.14594530183E+02 -0.21008176541E+02  0.44602442037E+03  0.46393925838E+03  0.12509000000E+03 0.  0.
<mgrwt>
<rscale>  2 0.45262745E+03</rscale>
<asrwt>0</asrwt>
<pdfrwt beam="1">  1       21 0.26955235E+00 0.45262745E+03</pdfrwt>
<pdfrwt beam="2">  1       21 0.41092336E-02 0.45262745E+03</pdfrwt>
<totfact> 0.16416966E+04</totfact>
</mgrwt>
</event>
<event>
 7    0  0.4712189E-002  0.4560434E+03  0.7546771E-02  0.1025935E+00
         21   -1    0    0  502  501  0.00000000000E+00  0.00000000000E+00  0.68208066594E+02  0.68208066594E+02  0.00000000000E+00 0. -1.
         21   -1    0    0  501  502 -0.00000000000E+00 -0.00000000000E+00 -0.76228376991E+03  0.76228376991E+03  0.00000000000E+00 0. -1.
      99926    2    1    2    0    0  0.00000000000E+00 -0.14210854715E-13 -0.69407570331E+03  0.83049183650E+03  0.45604342838E+03 0.  0.
      99925    2    3    3    0    0 -0.97858405082E+01 -0.78674044549E+02 -0.58602896226E+03  0.64716978569E+03  0.26289431136E+03 0.  0.
         25    1    4    4    0    0 -0.10195158334E+01 -0.70080855481E+02 -0.24715298137E+03  0.28573496464E+03  0.12509000000E+03 0.  0.
         25    1    4    4    0    0 -0.87663246748E+01 -0.85931890682E+01 -0.33887598089E+03  0.36143482105E+03  0.12509000000E+03 0.  0.
         25    1    3    3    0    0  0.97858405082E+01  0.78674044549E+02 -0.10804674105E+03  0.18332205081E+03  0.12509000000E+03 0.  0.
<mgrwt>
<rscale>  2 0.45604343E+03</rscale>
<asrwt>0</asrwt>
<pdfrwt beam="1">  1       21 0.10030598E-01 0.45604343E+03</pdfrwt>
<pdfrwt beam="2">  1       21 0.11210055E+00 0.45604343E+03</pdfrwt>
<totfact> 0.45947733E+04</totfact>
</mgrwt>
</event>
<event>
 6    0  0.4712189E-002  0.4582463E+03  0.7546771E-02  0.1025291E+00
         21   -1    0    0  502  501  0.00000000000E+00  0.00000000000E+00  0.16767963920E+03  0.16767963920E+03  0.00000000000E+00 0. -1.
         21   -1    0    0  501  502 -0.00000000000E+00 -0.00000000000E+00 -0.31308170265E+03  0.31308170265E+03  0.00000000000E+00 0. -1.
      99926    2    1    2    0    0  0.00000000000E+00  0.14210854715E-13 -0.14540206345E+03  0.48076134186E+03  0.45824633961E+03 0.  0.
         25    1    3    3    0    0 -0.16049085336E+02  0.99992024420E+02 -0.11752175218E+03  0.19928584602E+03  0.12509000000E+03 0.  0.
         25    1    3    3    0    0  0.29809812057E+02 -0.18793568217E+02 -0.57843090242E+01  0.13008762213E+03  0.12509000000E+03 0.  0.
         25    1    3    3    0    0 -0.13760726721E+02 -0.81198456203E+02 -0.22096002249E+02  0.15138787371E+03  0.12509000000E+03 0.  0.
<mgrwt>
<rscale>  2 0.45824634E+03</rscale>
<asrwt>0</asrwt>
<pdfrwt beam="1">  1       21 0.24658771E-01 0.45824634E+03</pdfrwt>
<pdfrwt beam="2">  1       21 0.46041426E-01 0.45824634E+03</pdfrwt>
<totfact> 0.64954846E+04</totfact>
</mgrwt>
</event>
<event>
 7    0  0.4712189E-002  0.4553838E+03  0.7546771E-02  0.1026129E+00
         21   -1    0    0  502  501  0.00000000000E+00  0.00000000000E+00  0.55098739733E+03  0.55098739733E+03  0.00000000000E+00 0. -1.
         21   -1    0    0  501  502 -0.00000000000E+00 -0.00000000000E+00 -0.94092155665E+02  0.94092155665E+02  0.00000000000E+00 0. -1.
      99926    2    1    2    0    0 -0.71054273576E-14  0.00000000000E+00  0.45689524166E+03  0.64507955299E+03  0.45538375886E+03 0.  0.
      99925    2    3    3    0    0  0.50156314191E+02  0.39509918744E+02  0.15441750830E+03  0.31158745891E+03  0.26299294316E+03 0.  0.
         25    1    3    3    0    0 -0.50156314191E+02 -0.39509918744E+02  0.30247773336E+03  0.33349209408E+03  0.12509000000E+03 0.  0.
         25    1    4    4    0    0 -0.25522890239E+00  0.37282764404E+02  0.45542236679E+02  0.13824497490E+03  0.12509000000E+03 0.  0.
         25    1    4    4    0    0  0.50411543094E+02  0.22271543400E+01  0.10887527162E+03  0.17334248401E+03  0.12509000000E+03 0.  0.
<mgrwt>
<rscale>  2 0.45538376E+03</rscale>
<asrwt>0</asrwt>
<pdfrwt beam="1">  1       21 0.81027557E-01 0.45538376E+03</pdfrwt>
<pdfrwt beam="2">  1       21 0.13837082E-01 0.45538376E+03</pdfrwt>
<totfact> 0.55816646E+04</totfact>
</mgrwt>
</event>
<event>
 7    0  0.4712189E-002  0.4437953E+03  0.7546771E-02  0.1029589E+00
         21   -1    0    0  502  501  0.00000000000E+00  0.00000000000E+00  0.76685387720E+03  0.76685387720E+03  0.00000000000E+00 0.  1.
         21   -1    0    0  501  502 -0.00000000000E+00 -0.00000000000E+00 -0.64208530827E+02  0.64208530827E+02  0.00000000000E+00 0.  1.
      99926    2    1    2    0    0  0.14210854715E-13  0.31086244690E-14  0.70264534637E+03  0.83106240803E+03  0.44379527178E+03 0.  0.
      99925    2    3    3    0    0  0.79508390377E+02 -0.27888513413E+01  0.56721100043E+03  0.63026566504E+03  0.26301545143E+03 0.  0.
         25    1    4    4    0    0  0.26756748565E+02  0.32513758295E+02  0.23253359013E+03  0.26738071492E+03  0.12509000000E+03 0.  0.
         25    1    3    3    0    0 -0.79508390377E+02  0.27888513413E+01  0.13543434595E+03  0.20079674299E+03  0.12509000000E+03 0.  0.
         25    1    4    4    0    0  0.52751641812E+02 -0.35302609636E+02  0.33467741030E+03  0.36288495012E+03  0.12509000000E+03 0.  0.
<mgrwt>
<rscale>  2 0.44379527E+03</rscale>
<asrwt>0</asrwt>
<pdfrwt beam="1">  1       21 0.11277262E+00 0.44379527E+03</pdfrwt>
<pdfrwt beam="2">  1       21 0.94424314E-02 0.44379527E+03</pdfrwt>
<totfact> 0.50602806E+04</totfact>
</mgrwt>
</event>
<event>
 7    0  0.4712189E-002  0.4508712E+03  0.7546771E-02  0.1027463E+00
         21   -1    0    0  502  501  0.00000000000E+00  0.00000000000E+00  0.10567853826E+04  0.10567853826E+04  0.00000000000E+00 0. -1.
         21   -1    0    0  501  502 -0.00000000000E+00 -0.00000000000E+00 -0.48090370531E+02  0.48090370531E+02  0.00000000000E+00 0. -1.
      99926    2    1    2    0    0  0.00000000000E+00  0.14210854715E-13  0.10086950121E+04  0.11048757531E+04  0.45087115952E+03 0.  0.
      99925    2    3    3    0    0  0.22423505565E+02 -0.10225601741E+03  0.55970967234E+03  0.62717872562E+03  0.26290517276E+03 0.  0.
         25    1    4    4    0    0  0.29082401126E+02 -0.25397343170E+02  0.32344469024E+03  0.34893378576E+03  0.12509000000E+03 0.  0.
         25    1    3    3    0    0 -0.22423505565E+02  0.10225601741E+03  0.44898533973E+03  0.47769702751E+03  0.12509000000E+03 0.  0.
         25    1    4    4    0    0 -0.66588955611E+01 -0.76858674243E+02  0.23626498210E+03  0.27824493987E+03  0.12509000000E+03 0.  0.
<mgrwt>
<rscale>  2 0.45087116E+03</rscale>
<asrwt>0</asrwt>
<pdfrwt beam="1">  1       21 0.15540960E+00 0.45087116E+03</pdfrwt>
<pdfrwt beam="2">  1       21 0.70721140E-02 0.45087116E+03</pdfrwt>
<totfact> 0.36485598E+04</totfact>
</mgrwt>
</event>
<event>
 7    0  0.4712189E-002  0.4004957E+03  0.7546771E-02  0.1043608E+00
         21   -1    0    0  502  501  0.00000000000E+00  0.00000000000E+00  0.20953515618E+03  0.20953515618E+03  0.00000000000E+00 0.  1.
         21   -1    0    0  501  502 -0.00000000000E+00 -0.00000000000E+00 -0.19137220280E+03  0.19137220280E+03  0.00000000000E+00 0.  1.
      99926    2    1    2    0    0  0.00000000000E+00 -0.35527136788E-14  0.18162953376E+02  0.40090735898E+03  0.40049571485E+03 0.  0.
      99925    2    3    3    0    0 -0.31461644516E+02 -0.16317689484E+02 -0.17673127560E+02  0.26604507789E+03  0.26308086583E+03 0.  0.
         25    1    4    4    0    0 -0.31159828263E+02  0.20839820095E+02  0.15221905769E+02  0.13147032941E+03  0.12509000000E+03 0.  0.
         25    1    4    4    0    0 -0.30181625307E+00 -0.37157509579E+02 -0.32895033329E+02  0.13457474848E+03  0.12509000000E+03 0.  0.
         25    1    3    3    0    0  0.31461644516E+02  0.16317689484E+02  0.35836080936E+02  0.13486228110E+03  0.12509000000E+03 0.  0.
<mgrwt>
<rscale>  2 0.40049571E+03</rscale>
<asrwt>0</asrwt>
<pdfrwt beam="1">  1       21 0.30813993E-01 0.40049571E+03</pdfrwt>
<pdfrwt beam="2">  1       21 0.28142971E-01 0.40049571E+03</pdfrwt>
<totfact> 0.11524418E+05</totfact>
</mgrwt>
</event>
<event>
 7    0  0.4712189E-002  0.4527248E+03  0.7546771E-02  0.1026913E+00
         21   -1    0    0  502  501  0.00000000000E+00  0.00000000000E+00  0.49377475213E+03  0.49377475213E+03  0.00000000000E+00 0. -1.
         21   -1    0    0  501  502 -0.00000000000E+00 -0.00000000000E+00 -0.10377187614E+03  0.10377187614E+03  0.00000000000E+00 0. -1.
      99926    2    1    2    0    0  0.71054273576E-14  0.00000000000E+00  0.39000287599E+03  0.59754662827E+03  0.45272478359E+03 0.  0.
      99925    2    3    3    0    0 -0.58888115217E+02 -0.22433334706E+02  0.36658199151E+03  0.45553567606E+03  0.26298161731E+03 0.  0.
         25    1    3    3    0    0  0.58888115217E+02  0.22433334706E+02  0.23420884484E+02  0.14201095222E+03  0.12509000000E+03 0.  0.
         25    1    4    4    0    0 -0.55912056686E+02  0.20775347632E+01  0.23685824580E+03  0.27364175656E+03  0.12509000000E+03 0.  0.
         25    1    4    4    0    0 -0.29760585308E+01 -0.24510869470E+02  0.12972374571E+03  0.18189391949E+03  0.12509000000E+03 0.  0.
<mgrwt>
<rscale>  2 0.45272478E+03</rscale>
<asrwt>0</asrwt>
<pdfrwt beam="1">  1       21 0.72613933E-01 0.45272478E+03</pdfrwt>
<pdfrwt beam="2">  1       21 0.15260570E-01 0.45272478E+03</pdfrwt>
<totfact> 0.59899168E+04</totfact>
</mgrwt>
</event>
<event>
 7    0  0.4712189E-002  0.4193951E+03  0.7546771E-02  0.1037263E+00
         21   -1    0    0  502  501  0.00000000000E+00  0.00000000000E+00  0.13989751770E+04  0.13989751770E+04  0.00000000000E+00 0.  1.
         21   -1    0    0  501  502 -0.00000000000E+00 -0.00000000000E+00 -0.31432345927E+02  0.31432345927E+02  0.00000000000E+00 0.  1.
      99926    2    1    2    0    0  0.00000000000E+00 -0.35527136788E-14  0.13675428311E+04  0.14304075229E+04  0.41939514402E+03 0.  0.
      99925    2    3    3    0    0  0.26390127321E+02 -0.20811017823E+02  0.66287114259E+03  0.71393056312E+03  0.26300030418E+03 0.  0.
         25    1    4    4    0    0  0.42178785555E+01  0.61214847386E+01  0.42288883647E+03  0.44106432546E+03  0.12509000000E+03 0.  0.
         25    1    3    3    0    0 -0.26390127321E+02  0.20811017823E+02  0.70467168850E+03  0.71647695982E+03  0.12509000000E+03 0.  0.
         25    1    4    4    0    0  0.22172248766E+02 -0.26932502562E+02  0.23998230611E+03  0.27286623767E+03  0.12509000000E+03 0.  0.
<mgrwt>
<rscale>  2 0.41939514E+03</rscale>
<asrwt>0</asrwt>
<pdfrwt beam="1">  1       21 0.20573160E+00 0.41939514E+03</pdfrwt>
<pdfrwt beam="2">  1       21 0.46224047E-02 0.41939514E+03</pdfrwt>
<totfact> 0.34014965E+04</totfact>
</mgrwt>
</event>
<event>
 7    0  0.4712189E-002  0.4577000E+03  0.7546771E-02  0.1025450E+00
         21   -1    0    0  502  501  0.00000000000E+00  0.00000000000E+00  0.42609410485E+03  0.42609410485E+03  0.00000000000E+00 0. -1.
         21   -1    0    0  501  502 -0.00000000000E+00 -0.00000000000E+00 -0.12291254865E+03  0.12291254865E+03  0.00000000000E+00 0. -1.
      99926    2    1    2    0    0 -0.71054273576E-14 -0.17763568394E-14  0.30318155620E+03  0.54900665349E+03  0.45769995582E+03 0.  0.
      99925    2    3    3    0    0 -0.32703455564E+02 -0.11650722696E+02  0.57993567000E+02  0.27157213240E+03  0.26302645102E+03 0.  0.
         25    1    3    3    0    0  0.32703455564E+02  0.11650722696E+02  0.24518798920E+03  0.27743452109E+03  0.12509000000E+03 0.  0.
         25    1    4    4    0    0 -0.23572391516E+02  0.25803100358E+02  0.38987759627E+01  0.12993908644E+03  0.12509000000E+03 0.  0.
         25    1    4    4    0    0 -0.91310640480E+01 -0.37453823054E+02  0.54094791038E+02  0.14163304597E+03  0.12509000000E+03 0.  0.
<mgrwt>
<rscale>  2 0.45769996E+03</rscale>
<asrwt>0</asrwt>
<pdfrwt beam="1">  1       21 0.62660897E-01 0.45769996E+03</pdfrwt>
<pdfrwt beam="2">  1       21 0.18075375E-01 0.45769996E+03</pdfrwt>
<totfact> 0.60626649E+04</totfact>
</mgrwt>
</event>
<event>
 7    0  0.4712189E-002  0.4572754E+03  0.7546771E-02  0.1025574E+00
         21   -1    0    0  502  501  0.00000000000E+00  0.00000000000E+00  0.57487011421E+02  0.57487011421E+02  0.00000000000E+00 0.  1.
         21   -1    0    0  501  502 -0.00000000000E+00 -0.00000000000E+00 -0.90933928776E+03  0.90933928776E+03  0.00000000000E+00 0.  1.
      99926    2    1    2    0    0 -0.17763568394E-14 -0.17763568394E-14 -0.85185227634E+03  0.96682629918E+03  0.45727540070E+03 0.  0.
      99925    2    3    3    0    0 -0.10727876004E+02  0.89784198506E+01 -0.77693079111E+03  0.82034614218E+03  0.26296509174E+03 0.  0.
         25    1    4    4    0    0 -0.40940688495E+02  0.22140171889E+02 -0.36899944512E+03  0.39239575149E+03  0.12509000000E+03 0.  0.
         25    1    3    3    0    0  0.10727876004E+02 -0.89784198506E+01 -0.74921485235E+02  0.14648015701E+03  0.12509000000E+03 0.  0.
         25    1    4    4    0    0  0.30212812491E+02 -0.13161752038E+02 -0.40793134598E+03  0.42795039069E+03  0.12509000000E+03 0.  0.
<mgrwt>
<rscale>  2 0.45727540E+03</rscale>
<asrwt>0</asrwt>
<pdfrwt beam="1">  1       21 0.84539721E-02 0.45727540E+03</pdfrwt>
<pdfrwt beam="2">  1       21 0.13372637E+00 0.45727540E+03</pdfrwt>
<totfact> 0.39754937E+04</totfact>
</mgrwt>
</event>
<event>
 7    0  0.4712189E-002  0.4426280E+03  0.7546771E-02  0.1029944E+00
         21   -1    0    0  502  501  0.00000000000E+00  0.00000000000E+00  0.21664734172E+03  0.21664734172E+03  0.00000000000E+00 0. -1.
         21   -1    0    0  501  502 -0.00000000000E+00 -0.00000000000E+00 -0.22608113770E+03  0.22608113770E+03  0.00000000000E+00 0. -1.
      99926    2    1    2    0    0  0.00000000000E+00  0.00000000000E+00 -0.94337959743E+01  0.44272847942E+03  0.44262795888E+03 0.  0.
      99925    2    3    3    0    0 -0.64214810340E+02  0.69240292881E+02 -0.42233508096E+02  0.28260012702E+03  0.26298555580E+03 0.  0.
         25    1    4    4    0    0 -0.60736619785E+02  0.17377514437E+02  0.18446595109E+01  0.14014929846E+03  0.12509000000E+03 0.  0.
         25    1    3    3    0    0  0.64214810340E+02 -0.69240292881E+02  0.32799712122E+02  0.16012835239E+03  0.12509000000E+03 0.  0.
         25    1    4    4    0    0 -0.34781905549E+01  0.51862778444E+02 -0.44078167607E+02  0.14245082856E+03  0.12509000000E+03 0.  0.
<mgrwt>
<rscale>  2 0.44262796E+03</rscale>
<asrwt>0</asrwt>
<pdfrwt beam="1">  1       21 0.31859903E-01 0.44262796E+03</pdfrwt>
<pdfrwt beam="2">  1       21 0.33247226E-01 0.44262796E+03</pdfrwt>
<totfact> 0.76756093E+04</totfact>
</mgrwt>
</event>
<event>
 7    0  0.4712189E-002  0.4557420E+03  0.7546771E-02  0.1026023E+00
         21   -1    0    0  502  501  0.00000000000E+00  0.00000000000E+00  0.19866537298E+04  0.19866537298E+04  0.00000000000E+00 0. -1.
         21   -1    0    0  501  502 -0.00000000000E+00 -0.00000000000E+00 -0.26137011946E+02  0.26137011946E+02  0.00000000000E+00 0. -1.
      99926    2    1    2    0    0 -0.35527136788E-14 -0.14210854715E-13  0.19605167178E+04  0.20127907417E+04  0.45574199836E+03 0.  0.
      99925    2    3    3    0    0 -0.23636759974E+02 -0.97027886370E+02  0.14748991240E+04  0.15014737532E+04  0.26291234012E+03 0.  0.
         25    1    4    4    0    0  0.23707779327E+02 -0.31548527134E+02  0.75892339387E+03  0.77017504129E+03  0.12509000000E+03 0.  0.
         25    1    4    4    0    0 -0.47344539301E+02 -0.65479359236E+02  0.71597573009E+03  0.73129871193E+03  0.12509000000E+03 0.  0.
         25    1    3    3    0    0  0.23636759974E+02  0.97027886370E+02  0.48561759384E+03  0.51131698848E+03  0.12509000000E+03 0.  0.
<mgrwt>
<rscale>  2 0.45574200E+03</rscale>
<asrwt>0</asrwt>
<pdfrwt beam="1">  1       21 0.29215486E+00 0.45574200E+03</pdfrwt>
<pdfrwt beam="2">  1       21 0.38436796E-02 0.45574200E+03</pdfrwt>
<totfact> 0.13424456E+04</totfact>
</mgrwt>
</event>
<event>
 7    0  0.4712189E-002  0.4580132E+03  0.7546771E-02  0.1025359E+00
         21   -1    0    0  502  501  0.00000000000E+00  0.00000000000E+00  0.13553797497E+03  0.13553797497E+03  0.00000000000E+00 0. -1.
         21   -1    0    0  501  502 -0.00000000000E+00 -0.00000000000E+00 -0.38693234423E+03  0.38693234423E+03  0.00000000000E+00 0. -1.
      99926    2    1    2    0    0  0.00000000000E+00  0.00000000000E+00 -0.25139436926E+03  0.52247031921E+03  0.45801321548E+03 0.  0.
      99925    2    3    3    0    0 -0.32080118695E+02 -0.11112593189E+03 -0.14808498003E+03  0.32322563356E+03  0.26299722837E+03 0.  0.
         25    1    4    4    0    0  0.14861951931E+01 -0.15003921253E+02 -0.62843080158E+02  0.14079803711E+03  0.12509000000E+03 0.  0.
         25    1    3    3    0    0  0.32080118695E+02  0.11112593189E+03 -0.10330938923E+03  0.19924468564E+03  0.12509000000E+03 0.  0.
         25    1    4    4    0    0 -0.33566313888E+02 -0.96122010633E+02 -0.85241899871E+02  0.18242759646E+03  0.12509000000E+03 0.  0.
<mgrwt>
<rscale>  2 0.45801322E+03</rscale>
<asrwt>0</asrwt>
<pdfrwt beam="1">  1       21 0.19932055E-01 0.45801322E+03</pdfrwt>
<pdfrwt beam="2">  1       21 0.56901816E-01 0.45801322E+03</pdfrwt>
<totfact> 0.62218525E+04</totfact>
</mgrwt>
</event>
<event>
 7    0  0.4712189E-002  0.4555775E+03  0.7546771E-02  0.1026072E+00
         21   -1    0    0  502  501  0.00000000000E+00  0.00000000000E+00  0.10169629891E+03  0.10169629891E+03  0.00000000000E+00 0.  1.
         21   -1    0    0  501  502 -0.00000000000E+00 -0.00000000000E+00 -0.51022221584E+03  0.51022221584E+03  0.00000000000E+00 0.  1.
      99926    2    1    2    0    0  0.00000000000E+00  0.00000000000E+00 -0.40852591694E+03  0.61191851475E+03  0.45557748396E+03 0.  0.
      99925    2    3    3    0    0  0.82805544222E+02 -0.76176713741E+02 -0.23102007093E+03  0.36734647356E+03  0.26251382552E+03 0.  0.
         25    1    4    4    0    0  0.63589037339E+01 -0.47895246402E+02 -0.86633108717E+02  0.15964709177E+03  0.12509000000E+03 0.  0.
         25    1    4    4    0    0  0.76446640488E+02 -0.28281467339E+02 -0.14438696222E+03  0.20769938179E+03  0.12509000000E+03 0.  0.
         25    1    3    3    0    0 -0.82805544222E+02  0.76176713741E+02 -0.17750584600E+03  0.24457204120E+03  0.12509000000E+03 0.  0.
<mgrwt>
<rscale>  2 0.45557748E+03</rscale>
<asrwt>0</asrwt>
<pdfrwt beam="1">  1       21 0.14955338E-01 0.45557748E+03</pdfrwt>
<pdfrwt beam="2">  1       21 0.75032680E-01 0.45557748E+03</pdfrwt>
<totfact> 0.57687011E+04</totfact>
</mgrwt>
</event>
<event>
 7    0  0.4712189E-002  0.4540006E+03  0.7546771E-02  0.1026536E+00
         21   -1    0    0  502  501  0.00000000000E+00  0.00000000000E+00  0.42900434759E+03  0.42900434759E+03  0.00000000000E+00 0. -1.
         21   -1    0    0  501  502 -0.00000000000E+00 -0.00000000000E+00 -0.12011329964E+03  0.12011329964E+03  0.00000000000E+00 0. -1.
      99926    2    1    2    0    0  0.00000000000E+00  0.00000000000E+00  0.30889104796E+03  0.54911764723E+03  0.45400056277E+03 0.  0.
      99925    2    3    3    0    0  0.28442941117E+02 -0.10854307940E+03  0.19716613472E+03  0.34732427439E+03  0.26300012532E+03 0.  0.
         25    1    4    4    0    0  0.24556243888E+02 -0.59758076496E+02  0.53409285670E+02  0.15057920413E+03  0.12509000000E+03 0.  0.
         25    1    3    3    0    0 -0.28442941117E+02  0.10854307940E+03  0.11172491323E+03  0.20179337284E+03  0.12509000000E+03 0.  0.
         25    1    4    4    0    0  0.38866972286E+01 -0.48785002902E+02  0.14375684905E+03  0.19674507026E+03  0.12509000000E+03 0.  0.
<mgrwt>
<rscale>  2 0.45400056E+03</rscale>
<asrwt>0</asrwt>
<pdfrwt beam="1">  1       21 0.63088874E-01 0.45400056E+03</pdfrwt>
<pdfrwt beam="2">  1       21 0.17663721E-01 0.45400056E+03</pdfrwt>
<totfact> 0.62416963E+04</totfact>
</mgrwt>
</event>
<event>
 7    0  0.4712189E-002  0.4414139E+03  0.7546771E-02  0.1030314E+00
         21   -1    0    0  502  501  0.00000000000E+00  0.00000000000E+00  0.47284910523E+03  0.47284910523E+03  0.00000000000E+00 0. -1.
         21   -1    0    0  501  502 -0.00000000000E+00 -0.00000000000E+00 -0.10301713232E+03  0.10301713232E+03  0.00000000000E+00 0. -1.
      99926    2    1    2    0    0  0.00000000000E+00  0.00000000000E+00  0.36983197291E+03  0.57586623755E+03  0.44141390481E+03 0.  0.
      99925    2    3    3    0    0  0.36977681097E+02  0.66126915453E+02  0.15087650740E+03  0.31256199941E+03  0.26304213568E+03 0.  0.
         25    1    4    4    0    0  0.15391440784E+02  0.72890025353E+02  0.93983267060E+02  0.17329228151E+03  0.12509000000E+03 0.  0.
         25    1    3    3    0    0 -0.36977681097E+02 -0.66126915453E+02  0.21895546550E+03  0.26330423814E+03  0.12509000000E+03 0.  0.
         25    1    4    4    0    0  0.21586240312E+02 -0.67631098996E+01  0.56893240343E+02  0.13926971790E+03  0.12509000000E+03 0.  0.
<mgrwt>
<rscale>  2 0.44141390E+03</rscale>
<asrwt>0</asrwt>
<pdfrwt beam="1">  1       21 0.69536632E-01 0.44141390E+03</pdfrwt>
<pdfrwt beam="2">  1       21 0.15149579E-01 0.44141390E+03</pdfrwt>
<totfact> 0.67112516E+04</totfact>
</mgrwt>
</event>
<event>
 7    0  0.4712189E-002  0.4554545E+03  0.7546771E-02  0.1026108E+00
         21   -1    0    0  502  501  0.00000000000E+00  0.00000000000E+00  0.43829725003E+03  0.43829725003E+03  0.00000000000E+00 0.  1.
         21   -1    0    0  501  502 -0.00000000000E+00 -0.00000000000E+00 -0.11832085448E+03  0.11832085448E+03  0.00000000000E+00 0.  1.
      99926    2    1    2    0    0  0.00000000000E+00  0.00000000000E+00  0.31997639555E+03  0.55661810451E+03  0.45545452084E+03 0.  0.
      99925    2    3    3    0    0  0.55222497494E+02 -0.27285642442E+00  0.32252790960E+03  0.41985693676E+03  0.26307032557E+03 0.  0.
         25    1    4    4    0    0 -0.88391060987E+01  0.89209326225E+01  0.12523514200E+03  0.17745157573E+03  0.12509000000E+03 0.  0.
         25    1    4    4    0    0  0.64061603593E+02 -0.91937890470E+01  0.19729276760E+03  0.24240536103E+03  0.12509000000E+03 0.  0.
         25    1    3    3    0    0 -0.55222497494E+02  0.27285642442E+00 -0.25515140476E+01  0.13676116775E+03  0.12509000000E+03 0.  0.
<mgrwt>
<rscale>  2 0.45545452E+03</rscale>
<asrwt>0</asrwt>
<pdfrwt beam="1">  1       21 0.64455478E-01 0.45545452E+03</pdfrwt>
<pdfrwt beam="2">  1       21 0.17400126E-01 0.45545452E+03</pdfrwt>
<totfact> 0.61210907E+04</totfact>
</mgrwt>
</event>
<event>
 7    0  0.4712189E-002  0.4534961E+03  0.7546771E-02  0.1026685E+00
         21   -1    0    0  502  501  0.00000000000E+00  0.00000000000E+00  0.15809639172E+03  0.15809639172E+03  0.00000000000E+00 0. -1.
         21   -1    0    0  501  502 -0.00000000000E+00 -0.00000000000E+00 -0.32521096504E+03  0.32521096504E+03  0.00000000000E+00 0. -1.
      99926    2    1    2    0    0 -0.88817841970E-15 -0.71054273576E-14 -0.16711457332E+03  0.48330735676E+03  0.45349610856E+03 0.  0.
      99925    2    3    3    0    0 -0.79913893028E+01 -0.43883233302E+02 -0.21454559923E+03  0.34228675263E+03  0.26294639456E+03 0.  0.
         25    1    4    4    0    0  0.95651920473E+01 -0.39663892141E+02 -0.65844897284E+02  0.14713183149E+03  0.12509000000E+03 0.  0.
         25    1    4    4    0    0 -0.17556581350E+02 -0.42193411612E+01 -0.14870070195E+03  0.19515492115E+03  0.12509000000E+03 0.  0.
         25    1    3    3    0    0  0.79913893028E+01  0.43883233302E+02  0.47431025908E+02  0.14102060412E+03  0.12509000000E+03 0.  0.
<mgrwt>
<rscale>  2 0.45349611E+03</rscale>
<asrwt>0</asrwt>
<pdfrwt beam="1">  1       21 0.23249470E-01 0.45349611E+03</pdfrwt>
<pdfrwt beam="2">  1       21 0.47825141E-01 0.45349611E+03</pdfrwt>
<totfact> 0.67259512E+04</totfact>
</mgrwt>
</event>
<event>
 7    0  0.4712189E-002  0.4287535E+03  0.7546771E-02  0.1034254E+00
         21   -1    0    0  502  501  0.00000000000E+00  0.00000000000E+00  0.46036905773E+03  0.46036905773E+03  0.00000000000E+00 0.  1.
         21   -1    0    0  501  502 -0.00000000000E+00 -0.00000000000E+00 -0.99827276242E+02  0.99827276242E+02  0.00000000000E+00 0.  1.
      99926    2    1    2    0    0  0.00000000000E+00  0.14210854715E-13  0.36054178149E+03  0.56019633398E+03  0.42875349141E+03 0.  0.
      99925    2    3    3    0    0 -0.34324091275E+02  0.67010243760E+02  0.17771397840E+03  0.32622618696E+03  0.26300713095E+03 0.  0.
         25    1    4    4    0    0  0.19986987829E+02  0.36399728919E+02  0.10598788886E+03  0.16913119355E+03  0.12509000000E+03 0.  0.
         25    1    4    4    0    0 -0.54311079104E+02  0.30610514841E+02  0.71726089534E+02  0.15709499340E+03  0.12509000000E+03 0.  0.
         25    1    3    3    0    0  0.34324091275E+02 -0.67010243760E+02  0.18282780310E+03  0.23397014702E+03  0.12509000000E+03 0.  0.
<mgrwt>
<rscale>  2 0.42875349E+03</rscale>
<asrwt>0</asrwt>
<pdfrwt beam="1">  1       21 0.67701331E-01 0.42875349E+03</pdfrwt>
<pdfrwt beam="2">  1       21 0.14680482E-01 0.42875349E+03</pdfrwt>
<totfact> 0.75738240E+04</totfact>
</mgrwt>
</event>
<event>
 6    0  0.4712189E-002  0.4423729E+03  0.7546771E-02  0.1030021E+00
         21   -1    0    0  502  501  0.00000000000E+00  0.00000000000E+00  0.78700055159E+03  0.78700055159E+03  0.00000000000E+00 0. -1.
         21   -1    0    0  501  502 -0.00000000000E+00 -0.00000000000E+00 -0.62164443861E+02  0.62164443861E+02  0.00000000000E+00 0. -1.
      99926    2    1    2    0    0  0.35527136788E-14 -0.17763568394E-14  0.72483610773E+03  0.84916499546E+03  0.44237292688E+03 0.  0.
         25    1    3    3    0    0  0.35874043992E+02 -0.32049833158E+02  0.26064466905E+03  0.29308239531E+03  0.12509000000E+03 0.  0.
         25    1    3    3    0    0 -0.81806787013E+01  0.22869229729E+02  0.38416108210E+03  0.40474333876E+03  0.12509000000E+03 0.  0.
         25    1    3    3    0    0 -0.27693365290E+02  0.91806034284E+01  0.80030356582E+02  0.15133926138E+03  0.12509000000E+03 0.  0.
<mgrwt>
<rscale>  2 0.44237293E+03</rscale>
<asrwt>0</asrwt>
<pdfrwt beam="1">  1       21 0.11573537E+00 0.44237293E+03</pdfrwt>
<pdfrwt beam="2">  1       21 0.91418305E-02 0.44237293E+03</pdfrwt>
<totfact> 0.50274581E+04</totfact>
</mgrwt>
</event>
<event>
 7    0  0.4712189E-002  0.4602337E+03  0.7546771E-02  0.1024713E+00
         21   -1    0    0  502  501  0.00000000000E+00  0.00000000000E+00  0.51465079571E+03  0.51465079571E+03  0.00000000000E+00 0. -1.
         21   -1    0    0  501  502 -0.00000000000E+00 -0.00000000000E+00 -0.10289262589E+03  0.10289262589E+03  0.00000000000E+00 0. -1.
      99926    2    1    2    0    0  0.35527136788E-14  0.00000000000E+00  0.41175816983E+03  0.61754342160E+03  0.46023373100E+03 0.  0.
      99925    2    3    3    0    0 -0.22303964295E+02 -0.91323077945E+01  0.41297499436E+03  0.49014697491E+03  0.26289702390E+03 0.  0.
         25    1    4    4    0    0 -0.18838783641E+02  0.19469219176E+02  0.26475114109E+03  0.29406568156E+03  0.12509000000E+03 0.  0.
         25    1    4    4    0    0 -0.34651806535E+01 -0.28601526970E+02  0.14822385327E+03  0.19608129334E+03  0.12509000000E+03 0.  0.
         25    1    3    3    0    0  0.22303964295E+02  0.91323077945E+01 -0.12168245308E+01  0.12739644670E+03  0.12509000000E+03 0.  0.
<mgrwt>
<rscale>  2 0.46023373E+03</rscale>
<asrwt>0</asrwt>
<pdfrwt beam="1">  1       21 0.75683940E-01 0.46023373E+03</pdfrwt>
<pdfrwt beam="2">  1       21 0.15131269E-01 0.46023373E+03</pdfrwt>
<totfact> 0.55290232E+04</totfact>
</mgrwt>
</event>
<event>
 7    0  0.4712189E-002  0.4682804E+03  0.7546771E-02  0.1022407E+00
         21   -1    0    0  502  501  0.00000000000E+00  0.00000000000E+00  0.33295914202E+03  0.33295914202E+03  0.00000000000E+00 0.  1.
         21   -1    0    0  501  502 -0.00000000000E+00 -0.00000000000E+00 -0.16464975635E+03  0.16464975635E+03  0.00000000000E+00 0.  1.
      99926    2    1    2    0    0  0.00000000000E+00  0.71054273576E-14  0.16830938568E+03  0.49760889837E+03  0.46828043567E+03 0.  0.
      99925    2    3    3    0    0  0.10690930211E+03  0.43732550274E+02  0.15605991708E+03  0.32690537641E+03  0.26300245736E+03 0.  0.
         25    1    4    4    0    0  0.93096313613E+02  0.38255818666E+02  0.75878214538E+02  0.17758221423E+03  0.12509000000E+03 0.  0.
         25    1    4    4    0    0  0.13812988493E+02  0.54767316078E+01  0.80181702540E+02  0.14932316218E+03  0.12509000000E+03 0.  0.
         25    1    3    3    0    0 -0.10690930211E+03 -0.43732550274E+02  0.12249468599E+02  0.17070352196E+03  0.12509000000E+03 0.  0.
<mgrwt>
<rscale>  2 0.46828044E+03</rscale>
<asrwt>0</asrwt>
<pdfrwt beam="1">  1       21 0.48964580E-01 0.46828044E+03</pdfrwt>
<pdfrwt beam="2">  1       21 0.24213199E-01 0.46828044E+03</pdfrwt>
<totfact> 0.58972128E+04</totfact>
</mgrwt>
</event>
<event>
 6    0  0.4712189E-002  0.4458656E+03  0.7546771E-02  0.1028962E+00
         21   -1    0    0  502  501  0.00000000000E+00  0.00000000000E+00  0.33199226356E+02  0.33199226356E+02  0.00000000000E+00 0. -1.
         21   -1    0    0  501  502 -0.00000000000E+00 -0.00000000000E+00 -0.14969937484E+04  0.14969937484E+04  0.00000000000E+00 0. -1.
      99926    2    1    2    0    0 -0.35527136788E-14  0.00000000000E+00 -0.14637945221E+04  0.15301929748E+04  0.44586560444E+03 0.  0.
         25    1    3    3    0    0  0.56969776191E+02 -0.57775163428E+02 -0.52955200995E+03  0.55014213095E+03  0.12509000000E+03 0.  0.
         25    1    3    3    0    0 -0.35859565064E+02 -0.35387076011E+02 -0.51086386984E+03  0.52836309027E+03  0.12509000000E+03 0.  0.
         25    1    3    3    0    0 -0.21110211127E+02  0.93162239439E+02 -0.42337864227E+03  0.45168775354E+03  0.12509000000E+03 0.  0.
<mgrwt>
<rscale>  2 0.44586560E+03</rscale>
<asrwt>0</asrwt>
<pdfrwt beam="1">  1       21 0.48822405E-02 0.44586560E+03</pdfrwt>
<pdfrwt beam="2">  1       21 0.22014608E+00 0.44586560E+03</pdfrwt>
<totfact> 0.24759290E+04</totfact>
</mgrwt>
</event>
<event>
 7    0  0.4712189E-002  0.4435232E+03  0.7546771E-02  0.1029671E+00
         21   -1    0    0  502  501  0.00000000000E+00  0.00000000000E+00  0.23620570065E+03  0.23620570065E+03  0.00000000000E+00 0. -1.
         21   -1    0    0  501  502 -0.00000000000E+00 -0.00000000000E+00 -0.20820075771E+03  0.20820075771E+03  0.00000000000E+00 0. -1.
      99926    2    1    2    0    0  0.00000000000E+00  0.00000000000E+00  0.28004942936E+02  0.44440645835E+03  0.44352319376E+03 0.  0.
      99925    2    3    3    0    0 -0.98455969351E+01  0.97947213358E+02  0.44030490566E+02  0.28442233833E+03  0.26318584699E+03 0.  0.
         25    1    3    3    0    0  0.98455969351E+01 -0.97947213358E+02 -0.16025547630E+02  0.15998412003E+03  0.12509000000E+03 0.  0.
         25    1    4    4    0    0  0.48180471023E+01  0.86233700126E+02  0.42823000245E+02  0.15792650843E+03  0.12509000000E+03 0.  0.
         25    1    4    4    0    0 -0.14663644037E+02  0.11713513232E+02  0.12074903211E+01  0.12649582990E+03  0.12509000000E+03 0.  0.
<mgrwt>
<rscale>  2 0.44352319E+03</rscale>
<asrwt>0</asrwt>
<pdfrwt beam="1">  1       21 0.34736133E-01 0.44352319E+03</pdfrwt>
<pdfrwt beam="2">  1       21 0.30617758E-01 0.44352319E+03</pdfrwt>
<totfact> 0.76058770E+04</totfact>
</mgrwt>
</event>
<event>
 7    0  0.4712189E-002  0.4556503E+03  0.7546771E-02  0.1026050E+00
         21   -1    0    0  502  501  0.00000000000E+00  0.00000000000E+00  0.16485116751E+03  0.16485116751E+03  0.00000000000E+00 0.  1.
         21   -1    0    0  501  502 -0.00000000000E+00 -0.00000000000E+00 -0.31485551867E+03  0.31485551867E+03  0.00000000000E+00 0.  1.
      99926    2    1    2    0    0  0.00000000000E+00  0.00000000000E+00 -0.15000435116E+03  0.47970668617E+03  0.45565030384E+03 0.  0.
      99925    2    3    3    0    0  0.98381738135E+02 -0.22997381297E+02 -0.39605387793E+02  0.28465980679E+03  0.26316301585E+03 0.  0.
         25    1    3    3    0    0 -0.98381738135E+02  0.22997381297E+02 -0.11039896337E+03  0.19504687938E+03  0.12509000000E+03 0.  0.
         25    1    4    4    0    0  0.91047070718E+02 -0.18670372942E+02 -0.12165369039E+02  0.15631268732E+03  0.12509000000E+03 0.  0.
         25    1    4    4    0    0  0.73346674166E+01 -0.43270083542E+01 -0.27440018754E+02  0.12834711947E+03  0.12509000000E+03 0.  0.
<mgrwt>
<rscale>  2 0.45565030E+03</rscale>
<asrwt>0</asrwt>
<pdfrwt beam="1">  1       21 0.24242819E-01 0.45565030E+03</pdfrwt>
<pdfrwt beam="2">  1       21 0.46302282E-01 0.45565030E+03</pdfrwt>
<totfact> 0.66378171E+04</totfact>
</mgrwt>
</event>
<event>
 7    0  0.4712189E-002  0.4542527E+03  0.7546771E-02  0.1026461E+00
         21   -1    0    0  502  501  0.00000000000E+00  0.00000000000E+00  0.33123512411E+04  0.33123512411E+04  0.00000000000E+00 0.  1.
         21   -1    0    0  501  502 -0.00000000000E+00 -0.00000000000E+00 -0.15573944965E+02  0.15573944965E+02  0.00000000000E+00 0.  1.
      99926    2    1    2    0    0 -0.53290705182E-14  0.00000000000E+00  0.32967772961E+04  0.33279251861E+04  0.45425268709E+03 0.  0.
      99925    2    3    3    0    0  0.14844279890E+02 -0.80889395622E+02  0.26383118522E+04  0.26526565758E+04  0.26293351447E+03 0.  0.
         25    1    4    4    0    0 -0.32473865083E+02 -0.44784975171E+02  0.13600936172E+04  0.13669536940E+04  0.12509000000E+03 0.  0.
         25    1    4    4    0    0  0.47318144973E+02 -0.36104420451E+02  0.12782182349E+04  0.12857028818E+04  0.12509000000E+03 0.  0.
         25    1    3    3    0    0 -0.14844279890E+02  0.80889395622E+02  0.65846544397E+03  0.67526861024E+03  0.12509000000E+03 0.  0.
<mgrwt>
<rscale>  2 0.45425269E+03</rscale>
<asrwt>0</asrwt>
<pdfrwt beam="1">  1       21 0.48710999E+00 0.45425269E+03</pdfrwt>
<pdfrwt beam="2">  1       21 0.22902883E-02 0.45425269E+03</pdfrwt>
<totfact> 0.18079735E+03</totfact>
</mgrwt>
</event>
<event>
 7    0  0.4712189E-002  0.4479277E+03  0.7546771E-02  0.1028342E+00
         21   -1    0    0  502  501  0.00000000000E+00  0.00000000000E+00  0.10462252833E+04  0.10462252833E+04  0.00000000000E+00 0.  1.
         21   -1    0    0  501  502 -0.00000000000E+00 -0.00000000000E+00 -0.47943594644E+02  0.47943594644E+02  0.00000000000E+00 0.  1.
      99926    2    1    2    0    0  0.00000000000E+00  0.00000000000E+00  0.99828168867E+03  0.10941688780E+04  0.44792767670E+03 0.  0.
      99925    2    3    3    0    0 -0.86055395511E+02  0.57969682511E+02  0.69027179467E+03  0.74591090161E+03  0.26294848819E+03 0.  0.
         25    1    4    4    0    0 -0.55775552439E+02 -0.96321430046E+01  0.33713782028E+03  0.36402349978E+03  0.12509000000E+03 0.  0.
         25    1    3    3    0    0  0.86055395511E+02 -0.57969682511E+02  0.30800989400E+03  0.34825797635E+03  0.12509000000E+03 0.  0.
         25    1    4    4    0    0 -0.30279843072E+02  0.67601825515E+02  0.35313397439E+03  0.38188740183E+03  0.12509000000E+03 0.  0.
<mgrwt>
<rscale>  2 0.44792768E+03</rscale>
<asrwt>0</asrwt>
<pdfrwt beam="1">  1       21 0.15385664E+00 0.44792768E+03</pdfrwt>
<pdfrwt beam="2">  1       21 0.70505293E-02 0.44792768E+03</pdfrwt>
<totfact> 0.37736612E+04</totfact>
</mgrwt>
</event>
<event>
 7    0  0.4712189E-002  0.4552648E+03  0.7546771E-02  0.1026164E+00
         21   -1    0    0  502  501  0.00000000000E+00  0.00000000000E+00  0.18623624709E+04  0.18623624709E+04  0.00000000000E+00 0. -1.
         21   -1    0    0  501  502 -0.00000000000E+00 -0.00000000000E+00 -0.27823002350E+02  0.27823002350E+02  0.00000000000E+00 0. -1.
      99926    2    1    2    0    0  0.00000000000E+00  0.00000000000E+00  0.18345394685E+04  0.18901854732E+04  0.45526482581E+03 0.  0.
      99925    2    3    3    0    0  0.44195484900E+02  0.10444900997E+03  0.11411446647E+04  0.11765282035E+04  0.26295366754E+03 0.  0.
         25    1    4    4    0    0 -0.50758515809E+01  0.73909833561E+02  0.49882859344E+03  0.51958242994E+03  0.12509000000E+03 0.  0.
         25    1    3    3    0    0 -0.44195484900E+02 -0.10444900997E+03  0.69339480388E+03  0.71365726979E+03  0.12509000000E+03 0.  0.
         25    1    4    4    0    0  0.49271336481E+02  0.30539176410E+02  0.64231607122E+03  0.65694577352E+03  0.12509000000E+03 0.  0.
<mgrwt>
<rscale>  2 0.45526483E+03</rscale>
<asrwt>0</asrwt>
<pdfrwt beam="1">  1       21 0.27387675E+00 0.45526483E+03</pdfrwt>
<pdfrwt beam="2">  1       21 0.40916193E-02 0.45526483E+03</pdfrwt>
<totfact> 0.15554665E+04</totfact>
</mgrwt>
</event>
<event>
 7    0  0.4712189E-002  0.4559109E+03  0.7546771E-02  0.1025974E+00
         21   -1    0    0  502  501  0.00000000000E+00  0.00000000000E+00  0.14417146988E+03  0.14417146988E+03  0.00000000000E+00 0.  1.
         21   -1    0    0  501  502 -0.00000000000E+00 -0.00000000000E+00 -0.36042971128E+03  0.36042971128E+03  0.00000000000E+00 0.  1.
      99926    2    1    2    0    0 -0.71054273576E-14 -0.71054273576E-14 -0.21625824141E+03  0.50460118116E+03  0.45591087402E+03 0.  0.
      99925    2    3    3    0    0  0.62420556905E+02  0.56491118546E+02 -0.51189428549E+02  0.28103286168E+03  0.26319486953E+03 0.  0.
         25    1    4    4    0    0  0.64531388396E+01  0.25717466324E+01 -0.46685040854E+02  0.13369838451E+03  0.12509000000E+03 0.  0.
         25    1    3    3    0    0 -0.62420556905E+02 -0.56491118546E+02 -0.16506881286E+03  0.22356831949E+03  0.12509000000E+03 0.  0.
         25    1    4    4    0    0  0.55967418065E+02  0.53919371914E+02 -0.45043876949E+01  0.14733447716E+03  0.12509000000E+03 0.  0.
<mgrwt>
<rscale>  2 0.45591087E+03</rscale>
<asrwt>0</asrwt>
<pdfrwt beam="1">  1       21 0.21201687E-01 0.45591087E+03</pdfrwt>
<pdfrwt beam="2">  1       21 0.53004369E-01 0.45591087E+03</pdfrwt>
<totfact> 0.64481148E+04</totfact>
</mgrwt>
</event>
<event>
 7    0  0.4712189E-002  0.4712417E+03  0.7546771E-02  0.1021570E+00
         21   -1    0    0  502  501  0.00000000000E+00  0.00000000000E+00  0.16017314232E+03  0.16017314232E+03  0.00000000000E+00 0.  1.
         21   -1    0    0  501  502 -0.00000000000E+00 -0.00000000000E+00 -0.34660730460E+03  0.34660730460E+03  0.00000000000E+00 0.  1.
      99926    2    1    2    0    0 -0.14210854715E-13  0.71054273576E-14 -0.18643416228E+03  0.50678044692E+03  0.47124168376E+03 0.  0.
      99925    2    3    3    0    0 -0.74859505150E+02  0.21124665463E+02 -0.22487716096E+03  0.35454520379E+03  0.26283524689E+03 0.  0.
         25    1    4    4    0    0 -0.58210587202E+02  0.43607012654E+02 -0.13589404522E+03  0.19850628111E+03  0.12509000000E+03 0.  0.
         25    1    3    3    0    0  0.74859505150E+02 -0.21124665463E+02  0.38442998682E+02  0.15223524313E+03  0.12509000000E+03 0.  0.
         25    1    4    4    0    0 -0.16648917948E+02 -0.22482347192E+02 -0.88983115742E+02  0.15603892268E+03  0.12509000000E+03 0.  0.
<mgrwt>
<rscale>  2 0.47124168E+03</rscale>
<asrwt>0</asrwt>
<pdfrwt beam="1">  1       21 0.23554874E-01 0.47124168E+03</pdfrwt>
<pdfrwt beam="2">  1       21 0.50971661E-01 0.47124168E+03</pdfrwt>
<totfact> 0.57075504E+04</totfact>
</mgrwt>
</event>
<event>
 6    0  0.4712189E-002  0.4507935E+03  0.7546771E-02  0.1027486E+00
         21   -1    0    0  502  501  0.00000000000E+00  0.00000000000E+00  0.81975432698E+03  0.81975432698E+03  0.00000000000E+00 0. -1.
         21   -1    0    0  501  502 -0.00000000000E+00 -0.00000000000E+00 -0.61974302998E+02  0.61974302998E+02  0.00000000000E+00 0. -1.
      99926    2    1    2    0    0  0.14210854715E-13  0.35527136788E-14  0.75778002398E+03  0.88172862998E+03  0.45079353609E+03 0.  0.
         25    1    3    3    0    0 -0.43207215311E+02 -0.52078629071E+02  0.16508023376E+03  0.21789455877E+03  0.12509000000E+03 0.  0.
         25    1    3    3    0    0 -0.26321172849E+02  0.20801695305E+02  0.15343905458E+03  0.20078985591E+03  0.12509000000E+03 0.  0.
         25    1    3    3    0    0  0.69528388160E+02  0.31276933766E+02  0.43926073564E+03  0.46304421530E+03  0.12509000000E+03 0.  0.
<mgrwt>
<rscale>  2 0.45079354E+03</rscale>
<asrwt>0</asrwt>
<pdfrwt beam="1">  1       21 0.12055210E+00 0.45079354E+03</pdfrwt>
<pdfrwt beam="2">  1       21 0.91138686E-02 0.45079354E+03</pdfrwt>
<totfact> 0.45514107E+04</totfact>
</mgrwt>
</event>
<event>
 7    0  0.4712189E-002  0.4520318E+03  0.7546771E-02  0.1027118E+00
         21   -1    0    0  502  501  0.00000000000E+00  0.00000000000E+00  0.13983878102E+03  0.13983878102E+03  0.00000000000E+00 0. -1.
         21   -1    0    0  501  502 -0.00000000000E+00 -0.00000000000E+00 -0.36530056905E+03  0.36530056905E+03  0.00000000000E+00 0. -1.
      99926    2    1    2    0    0 -0.71054273576E-14  0.14210854715E-13 -0.22546178803E+03  0.50513935007E+03  0.45203179659E+03 0.  0.
      99925    2    3    3    0    0 -0.55540437907E+02  0.95258110602E+02 -0.13682053143E+03  0.31629118792E+03  0.26298556967E+03 0.  0.
         25    1    4    4    0    0 -0.56770530042E+02  0.22084560981E+02 -0.53100956302E+02  0.14892226353E+03  0.12509000000E+03 0.  0.
         25    1    4    4    0    0  0.12300921353E+01  0.73173549621E+02 -0.83719575127E+02  0.16736892439E+03  0.12509000000E+03 0.  0.
         25    1    3    3    0    0  0.55540437907E+02 -0.95258110602E+02 -0.88641256597E+02  0.18884816216E+03  0.12509000000E+03 0.  0.
<mgrwt>
<rscale>  2 0.45203180E+03</rscale>
<asrwt>0</asrwt>
<pdfrwt beam="1">  1       21 0.20564527E-01 0.45203180E+03</pdfrwt>
<pdfrwt beam="2">  1       21 0.53720671E-01 0.45203180E+03</pdfrwt>
<totfact> 0.66463116E+04</totfact>
</mgrwt>
</event>
<event>
 7    0  0.4712189E-002  0.4124524E+03  0.7546771E-02  0.1039551E+00
         21   -1    0    0  502  501  0.00000000000E+00  0.00000000000E+00  0.61701957622E+02  0.61701957622E+02  0.00000000000E+00 0. -1.
         21   -1    0    0  501  502 -0.00000000000E+00 -0.00000000000E+00 -0.68926886831E+03  0.68926886831E+03  0.00000000000E+00 0. -1.
      99926    2    1    2    0    0  0.35527136788E-14  0.00000000000E+00 -0.62756691068E+03  0.75097082593E+03  0.41245236574E+03 0.  0.
      99925    2    3    3    0    0  0.27446106515E+02  0.30571215487E+02 -0.32001014794E+03  0.41641655770E+03  0.26326482250E+03 0.  0.
         25    1    4    4    0    0  0.49497918285E+01  0.18457926623E+02 -0.22172984227E+03  0.25529752554E+03  0.12509000000E+03 0.  0.
         25    1    3    3    0    0 -0.27446106515E+02 -0.30571215487E+02 -0.30755676274E+03  0.33455426823E+03  0.12509000000E+03 0.  0.
         25    1    4    4    0    0  0.22496314686E+02  0.12113288863E+02 -0.98280305671E+02  0.16111903216E+03  0.12509000000E+03 0.  0.
<mgrwt>
<rscale>  2 0.41245237E+03</rscale>
<asrwt>0</asrwt>
<pdfrwt beam="1">  1       21 0.90738168E-02 0.41245237E+03</pdfrwt>
<pdfrwt beam="2">  1       21 0.10136307E+00 0.41245237E+03</pdfrwt>
<totfact> 0.71199914E+04</totfact>
</mgrwt>
</event>
<event>
 7    0  0.4712189E-002  0.4524646E+03  0.7546771E-02  0.1026990E+00
         21   -1    0    0  502  501  0.00000000000E+00  0.00000000000E+00  0.14096552320E+03  0.14096552320E+03  0.00000000000E+00 0.  1.
         21   -1    0    0  501  502 -0.00000000000E+00 -0.00000000000E+00 -0.36307504757E+03  0.36307504757E+03  0.00000000000E+00 0.  1.
      99926    2    1    2    0    0  0.00000000000E+00 -0.14210854715E-13 -0.22210952437E+03  0.50404057076E+03  0.45246464631E+03 0.  0.
      99925    2    3    3    0    0 -0.29219228658E+02 -0.10409462546E+03 -0.11327623584E+03  0.30609702536E+03  0.26301032101E+03 0.  0.
         25    1    4    4    0    0 -0.44944795701E+02 -0.40938800824E+02 -0.29819020173E+02  0.14224170323E+03  0.12509000000E+03 0.  0.
         25    1    4    4    0    0  0.15725567043E+02 -0.63155824637E+02 -0.83457215671E+02  0.16385532214E+03  0.12509000000E+03 0.  0.
         25    1    3    3    0    0  0.29219228658E+02  0.10409462546E+03 -0.10883328853E+03  0.19794354540E+03  0.12509000000E+03 0.  0.
<mgrwt>
<rscale>  2 0.45246465E+03</rscale>
<asrwt>0</asrwt>
<pdfrwt beam="1">  1       21 0.20730224E-01 0.45246465E+03</pdfrwt>
<pdfrwt beam="2">  1       21 0.53393388E-01 0.45246465E+03</pdfrwt>
<totfact> 0.66312148E+04</totfact>
</mgrwt>
</event>
<event>
 7    0  0.4712189E-002  0.4502749E+03  0.7546771E-02  0.1027640E+00
         21   -1    0    0  502  501  0.00000000000E+00  0.00000000000E+00  0.87034642727E+02  0.87034642727E+02  0.00000000000E+00 0. -1.
         21   -1    0    0  501  502 -0.00000000000E+00 -0.00000000000E+00 -0.58237573338E+03  0.58237573338E+03  0.00000000000E+00 0. -1.
      99926    2    1    2    0    0  0.00000000000E+00 -0.14210854715E-13 -0.49534109066E+03  0.66941037611E+03  0.45027486667E+03 0.  0.
      99925    2    3    3    0    0 -0.37693047797E+02  0.10000171805E+03 -0.28372825785E+03  0.40136446853E+03  0.26300304718E+03 0.  0.
         25    1    4    4    0    0  0.44028693467E+01  0.27376740310E+02 -0.93008938024E+02  0.15832574592E+03  0.12509000000E+03 0.  0.
         25    1    4    4    0    0 -0.42095917144E+02  0.72624977736E+02 -0.19071931983E+03  0.24303872261E+03  0.12509000000E+03 0.  0.
         25    1    3    3    0    0  0.37693047797E+02 -0.10000171805E+03 -0.21161283280E+03  0.26804590758E+03  0.12509000000E+03 0.  0.
<mgrwt>
<rscale>  2 0.45027487E+03</rscale>
<asrwt>0</asrwt>
<pdfrwt beam="1">  1       21 0.12799212E-01 0.45027487E+03</pdfrwt>
<pdfrwt beam="2">  1       21 0.85643489E-01 0.45027487E+03</pdfrwt>
<totfact> 0.56676625E+04</totfact>
</mgrwt>
</event>
<event>
 7    0  0.4712189E-002  0.4539649E+03  0.7546771E-02  0.1026546E+00
         21   -1    0    0  502  501  0.00000000000E+00  0.00000000000E+00  0.59749321450E+03  0.59749321450E+03  0.00000000000E+00 0. -1.
         21   -1    0    0  501  502 -0.00000000000E+00 -0.00000000000E+00 -0.86228641952E+02  0.86228641952E+02  0.00000000000E+00 0. -1.
      99926    2    1    2    0    0  0.00000000000E+00 -0.35527136788E-14  0.51126457255E+03  0.68372185646E+03  0.45396488173E+03 0.  0.
      99925    2    3    3    0    0 -0.65235006756E+02  0.16156872778E+02  0.18671268094E+03  0.32946476183E+03  0.26299953121E+03 0.  0.
         25    1    4    4    0    0 -0.83917312796E+01 -0.24908784066E+02  0.81326163851E+02  0.15150023665E+03  0.12509000000E+03 0.  0.
         25    1    3    3    0    0  0.65235006756E+02 -0.16156872778E+02  0.32455189161E+03  0.35425709463E+03  0.12509000000E+03 0.  0.
         25    1    4    4    0    0 -0.56843275476E+02  0.41065656844E+02  0.10538651709E+03  0.17796452518E+03  0.12509000000E+03 0.  0.
<mgrwt>
<rscale>  2 0.45396488E+03</rscale>
<asrwt>0</asrwt>
<pdfrwt beam="1">  1       21 0.87866647E-01 0.45396488E+03</pdfrwt>
<pdfrwt beam="2">  1       21 0.12680683E-01 0.45396488E+03</pdfrwt>
<totfact> 0.54236641E+04</totfact>
</mgrwt>
</event>
<event>
 7    0  0.4712189E-002  0.4624096E+03  0.7546771E-02  0.1024085E+00
         21   -1    0    0  502  501  0.00000000000E+00  0.00000000000E+00  0.42829521159E+03  0.42829521159E+03  0.00000000000E+00 0. -1.
         21   -1    0    0  501  502 -0.00000000000E+00 -0.00000000000E+00 -0.12481033937E+03  0.12481033937E+03  0.00000000000E+00 0. -1.
      99926    2    1    2    0    0  0.00000000000E+00  0.71054273576E-14  0.30348487222E+03  0.55310555095E+03  0.46240964829E+03 0.  0.
      99925    2    3    3    0    0 -0.18144482874E+02 -0.57933034639E+02  0.65925518326E+02  0.27784673913E+03  0.26299653556E+03 0.  0.
         25    1    3    3    0    0  0.18144482874E+02  0.57933034639E+02  0.23755935390E+03  0.27525881182E+03  0.12509000000E+03 0.  0.
         25    1    4    4    0    0 -0.72391428529E+00 -0.64357227899E+02  0.54524087245E+02  0.15087332774E+03  0.12509000000E+03 0.  0.
         25    1    4    4    0    0 -0.17420568588E+02  0.64241932600E+01  0.11401431082E+02  0.12697341139E+03  0.12509000000E+03 0.  0.
<mgrwt>
<rscale>  2 0.46240965E+03</rscale>
<asrwt>0</asrwt>
<pdfrwt beam="1">  1       21 0.62984590E-01 0.46240965E+03</pdfrwt>
<pdfrwt beam="2">  1       21 0.18354462E-01 0.46240965E+03</pdfrwt>
<totfact> 0.58175700E+04</totfact>
</mgrwt>
</event>
<event>
 7    0  0.4712189E-002  0.4471807E+03  0.7546771E-02  0.1028566E+00
         21   -1    0    0  502  501  0.00000000000E+00  0.00000000000E+00  0.18601761791E+03  0.18601761791E+03  0.00000000000E+00 0. -1.
         21   -1    0    0  501  502 -0.00000000000E+00 -0.00000000000E+00 -0.26875216137E+03  0.26875216137E+03  0.00000000000E+00 0. -1.
      99926    2    1    2    0    0 -0.17763568394E-14  0.00000000000E+00 -0.82734543458E+02  0.45476977928E+03  0.44718066535E+03 0.  0.
      99925    2    3    3    0    0 -0.14749698675E+02 -0.29219949438E+02 -0.15457498768E+03  0.30685116455E+03  0.26304534080E+03 0.  0.
         25    1    4    4    0    0  0.25121802027E+02  0.45845804830E+01 -0.92993914659E+02  0.15794777485E+03  0.12509000000E+03 0.  0.
         25    1    3    3    0    0  0.14749698675E+02  0.29219949438E+02  0.71840444226E+02  0.14791861473E+03  0.12509000000E+03 0.  0.
         25    1    4    4    0    0 -0.39871500701E+02 -0.33804529921E+02 -0.61581073025E+02  0.14890338971E+03  0.12509000000E+03 0.  0.
<mgrwt>
<rscale>  2 0.44718067E+03</rscale>
<asrwt>0</asrwt>
<pdfrwt beam="1">  1       21 0.27355532E-01 0.44718067E+03</pdfrwt>
<pdfrwt beam="2">  1       21 0.39522376E-01 0.44718067E+03</pdfrwt>
<totfact> 0.73010138E+04</totfact>
</mgrwt>
</event>
<event>
 7    0  0.4712189E-002  0.4760032E+03  0.7546771E-02  0.1020239E+00
         21   -1    0    0  502  501  0.00000000000E+00  0.00000000000E+00  0.31541936249E+02  0.31541936249E+02  0.00000000000E+00 0.  1.
         21   -1    0    0  501  502 -0.00000000000E+00 -0.00000000000E+00 -0.17958553464E+04  0.17958553464E+04  0.00000000000E+00 0.  1.
      99926    2    1    2    0    0  0.00000000000E+00 -0.14210854715E-13 -0.17643134102E+04  0.18273972827E+04  0.47600317163E+03 0.  0.
      99925    2    3    3    0    0 -0.53765165451E+02  0.10991930095E+03 -0.12796987036E+04  0.13121576611E+04  0.26297530259E+03 0.  0.
         25    1    4    4    0    0  0.76640149795E+01  0.57170500528E+02 -0.51678800948E+03  0.53483133613E+03  0.12509000000E+03 0.  0.
         25    1    3    3    0    0  0.53765165451E+02 -0.10991930095E+03 -0.48461470652E+03  0.51523962155E+03  0.12509000000E+03 0.  0.
         25    1    4    4    0    0 -0.61429180430E+02  0.52748800427E+02 -0.76291069416E+03  0.77732632499E+03  0.12509000000E+03 0.  0.
<mgrwt>
<rscale>  2 0.47600317E+03</rscale>
<asrwt>0</asrwt>
<pdfrwt beam="1">  1       21 0.46385195E-02 0.47600317E+03</pdfrwt>
<pdfrwt beam="2">  1       21 0.26409640E+00 0.47600317E+03</pdfrwt>
<totfact> 0.14266934E+04</totfact>
</mgrwt>
</event>
<event>
 7    0  0.4712189E-002  0.4518621E+03  0.7546771E-02  0.1027168E+00
         21   -1    0    0  502  501  0.00000000000E+00  0.00000000000E+00  0.65824112965E+03  0.65824112965E+03  0.00000000000E+00 0.  1.
         21   -1    0    0  501  502 -0.00000000000E+00 -0.00000000000E+00 -0.77547313954E+02  0.77547313954E+02  0.00000000000E+00 0.  1.
      99926    2    1    2    0    0  0.00000000000E+00  0.00000000000E+00  0.58069381570E+03  0.73578844361E+03  0.45186206541E+03 0.  0.
      99925    2    3    3    0    0  0.76796994803E+02  0.32486814203E+02  0.48182945091E+03  0.55585833987E+03  0.26432121126E+03 0.  0.
         25    1    4    4    0    0  0.14078930335E+01  0.17422917665E+02  0.17624071304E+03  0.21682674479E+03  0.12509000000E+03 0.  0.
         25    1    3    3    0    0 -0.76796994803E+02 -0.32486814203E+02  0.98864364783E+02  0.17993010374E+03  0.12509000000E+03 0.  0.
         25    1    4    4    0    0  0.75389101770E+02  0.15063896538E+02  0.30558873788E+03  0.33903159508E+03  0.12509000000E+03 0.  0.
<mgrwt>
<rscale>  2 0.45186207E+03</rscale>
<asrwt>0</asrwt>
<pdfrwt beam="1">  1       21 0.96800163E-01 0.45186207E+03</pdfrwt>
<pdfrwt beam="2">  1       21 0.11404017E-01 0.45186207E+03</pdfrwt>
<totfact> 0.52280538E+04</totfact>
</mgrwt>
</event>
<event>
 7    0  0.4712189E-002  0.4521497E+03  0.7546771E-02  0.1027083E+00
         21   -1    0    0  502  501  0.00000000000E+00  0.00000000000E+00  0.63592997269E+03  0.63592997269E+03  0.00000000000E+00 0.  1.
         21   -1    0    0  501  502 -0.00000000000E+00 -0.00000000000E+00 -0.80370230640E+02  0.80370230640E+02  0.00000000000E+00 0.  1.
      99926    2    1    2    0    0  0.17763568394E-14  0.00000000000E+00  0.55555974205E+03  0.71630020333E+03  0.45214970342E+03 0.  0.
      99925    2    3    3    0    0  0.27565794152E+01  0.10385483897E+03  0.40767476974E+03  0.49650279788E+03  0.26367192515E+03 0.  0.
         25    1    4    4    0    0 -0.39553427311E+02  0.56050242359E+02  0.19407766582E+03  0.24087289543E+03  0.12509000000E+03 0.  0.
         25    1    4    4    0    0  0.42310006726E+02  0.47804596612E+02  0.21359710391E+03  0.25562990245E+03  0.12509000000E+03 0.  0.
         25    1    3    3    0    0 -0.27565794152E+01 -0.10385483897E+03  0.14788497232E+03  0.21979740546E+03  0.12509000000E+03 0.  0.
<mgrwt>
<rscale>  2 0.45214970E+03</rscale>
<asrwt>0</asrwt>
<pdfrwt beam="1">  1       21 0.93519111E-01 0.45214970E+03</pdfrwt>
<pdfrwt beam="2">  1       21 0.11819152E-01 0.45214970E+03</pdfrwt>
<totfact> 0.53209951E+04</totfact>
</mgrwt>
</event>
<event>
 7    0  0.4712189E-002  0.4433752E+03  0.7546771E-02  0.1029716E+00
         21   -1    0    0  502  501  0.00000000000E+00  0.00000000000E+00  0.38680778136E+03  0.38680778136E+03  0.00000000000E+00 0. -1.
         21   -1    0    0  501  502 -0.00000000000E+00 -0.00000000000E+00 -0.12705377641E+03  0.12705377641E+03  0.00000000000E+00 0. -1.
      99926    2    1    2    0    0  0.00000000000E+00  0.00000000000E+00  0.25975400495E+03  0.51386155777E+03  0.44337518815E+03 0.  0.
      99925    2    3    3    0    0  0.78639631722E+02  0.38639054751E+02  0.10497029336E+03  0.29641576291E+03  0.26299500715E+03 0.  0.
         25    1    4    4    0    0  0.56474782803E+02 -0.95211772123E+01  0.28452007880E+02  0.14048871400E+03  0.12509000000E+03 0.  0.
         25    1    4    4    0    0  0.22164848919E+02  0.48160231963E+02  0.76518285480E+02  0.15592704891E+03  0.12509000000E+03 0.  0.
         25    1    3    3    0    0 -0.78639631722E+02 -0.38639054751E+02  0.15478371159E+03  0.21744579486E+03  0.12509000000E+03 0.  0.
<mgrwt>
<rscale>  2 0.44337519E+03</rscale>
<asrwt>0</asrwt>
<pdfrwt beam="1">  1       21 0.56883497E-01 0.44337519E+03</pdfrwt>
<pdfrwt beam="2">  1       21 0.18684379E-01 0.44337519E+03</pdfrwt>
<totfact> 0.70596711E+04</totfact>
</mgrwt>
</event>
<event>
 7    0  0.4712189E-002  0.4553561E+03  0.7546771E-02  0.1026137E+00
         21   -1    0    0  502  501  0.00000000000E+00  0.00000000000E+00  0.85643145695E+02  0.85643145695E+02  0.00000000000E+00 0.  1.
         21   -1    0    0  501  502 -0.00000000000E+00 -0.00000000000E+00 -0.60527087032E+03  0.60527087032E+03  0.00000000000E+00 0.  1.
      99926    2    1    2    0    0  0.14210854715E-13  0.71054273576E-14 -0.51962772462E+03  0.69091401601E+03  0.45535613022E+03 0.  0.
      99925    2    3    3    0    0  0.10647429659E+03  0.38345288182E+02 -0.34056258206E+03  0.44490797881E+03  0.26296977079E+03 0.  0.
         25    1    4    4    0    0  0.62904875000E+02  0.47005849169E+01 -0.22915358969E+03  0.26858517190E+03  0.12509000000E+03 0.  0.
         25    1    4    4    0    0  0.43569421587E+02  0.33644703265E+02 -0.11140899237E+03  0.17632280691E+03  0.12509000000E+03 0.  0.
         25    1    3    3    0    0 -0.10647429659E+03 -0.38345288182E+02 -0.17906514256E+03  0.24600603720E+03  0.12509000000E+03 0.  0.
<mgrwt>
<rscale>  2 0.45535613E+03</rscale>
<asrwt>0</asrwt>
<pdfrwt beam="1">  1       21 0.12594580E-01 0.45535613E+03</pdfrwt>
<pdfrwt beam="2">  1       21 0.89010422E-01 0.45535613E+03</pdfrwt>
<totfact> 0.53249700E+04</totfact>
</mgrwt>
</event>
<event>
 7    0  0.4712189E-002  0.4559956E+03  0.7546771E-02  0.1025949E+00
         21   -1    0    0  502  501  0.00000000000E+00  0.00000000000E+00  0.15342271465E+04  0.15342271465E+04  0.00000000000E+00 0. -1.
         21   -1    0    0  501  502 -0.00000000000E+00 -0.00000000000E+00 -0.33882197196E+02  0.33882197196E+02  0.00000000000E+00 0. -1.
      99926    2    1    2    0    0  0.00000000000E+00  0.00000000000E+00  0.15003449493E+04  0.15681093437E+04  0.45599555578E+03 0.  0.
      99925    2    3    3    0    0 -0.10437959897E+03 -0.37956451386E+02  0.85393826171E+03  0.90040813301E+03  0.26303699037E+03 0.  0.
         25    1    4    4    0    0 -0.43446225893E+02 -0.48193960806E+02  0.34440304232E+03  0.37211718055E+03  0.12509000000E+03 0.  0.
         25    1    3    3    0    0  0.10437959897E+03  0.37956451386E+02  0.64640668762E+03  0.66770121071E+03  0.12509000000E+03 0.  0.
         25    1    4    4    0    0 -0.60933373076E+02  0.10237509420E+02  0.50953521939E+03  0.52829095246E+03  0.12509000000E+03 0.  0.
<mgrwt>
<rscale>  2 0.45599556E+03</rscale>
<asrwt>0</asrwt>
<pdfrwt beam="1">  1       21 0.22562159E+00 0.45599556E+03</pdfrwt>
<pdfrwt beam="2">  1       21 0.49826771E-02 0.45599556E+03</pdfrwt>
<totfact> 0.21987683E+04</totfact>
</mgrwt>
</event>
<event>
 7    0  0.4712189E-002  0.4528378E+03  0.7546771E-02  0.1026879E+00
         21   -1    0    0  502  501  0.00000000000E+00  0.00000000000E+00  0.44685372761E+03  0.44685372761E+03  0.00000000000E+00 0. -1.
         21   -1    0    0  501  502 -0.00000000000E+00 -0.00000000000E+00 -0.11472550541E+03  0.11472550541E+03  0.00000000000E+00 0. -1.
      99926    2    1    2    0    0  0.00000000000E+00 -0.14210854715E-13  0.33212822220E+03  0.56157923302E+03  0.45283780647E+03 0.  0.
      99925    2    3    3    0    0 -0.35369271212E+02  0.10509078303E+03  0.20155141322E+03  0.34946400686E+03  0.26307235107E+03 0.  0.
         25    1    3    3    0    0  0.35369271212E+02 -0.10509078303E+03  0.13057680898E+03  0.21211522615E+03  0.12509000000E+03 0.  0.
         25    1    4    4    0    0 -0.14886265834E+02  0.77132286623E+02  0.14784442970E+03  0.20898917207E+03  0.12509000000E+03 0.  0.
         25    1    4    4    0    0 -0.20483005378E+02  0.27958496403E+02  0.53706983525E+02  0.14047483479E+03  0.12509000000E+03 0.  0.
<mgrwt>
<rscale>  2 0.45283781E+03</rscale>
<asrwt>0</asrwt>
<pdfrwt beam="1">  1       21 0.65713783E-01 0.45283781E+03</pdfrwt>
<pdfrwt beam="2">  1       21 0.16871398E-01 0.45283781E+03</pdfrwt>
<totfact> 0.62164094E+04</totfact>
</mgrwt>
</event>
<event>
 7    0  0.4712189E-002  0.4534733E+03  0.7546771E-02  0.1026691E+00
         21   -1    0    0  502  501  0.00000000000E+00  0.00000000000E+00  0.31578984696E+03  0.31578984696E+03  0.00000000000E+00 0.  1.
         21   -1    0    0  501  502 -0.00000000000E+00 -0.00000000000E+00 -0.16279661974E+03  0.16279661974E+03  0.00000000000E+00 0.  1.
      99926    2    1    2    0    0  0.00000000000E+00  0.00000000000E+00  0.15299322723E+03  0.47858646670E+03  0.45347334931E+03 0.  0.
      99925    2    3    3    0    0  0.80034848515E+02  0.38779338522E+02  0.16780535271E+03  0.32439074291E+03  0.26298536769E+03 0.  0.
         25    1    3    3    0    0 -0.80034848515E+02 -0.38779338522E+02 -0.14812125482E+02  0.15419572379E+03  0.12509000000E+03 0.  0.
         25    1    4    4    0    0  0.74558421678E+01  0.10326786013E+02  0.10641531077E+03  0.16472388582E+03  0.12509000000E+03 0.  0.
         25    1    4    4    0    0  0.72579006347E+02  0.28452552509E+02  0.61390041935E+02  0.15966685710E+03  0.12509000000E+03 0.  0.
<mgrwt>
<rscale>  2 0.45347335E+03</rscale>
<asrwt>0</asrwt>
<pdfrwt beam="1">  1       21 0.46439683E-01 0.45347335E+03</pdfrwt>
<pdfrwt beam="2">  1       21 0.23940679E-01 0.45347335E+03</pdfrwt>
<totfact> 0.67618798E+04</totfact>
</mgrwt>
</event>
<event>
 7    0  0.4712189E-002  0.4643856E+03  0.7546771E-02  0.1023517E+00
         21   -1    0    0  502  501  0.00000000000E+00  0.00000000000E+00  0.48612363710E+03  0.48612363710E+03  0.00000000000E+00 0. -1.
         21   -1    0    0  501  502 -0.00000000000E+00 -0.00000000000E+00 -0.11090489854E+03  0.11090489854E+03  0.00000000000E+00 0. -1.
      99926    2    1    2    0    0  0.00000000000E+00  0.00000000000E+00  0.37521873855E+03  0.59702853564E+03  0.46438558398E+03 0.  0.
      99925    2    3    3    0    0 -0.12049574872E+03 -0.16516632369E+01  0.21069543108E+03  0.35778518619E+03  0.26286065003E+03 0.  0.
         25    1    4    4    0    0 -0.42756000953E+02  0.13335547648E+02  0.57579565397E+02  0.14480617010E+03  0.12509000000E+03 0.  0.
         25    1    4    4    0    0 -0.77739747765E+02 -0.14987210885E+02  0.15311586568E+03  0.21297901609E+03  0.12509000000E+03 0.  0.
         25    1    3    3    0    0  0.12049574872E+03  0.16516632369E+01  0.16452330748E+03  0.23924334944E+03  0.12509000000E+03 0.  0.
<mgrwt>
<rscale>  2 0.46438558E+03</rscale>
<asrwt>0</asrwt>
<pdfrwt beam="1">  1       21 0.71488769E-01 0.46438558E+03</pdfrwt>
<pdfrwt beam="2">  1       21 0.16309544E-01 0.46438558E+03</pdfrwt>
<totfact> 0.54690965E+04</totfact>
</mgrwt>
</event>
<event>
 7    0  0.4712189E-002  0.4536592E+03  0.7546771E-02  0.1026636E+00
         21   -1    0    0  502  501  0.00000000000E+00  0.00000000000E+00  0.42295879846E+03  0.42295879846E+03  0.00000000000E+00 0.  1.
         21   -1    0    0  501  502 -0.00000000000E+00 -0.00000000000E+00 -0.12164701792E+03  0.12164701792E+03  0.00000000000E+00 0.  1.
      99926    2    1    2    0    0  0.00000000000E+00  0.14210854715E-13  0.30131178054E+03  0.54460581638E+03  0.45365924011E+03 0.  0.
      99925    2    3    3    0    0  0.55152254470E+02 -0.75946438095E+02  0.26307543398E+03  0.38361153409E+03  0.26294389608E+03 0.  0.
         25    1    4    4    0    0  0.36946006079E+02 -0.65668052118E+02  0.18092234868E+03  0.23250312855E+03  0.12509000000E+03 0.  0.
         25    1    3    3    0    0 -0.55152254470E+02  0.75946438095E+02  0.38236346562E+02  0.16099428229E+03  0.12509000000E+03 0.  0.
         25    1    4    4    0    0  0.18206248390E+02 -0.10278385978E+02  0.82153085295E+02  0.15110840553E+03  0.12509000000E+03 0.  0.
<mgrwt>
<rscale>  2 0.45365924E+03</rscale>
<asrwt>0</asrwt>
<pdfrwt beam="1">  1       21 0.62199823E-01 0.45365924E+03</pdfrwt>
<pdfrwt beam="2">  1       21 0.17889267E-01 0.45365924E+03</pdfrwt>
<totfact> 0.62888940E+04</totfact>
</mgrwt>
</event>
<event>
 7    0  0.4712189E-002  0.4685280E+03  0.7546771E-02  0.1022337E+00
         21   -1    0    0  502  501  0.00000000000E+00  0.00000000000E+00  0.17906292363E+03  0.17906292363E+03  0.00000000000E+00 0.  1.
         21   -1    0    0  501  502 -0.00000000000E+00 -0.00000000000E+00 -0.30648228766E+03  0.30648228766E+03  0.00000000000E+00 0.  1.
      99926    2    1    2    0    0  0.14210854715E-13  0.14210854715E-13 -0.12741936403E+03  0.48554521128E+03  0.46852796914E+03 0.  0.
      99925    2    3    3    0    0  0.82237550305E+02  0.92200599517E+02 -0.56877732074E+02  0.29610499599E+03  0.26301925217E+03 0.  0.
         25    1    4    4    0    0 -0.10101206532E+01  0.40616383934E+02 -0.20275422165E+02  0.13307633836E+03  0.12509000000E+03 0.  0.
         25    1    4    4    0    0  0.83247670959E+02  0.51584215583E+02 -0.36602309909E+02  0.16302865763E+03  0.12509000000E+03 0.  0.
         25    1    3    3    0    0 -0.82237550305E+02 -0.92200599517E+02 -0.70541631960E+02  0.18944021530E+03  0.12509000000E+03 0.  0.
<mgrwt>
<rscale>  2 0.46852797E+03</rscale>
<asrwt>0</asrwt>
<pdfrwt beam="1">  1       21 0.26332783E-01 0.46852797E+03</pdfrwt>
<pdfrwt beam="2">  1       21 0.45070925E-01 0.46852797E+03</pdfrwt>
<totfact> 0.59634086E+04</totfact>
</mgrwt>
</event>
<event>
 7    0  0.4712189E-002  0.4324229E+03  0.7546771E-02  0.1033097E+00
         21   -1    0    0  502  501  0.00000000000E+00  0.00000000000E+00  0.41019002540E+02  0.41019002540E+02  0.00000000000E+00 0.  1.
         21   -1    0    0  501  502 -0.00000000000E+00 -0.00000000000E+00 -0.11396523163E+04  0.11396523163E+04  0.00000000000E+00 0.  1.
      99926    2    1    2    0    0 -0.71054273576E-14 -0.88817841970E-15 -0.10986333138E+04  0.11806713188E+04  0.43242294692E+03 0.  0.
      99925    2    3    3    0    0  0.61453668081E+02  0.51959326699E+01 -0.88662308423E+03  0.92690095697E+03  0.26313749164E+03 0.  0.
         25    1    4    4    0    0  0.61266350107E+02  0.27933338864E+02 -0.42660565577E+03  0.44963733242E+03  0.12509000000E+03 0.  0.
         25    1    4    4    0    0  0.18731797410E+00 -0.22737406194E+02 -0.46001742846E+03  0.47726362455E+03  0.12509000000E+03 0.  0.
         25    1    3    3    0    0 -0.61453668081E+02 -0.51959326699E+01 -0.21201022953E+03  0.25377036187E+03  0.12509000000E+03 0.  0.
<mgrwt>
<rscale>  2 0.43242295E+03</rscale>
<asrwt>0</asrwt>
<pdfrwt beam="1">  1       21 0.60322064E-02 0.43242295E+03</pdfrwt>
<pdfrwt beam="2">  1       21 0.16759593E+00 0.43242295E+03</pdfrwt>
<totfact> 0.39234560E+04</totfact>
</mgrwt>
</event>
<event>
 7    0  0.4712189E-002  0.4434936E+03  0.7546771E-02  0.1029680E+00
         21   -1    0    0  502  501  0.00000000000E+00  0.00000000000E+00  0.10317450678E+04  0.10317450678E+04  0.00000000000E+00 0. -1.
         21   -1    0    0  501  502 -0.00000000000E+00 -0.00000000000E+00 -0.47658709557E+02  0.47658709557E+02  0.00000000000E+00 0. -1.
      99926    2    1    2    0    0  0.00000000000E+00  0.00000000000E+00  0.98408635821E+03  0.10794037773E+04  0.44349357841E+03 0.  0.
      99925    2    3    3    0    0 -0.52758926243E+02  0.65450081071E+02  0.76620727715E+03  0.81447733570E+03  0.26312073539E+03 0.  0.
         25    1    3    3    0    0  0.52758926243E+02 -0.65450081071E+02  0.21787908106E+03  0.26492644163E+03  0.12509000000E+03 0.  0.
         25    1    4    4    0    0 -0.34498319902E+02  0.15475692270E+02  0.48252865465E+03  0.49991103387E+03  0.12509000000E+03 0.  0.
         25    1    4    4    0    0 -0.18260606341E+02  0.49974388802E+02  0.28367862250E+03  0.31456630182E+03  0.12509000000E+03 0.  0.
<mgrwt>
<rscale>  2 0.44349358E+03</rscale>
<asrwt>0</asrwt>
<pdfrwt beam="1">  1       21 0.15172720E+00 0.44349358E+03</pdfrwt>
<pdfrwt beam="2">  1       21 0.70086344E-02 0.44349358E+03</pdfrwt>
<totfact> 0.39659447E+04</totfact>
</mgrwt>
</event>
<event>
 7    0  0.4712189E-002  0.4966185E+03  0.7546771E-02  0.1014665E+00
         21   -1    0    0  502  501  0.00000000000E+00  0.00000000000E+00  0.88278254272E+02  0.88278254272E+02  0.00000000000E+00 0.  1.
         21   -1    0    0  501  502 -0.00000000000E+00 -0.00000000000E+00 -0.69844470733E+03  0.69844470733E+03  0.00000000000E+00 0.  1.
      99926    2    1    2    0    0  0.00000000000E+00  0.14210854715E-13 -0.61016645306E+03  0.78672296161E+03  0.49661848322E+03 0.  0.
      99925    2    3    3    0    0  0.13393878365E+03  0.51054392302E+02 -0.43799526508E+03  0.53013657301E+03  0.26202821427E+03 0.  0.
         25    1    3    3    0    0 -0.13393878365E+03 -0.51054392302E+02 -0.17217118798E+03  0.25658638859E+03  0.12509000000E+03 0.  0.
         25    1    4    4    0    0  0.33153622831E+02  0.24809173949E+01 -0.16541253805E+03  0.21003364850E+03  0.12509000000E+03 0.  0.
         25    1    4    4    0    0  0.10078516082E+03  0.48573474907E+02 -0.27258272703E+03  0.32010292452E+03  0.12509000000E+03 0.  0.
<mgrwt>
<rscale>  2 0.49661848E+03</rscale>
<asrwt>0</asrwt>
<pdfrwt beam="1">  1       21 0.12982095E-01 0.49661848E+03</pdfrwt>
<pdfrwt beam="2">  1       21 0.10271246E+00 0.49661848E+03</pdfrwt>
<totfact> 0.35366944E+04</totfact>
</mgrwt>
</event>
<event>
 7    0  0.4712189E-002  0.4596861E+03  0.7546771E-02  0.1024872E+00
         21   -1    0    0  502  501  0.00000000000E+00  0.00000000000E+00  0.15143800277E+04  0.15143800277E+04  0.00000000000E+00 0.  1.
         21   -1    0    0  501  502 -0.00000000000E+00 -0.00000000000E+00 -0.34884134231E+02  0.34884134231E+02  0.00000000000E+00 0.  1.
      99926    2    1    2    0    0  0.71054273576E-14  0.14210854715E-13  0.14794958935E+04  0.15492641620E+04  0.45968613712E+03 0.  0.
      99925    2    3    3    0    0  0.40588160619E+02  0.10940277333E+03  0.97180509879E+03  0.10135274573E+04  0.26309008165E+03 0.  0.
         25    1    4    4    0    0  0.54480629701E+02  0.67513853679E+02  0.59059386176E+03  0.60989743162E+03  0.12509000000E+03 0.  0.
         25    1    4    4    0    0 -0.13892469082E+02  0.41888919652E+02  0.38121123703E+03  0.40363002568E+03  0.12509000000E+03 0.  0.
         25    1    3    3    0    0 -0.40588160619E+02 -0.10940277333E+03  0.50769079472E+03  0.53573670467E+03  0.12509000000E+03 0.  0.
<mgrwt>
<rscale>  2 0.45968614E+03</rscale>
<asrwt>0</asrwt>
<pdfrwt beam="1">  1       21 0.22270290E+00 0.45968614E+03</pdfrwt>
<pdfrwt beam="2">  1       21 0.51300207E-02 0.45968614E+03</pdfrwt>
<totfact> 0.21793190E+04</totfact>
</mgrwt>
</event>
<event>
 7    0  0.4712189E-002  0.4552332E+03  0.7546771E-02  0.1026173E+00
         21   -1    0    0  502  501  0.00000000000E+00  0.00000000000E+00  0.24711733878E+03  0.24711733878E+03  0.00000000000E+00 0. -1.
         21   -1    0    0  501  502 -0.00000000000E+00 -0.00000000000E+00 -0.20965473853E+03  0.20965473853E+03  0.00000000000E+00 0. -1.
      99926    2    1    2    0    0  0.00000000000E+00  0.00000000000E+00  0.37462600252E+02  0.45677207731E+03  0.45523321957E+03 0.  0.
      99925    2    3    3    0    0 -0.39365600249E+02 -0.66477695722E+02 -0.59678107071E+02  0.28055414511E+03  0.26302132492E+03 0.  0.
         25    1    4    4    0    0 -0.12377221862E+02 -0.94840346996E+01 -0.61931318086E+02  0.14044977321E+03  0.12509000000E+03 0.  0.
         25    1    4    4    0    0 -0.26988378387E+02 -0.56993661023E+02  0.22532110147E+01  0.14010437190E+03  0.12509000000E+03 0.  0.
         25    1    3    3    0    0  0.39365600249E+02  0.66477695722E+02  0.97140707323E+02  0.17621793221E+03  0.12509000000E+03 0.  0.
<mgrwt>
<rscale>  2 0.45523322E+03</rscale>
<asrwt>0</asrwt>
<pdfrwt beam="1">  1       21 0.36340785E-01 0.45523322E+03</pdfrwt>
<pdfrwt beam="2">  1       21 0.30831579E-01 0.45523322E+03</pdfrwt>
<totfact> 0.68289036E+04</totfact>
</mgrwt>
</event>
<event>
 7    0  0.4712189E-002  0.4565922E+03  0.7546771E-02  0.1025774E+00
         21   -1    0    0  502  501  0.00000000000E+00  0.00000000000E+00  0.15609865350E+03  0.15609865350E+03  0.00000000000E+00 0. -1.
         21   -1    0    0  501  502 -0.00000000000E+00 -0.00000000000E+00 -0.33388564924E+03  0.33388564924E+03  0.00000000000E+00 0. -1.
      99926    2    1    2    0    0  0.00000000000E+00  0.71054273576E-14 -0.17778699574E+03  0.48998430274E+03  0.45659216055E+03 0.  0.
      99925    2    3    3    0    0  0.66107190828E+02  0.50619305675E+02 -0.27088681793E+02  0.27716991245E+03  0.26297697409E+03 0.  0.
         25    1    4    4    0    0  0.33586529491E+02  0.66222364099E+02 -0.19406009943E+02  0.14675679811E+03  0.12509000000E+03 0.  0.
         25    1    4    4    0    0  0.32520661337E+02 -0.15603058424E+02 -0.76826718501E+01  0.13041311434E+03  0.12509000000E+03 0.  0.
         25    1    3    3    0    0 -0.66107190828E+02 -0.50619305675E+02 -0.15069831395E+03  0.21281439029E+03  0.12509000000E+03 0.  0.
<mgrwt>
<rscale>  2 0.45659216E+03</rscale>
<asrwt>0</asrwt>
<pdfrwt beam="1">  1       21 0.22955684E-01 0.45659216E+03</pdfrwt>
<pdfrwt beam="2">  1       21 0.49100831E-01 0.45659216E+03</pdfrwt>
<totfact> 0.65152775E+04</totfact>
</mgrwt>
</event>
<event>
 7    0  0.4712189E-002  0.4631258E+03  0.7546771E-02  0.1023879E+00
         21   -1    0    0  502  501  0.00000000000E+00  0.00000000000E+00  0.23707632875E+03  0.23707632875E+03  0.00000000000E+00 0.  1.
         21   -1    0    0  501  502 -0.00000000000E+00 -0.00000000000E+00 -0.22617764754E+03  0.22617764754E+03  0.00000000000E+00 0.  1.
      99926    2    1    2    0    0  0.00000000000E+00  0.17763568394E-14  0.10898681211E+02  0.46325397628E+03  0.46312575537E+03 0.  0.
      99925    2    3    3    0    0  0.11672241547E+03 -0.14409802956E+02  0.33441966808E+02  0.29008506303E+03  0.26305743471E+03 0.  0.
         25    1    4    4    0    0  0.60909504184E+02  0.29076741135E+02 -0.16591634692E+01  0.14214670414E+03  0.12509000000E+03 0.  0.
         25    1    4    4    0    0  0.55812911281E+02 -0.43486544091E+02  0.35101130277E+02  0.14793835888E+03  0.12509000000E+03 0.  0.
         25    1    3    3    0    0 -0.11672241547E+03  0.14409802956E+02 -0.22543285597E+02  0.17316891326E+03  0.12509000000E+03 0.  0.
<mgrwt>
<rscale>  2 0.46312576E+03</rscale>
<asrwt>0</asrwt>
<pdfrwt beam="1">  1       21 0.34864166E-01 0.46312576E+03</pdfrwt>
<pdfrwt beam="2">  1       21 0.33261419E-01 0.46312576E+03</pdfrwt>
<totfact> 0.63713174E+04</totfact>
</mgrwt>
</event>
<event>
 7    0  0.4712189E-002  0.4551701E+03  0.7546771E-02  0.1026191E+00
         21   -1    0    0  502  501  0.00000000000E+00  0.00000000000E+00  0.35034425398E+03  0.35034425398E+03  0.00000000000E+00 0. -1.
         21   -1    0    0  501  502 -0.00000000000E+00 -0.00000000000E+00 -0.14784014521E+03  0.14784014521E+03  0.00000000000E+00 0. -1.
      99926    2    1    2    0    0 -0.35527136788E-14  0.00000000000E+00  0.20250410877E+03  0.49818439919E+03  0.45517005781E+03 0.  0.
      99925    2    3    3    0    0  0.74041922960E+01  0.17871135614E+02  0.24955998339E+03  0.36314380164E+03  0.26309510791E+03 0.  0.
         25    1    4    4    0    0  0.42640288440E+02  0.81967000763E+01  0.14214753905E+03  0.19426479621E+03  0.12509000000E+03 0.  0.
         25    1    3    3    0    0 -0.74041922960E+01 -0.17871135614E+02 -0.47055874617E+02  0.13504059755E+03  0.12509000000E+03 0.  0.
         25    1    4    4    0    0 -0.35236096144E+02  0.96744355382E+01  0.10741244434E+03  0.16887900543E+03  0.12509000000E+03 0.  0.
<mgrwt>
<rscale>  2 0.45517006E+03</rscale>
<asrwt>0</asrwt>
<pdfrwt beam="1">  1       21 0.51521214E-01 0.45517006E+03</pdfrwt>
<pdfrwt beam="2">  1       21 0.21741198E-01 0.45517006E+03</pdfrwt>
<totfact> 0.65310189E+04</totfact>
</mgrwt>
</event>
<event>
 7    0  0.4712189E-002  0.4583720E+03  0.7546771E-02  0.1025254E+00
         21   -1    0    0  502  501  0.00000000000E+00  0.00000000000E+00  0.97952321699E+03  0.97952321699E+03  0.00000000000E+00 0.  1.
         21   -1    0    0  501  502 -0.00000000000E+00 -0.00000000000E+00 -0.53624269025E+02  0.53624269025E+02  0.00000000000E+00 0.  1.
      99926    2    1    2    0    0  0.00000000000E+00  0.00000000000E+00  0.92589894797E+03  0.10331474860E+04  0.45837197342E+03 0.  0.
      99925    2    3    3    0    0 -0.51837205029E+02 -0.31212095431E+02  0.35689580024E+03  0.44742282293E+03  0.26296630872E+03 0.  0.
         25    1    4    4    0    0 -0.64291716049E+02 -0.26251112983E+02  0.17102969359E+03  0.22298253267E+03  0.12509000000E+03 0.  0.
         25    1    4    4    0    0  0.12454511020E+02 -0.49609824484E+01  0.18586610665E+03  0.22444029026E+03  0.12509000000E+03 0.  0.
         25    1    3    3    0    0  0.51837205029E+02  0.31212095431E+02  0.56900314773E+03  0.58572466309E+03  0.12509000000E+03 0.  0.
<mgrwt>
<rscale>  2 0.45837197E+03</rscale>
<asrwt>0</asrwt>
<pdfrwt beam="1">  1       21 0.14404752E+00 0.45837197E+03</pdfrwt>
<pdfrwt beam="2">  1       21 0.78859226E-02 0.45837197E+03</pdfrwt>
<totfact> 0.36920402E+04</totfact>
</mgrwt>
</event>
<event>
 7    0  0.4712189E-002  0.4534975E+03  0.7546771E-02  0.1026684E+00
         21   -1    0    0  502  501  0.00000000000E+00  0.00000000000E+00  0.73311372371E+02  0.73311372371E+02  0.00000000000E+00 0.  1.
         21   -1    0    0  501  502 -0.00000000000E+00 -0.00000000000E+00 -0.70132375188E+03  0.70132375188E+03  0.00000000000E+00 0.  1.
      99926    2    1    2    0    0  0.00000000000E+00  0.71054273576E-14 -0.62801237951E+03  0.77463512425E+03  0.45349754895E+03 0.  0.
      99925    2    3    3    0    0 -0.10532840327E+03 -0.32890900950E+02 -0.36487158884E+03  0.46308020499E+03  0.26293747548E+03 0.  0.
         25    1    4    4    0    0 -0.31239135503E+02  0.46133593436E+01 -0.21629628860E+03  0.25185066852E+03  0.12509000000E+03 0.  0.
         25    1    3    3    0    0  0.10532840327E+03  0.32890900950E+02 -0.26314079067E+03  0.31155491926E+03  0.12509000000E+03 0.  0.
         25    1    4    4    0    0 -0.74089267762E+02 -0.37504260294E+02 -0.14857530024E+03  0.21122953647E+03  0.12509000000E+03 0.  0.
<mgrwt>
<rscale>  2 0.45349755E+03</rscale>
<asrwt>0</asrwt>
<pdfrwt beam="1">  1       21 0.10781084E-01 0.45349755E+03</pdfrwt>
<pdfrwt beam="2">  1       21 0.10313585E+00 0.45349755E+03</pdfrwt>
<totfact> 0.49598533E+04</totfact>
</mgrwt>
</event>
<event>
 7    0  0.4712189E-002  0.4574892E+03  0.7546771E-02  0.1025512E+00
         21   -1    0    0  502  501  0.00000000000E+00  0.00000000000E+00  0.42641248517E+03  0.42641248517E+03  0.00000000000E+00 0. -1.
         21   -1    0    0  501  502 -0.00000000000E+00 -0.00000000000E+00 -0.12270770189E+03  0.12270770189E+03  0.00000000000E+00 0. -1.
      99926    2    1    2    0    0 -0.71054273576E-14 -0.71054273576E-14  0.30370478328E+03  0.54912018706E+03  0.45748921785E+03 0.  0.
      99925    2    3    3    0    0 -0.51250162362E+02 -0.57710435554E+02  0.29384683335E+03  0.40180501205E+03  0.26295290970E+03 0.  0.
         25    1    4    4    0    0 -0.82615332224E+01 -0.56595946197E+02  0.18484041041E+03  0.23040147456E+03  0.12509000000E+03 0.  0.
         25    1    4    4    0    0 -0.42988629140E+02 -0.11144893574E+01  0.10900642293E+03  0.17140353749E+03  0.12509000000E+03 0.  0.
         25    1    3    3    0    0  0.51250162362E+02  0.57710435554E+02  0.98579499348E+01  0.14731517502E+03  0.12509000000E+03 0.  0.
<mgrwt>
<rscale>  2 0.45748922E+03</rscale>
<asrwt>0</asrwt>
<pdfrwt beam="1">  1       21 0.62707718E-01 0.45748922E+03</pdfrwt>
<pdfrwt beam="2">  1       21 0.18045250E-01 0.45748922E+03</pdfrwt>
<totfact> 0.60719943E+04</totfact>
</mgrwt>
</event>
<event>
 7    0  0.4712189E-002  0.4540085E+03  0.7546771E-02  0.1026533E+00
         21   -1    0    0  502  501  0.00000000000E+00  0.00000000000E+00  0.14241034491E+03  0.14241034491E+03  0.00000000000E+00 0. -1.
         21   -1    0    0  501  502 -0.00000000000E+00 -0.00000000000E+00 -0.36184818361E+03  0.36184818361E+03  0.00000000000E+00 0. -1.
      99926    2    1    2    0    0  0.00000000000E+00  0.00000000000E+00 -0.21943783870E+03  0.50425852851E+03  0.45400847847E+03 0.  0.
      99925    2    3    3    0    0  0.10598226731E+03 -0.25315259777E+02 -0.16822630420E+03  0.33064046284E+03  0.26296372921E+03 0.  0.
         25    1    4    4    0    0  0.83623280503E+02 -0.26994571988E+02 -0.12137855832E+03  0.19519688132E+03  0.12509000000E+03 0.  0.
         25    1    4    4    0    0  0.22358986809E+02  0.16793122111E+01 -0.46847745883E+02  0.13544358152E+03  0.12509000000E+03 0.  0.
         25    1    3    3    0    0 -0.10598226731E+03  0.25315259777E+02 -0.51211534502E+02  0.17361806567E+03  0.12509000000E+03 0.  0.
<mgrwt>
<rscale>  2 0.45400848E+03</rscale>
<asrwt>0</asrwt>
<pdfrwt beam="1">  1       21 0.20942698E-01 0.45400848E+03</pdfrwt>
<pdfrwt beam="2">  1       21 0.53212968E-01 0.45400848E+03</pdfrwt>
<totfact> 0.65486375E+04</totfact>
</mgrwt>
</event>
<event>
 7    0  0.4712189E-002  0.4554555E+03  0.7546771E-02  0.1026108E+00
         21   -1    0    0  502  501  0.00000000000E+00  0.00000000000E+00  0.27182844988E+03  0.27182844988E+03  0.00000000000E+00 0. -1.
         21   -1    0    0  501  502 -0.00000000000E+00 -0.00000000000E+00 -0.19078183301E+03  0.19078183301E+03  0.00000000000E+00 0. -1.
      99926    2    1    2    0    0  0.14210854715E-13  0.00000000000E+00  0.81046616861E+02  0.46261028289E+03  0.45545550796E+03 0.  0.
      99925    2    3    3    0    0 -0.74627497813E+02 -0.84589910736E+02  0.62128499318E+02  0.29311066726E+03  0.26330437977E+03 0.  0.
         25    1    3    3    0    0  0.74627497813E+02  0.84589910736E+02  0.18918117543E+02  0.16949961563E+03  0.12509000000E+03 0.  0.
         25    1    4    4    0    0 -0.51564796636E+02 -0.83711902361E+02  0.29886429500E+02  0.16188674318E+03  0.12509000000E+03 0.  0.
         25    1    4    4    0    0 -0.23062701177E+02 -0.87800837483E+00  0.32242069819E+02  0.13122392408E+03  0.12509000000E+03 0.  0.
<mgrwt>
<rscale>  2 0.45545551E+03</rscale>
<asrwt>0</asrwt>
<pdfrwt beam="1">  1       21 0.39974772E-01 0.45545551E+03</pdfrwt>
<pdfrwt beam="2">  1       21 0.28056152E-01 0.45545551E+03</pdfrwt>
<totfact> 0.67742249E+04</totfact>
</mgrwt>
</event>
<event>
 7    0  0.4712189E-002  0.4534519E+03  0.7546771E-02  0.1026698E+00
         21   -1    0    0  502  501  0.00000000000E+00  0.00000000000E+00  0.13477830533E+03  0.13477830533E+03  0.00000000000E+00 0. -1.
         21   -1    0    0  501  502 -0.00000000000E+00 -0.00000000000E+00 -0.38140162016E+03  0.38140162016E+03  0.00000000000E+00 0. -1.
      99926    2    1    2    0    0  0.00000000000E+00  0.00000000000E+00 -0.24662331483E+03  0.51617992550E+03  0.45345193358E+03 0.  0.
      99925    2    3    3    0    0  0.83834524031E+02 -0.58598762976E+02 -0.10398946808E+03  0.30064810701E+03  0.26289433682E+03 0.  0.
         25    1    4    4    0    0  0.70011948911E+02 -0.34827678730E+02 -0.23501450622E+02  0.14938027473E+03  0.12509000000E+03 0.  0.
         25    1    4    4    0    0  0.13822575120E+02 -0.23771084246E+02 -0.80488017455E+02  0.15126783228E+03  0.12509000000E+03 0.  0.
         25    1    3    3    0    0 -0.83834524031E+02  0.58598762976E+02 -0.14263384675E+03  0.21553181849E+03  0.12509000000E+03 0.  0.
<mgrwt>
<rscale>  2 0.45345193E+03</rscale>
<asrwt>0</asrwt>
<pdfrwt beam="1">  1       21 0.19820339E-01 0.45345193E+03</pdfrwt>
<pdfrwt beam="2">  1       21 0.56088473E-01 0.45345193E+03</pdfrwt>
<totfact> 0.64942326E+04</totfact>
</mgrwt>
</event>
<event>
 7    0  0.4712189E-002  0.4582236E+03  0.7546771E-02  0.1025298E+00
         21   -1    0    0  502  501  0.00000000000E+00  0.00000000000E+00  0.17243504720E+02  0.17243504720E+02  0.00000000000E+00 0. -1.
         21   -1    0    0  501  502 -0.00000000000E+00 -0.00000000000E+00 -0.30441732764E+04  0.30441732764E+04  0.00000000000E+00 0. -1.
      99926    2    1    2    0    0  0.00000000000E+00  0.00000000000E+00 -0.30269297717E+04  0.30614167811E+04  0.45822359722E+03 0.  0.
      99925    2    3    3    0    0  0.93200417038E+02  0.28475352000E+02 -0.23190422805E+04  0.23359863078E+04  0.26339659811E+03 0.  0.
         25    1    3    3    0    0 -0.93200417038E+02 -0.28475352000E+02 -0.70788749116E+03  0.72543047333E+03  0.12509000000E+03 0.  0.
         25    1    4    4    0    0  0.98085864884E+01  0.44856503862E+01 -0.12214868966E+04  0.12279226670E+04  0.12509000000E+03 0.  0.
         25    1    4    4    0    0  0.83391830550E+02  0.23989701613E+02 -0.10975553839E+04  0.11080636408E+04  0.12509000000E+03 0.  0.
<mgrwt>
<rscale>  2 0.45822360E+03</rscale>
<asrwt>0</asrwt>
<pdfrwt beam="1">  1       21 0.25358127E-02 0.45822360E+03</pdfrwt>
<pdfrwt beam="2">  1       21 0.44767197E+00 0.45822360E+03</pdfrwt>
<totfact> 0.28478271E+03</totfact>
</mgrwt>
</event>
<event>
 7    0  0.4712189E-002  0.4497228E+03  0.7546771E-02  0.1027805E+00
         21   -1    0    0  502  501  0.00000000000E+00  0.00000000000E+00  0.11241302131E+04  0.11241302131E+04  0.00000000000E+00 0. -1.
         21   -1    0    0  501  502 -0.00000000000E+00 -0.00000000000E+00 -0.44979342970E+02  0.44979342970E+02  0.00000000000E+00 0. -1.
      99926    2    1    2    0    0  0.00000000000E+00  0.88817841970E-15  0.10791508702E+04  0.11691095561E+04  0.44972275192E+03 0.  0.
      99925    2    3    3    0    0  0.40807809407E+02  0.78973635167E+01  0.42256270068E+03  0.49942068949E+03  0.26293372440E+03 0.  0.
         25    1    4    4    0    0  0.56503521033E+02  0.21061128012E+02  0.20446130652E+03  0.24716017674E+03  0.12509000000E+03 0.  0.
         25    1    3    3    0    0 -0.40807809407E+02 -0.78973635167E+01  0.65658816947E+03  0.66968886660E+03  0.12509000000E+03 0.  0.
         25    1    4    4    0    0 -0.15695711625E+02 -0.13163764496E+02  0.21810139416E+03  0.25226051275E+03  0.12509000000E+03 0.  0.
<mgrwt>
<rscale>  2 0.44972275E+03</rscale>
<asrwt>0</asrwt>
<pdfrwt beam="1">  1       21 0.16531325E+00 0.44972275E+03</pdfrwt>
<pdfrwt beam="2">  1       21 0.66146100E-02 0.44972275E+03</pdfrwt>
<totfact> 0.34549729E+04</totfact>
</mgrwt>
</event>
<event>
 7    0  0.4712189E-002  0.4605690E+03  0.7546771E-02  0.1024616E+00
         21   -1    0    0  502  501  0.00000000000E+00  0.00000000000E+00  0.74179385762E+02  0.74179385762E+02  0.00000000000E+00 0. -1.
         21   -1    0    0  501  502 -0.00000000000E+00 -0.00000000000E+00 -0.71490149713E+03  0.71490149713E+03  0.00000000000E+00 0. -1.
      99926    2    1    2    0    0  0.00000000000E+00 -0.35527136788E-14 -0.64072211137E+03  0.78908088289E+03  0.46056901302E+03 0.  0.
      99925    2    3    3    0    0 -0.11109727604E+03 -0.30888637105E+02 -0.36030981328E+03  0.46109417940E+03  0.26360570573E+03 0.  0.
         25    1    3    3    0    0  0.11109727604E+03  0.30888637105E+02 -0.28041229809E+03  0.32798670349E+03  0.12509000000E+03 0.  0.
         25    1    4    4    0    0 -0.16638795998E+02 -0.34059710504E+02 -0.17313833334E+03  0.21693617491E+03  0.12509000000E+03 0.  0.
         25    1    4    4    0    0 -0.94458480038E+02  0.31710733985E+01 -0.18717147994E+03  0.24415800450E+03  0.12509000000E+03 0.  0.
<mgrwt>
<rscale>  2 0.46056901E+03</rscale>
<asrwt>0</asrwt>
<pdfrwt beam="1">  1       21 0.10908733E-01 0.46056901E+03</pdfrwt>
<pdfrwt beam="2">  1       21 0.10513257E+00 0.46056901E+03</pdfrwt>
<totfact> 0.46242948E+04</totfact>
</mgrwt>
</event>
<event>
 7    0  0.4712189E-002  0.4562394E+03  0.7546771E-02  0.1025878E+00
         21   -1    0    0  502  501  0.00000000000E+00  0.00000000000E+00  0.51190173207E+03  0.51190173207E+03  0.00000000000E+00 0.  1.
         21   -1    0    0  501  502 -0.00000000000E+00 -0.00000000000E+00 -0.10165739320E+03  0.10165739320E+03  0.00000000000E+00 0.  1.
      99926    2    1    2    0    0 -0.71054273576E-14  0.14210854715E-13  0.41024433887E+03  0.61355912527E+03  0.45623939180E+03 0.  0.
      99925    2    3    3    0    0 -0.34794421262E+02  0.66075302205E+02  0.37429833240E+03  0.46350506570E+03  0.26298499383E+03 0.  0.
         25    1    4    4    0    0  0.11765685530E+02  0.87259761361E+01  0.20305160902E+03  0.23893940245E+03  0.12509000000E+03 0.  0.
         25    1    4    4    0    0 -0.46560106792E+02  0.57349326069E+02  0.17124672338E+03  0.22456566325E+03  0.12509000000E+03 0.  0.
         25    1    3    3    0    0  0.34794421262E+02 -0.66075302205E+02  0.35946006472E+02  0.15005405957E+03  0.12509000000E+03 0.  0.
<mgrwt>
<rscale>  2 0.45623939E+03</rscale>
<asrwt>0</asrwt>
<pdfrwt beam="1">  1       21 0.75279665E-01 0.45623939E+03</pdfrwt>
<pdfrwt beam="2">  1       21 0.14949617E-01 0.45623939E+03</pdfrwt>
<totfact> 0.57288484E+04</totfact>
</mgrwt>
</event>
<event>
 7    0  0.4712189E-002  0.4378444E+03  0.7546771E-02  0.1031410E+00
         21   -1    0    0  502  501  0.00000000000E+00  0.00000000000E+00  0.31853153429E+03  0.31853153429E+03  0.00000000000E+00 0. -1.
         21   -1    0    0  501  502 -0.00000000000E+00 -0.00000000000E+00 -0.15046209843E+03  0.15046209843E+03  0.00000000000E+00 0. -1.
      99926    2    1    2    0    0 -0.66613381478E-15  0.00000000000E+00  0.16806943586E+03  0.46899363272E+03  0.43784436991E+03 0.  0.
      99925    2    3    3    0    0  0.33655343762E+00 -0.96161670981E+02  0.10665378308E+03  0.29968158134E+03  0.26303391515E+03 0.  0.
         25    1    3    3    0    0 -0.33655343762E+00  0.96161670981E+02  0.61415652780E+02  0.16931205137E+03  0.12509000000E+03 0.  0.
         25    1    4    4    0    0  0.21393041678E+02 -0.84674241215E+02  0.53563084978E+02  0.16169075895E+03  0.12509000000E+03 0.  0.
         25    1    4    4    0    0 -0.21056488240E+02 -0.11487429766E+02  0.53090698101E+02  0.13799082239E+03  0.12509000000E+03 0.  0.
<mgrwt>
<rscale>  2 0.43784437E+03</rscale>
<asrwt>0</asrwt>
<pdfrwt beam="1">  1       21 0.46842873E-01 0.43784437E+03</pdfrwt>
<pdfrwt beam="2">  1       21 0.22126779E-01 0.43784437E+03</pdfrwt>
<totfact> 0.77543158E+04</totfact>
</mgrwt>
</event>
<event>
 7    0  0.4712189E-002  0.4516200E+03  0.7546771E-02  0.1027240E+00
         21   -1    0    0  502  501  0.00000000000E+00  0.00000000000E+00  0.11124682111E+03  0.11124682111E+03  0.00000000000E+00 0.  1.
         21   -1    0    0  501  502 -0.00000000000E+00 -0.00000000000E+00 -0.45835159339E+03  0.45835159339E+03  0.00000000000E+00 0.  1.
      99926    2    1    2    0    0  0.00000000000E+00  0.00000000000E+00 -0.34710477228E+03  0.56959841451E+03  0.45162000716E+03 0.  0.
      99925    2    3    3    0    0  0.99904096821E+02 -0.43802997565E+02 -0.23647283859E+03  0.37013296886E+03  0.26301992336E+03 0.  0.
         25    1    4    4    0    0  0.71276669154E+02 -0.58375524674E+02 -0.13665444829E+03  0.20690580413E+03  0.12509000000E+03 0.  0.
         25    1    3    3    0    0 -0.99904096821E+02  0.43802997565E+02 -0.11063193368E+03  0.19946544565E+03  0.12509000000E+03 0.  0.
         25    1    4    4    0    0  0.28627427667E+02  0.14572527109E+02 -0.99818390306E+02  0.16322716473E+03  0.12509000000E+03 0.  0.
<mgrwt>
<rscale>  2 0.45162001E+03</rscale>
<asrwt>0</asrwt>
<pdfrwt beam="1">  1       21 0.16359827E-01 0.45162001E+03</pdfrwt>
<pdfrwt beam="2">  1       21 0.67404646E-01 0.45162001E+03</pdfrwt>
<totfact> 0.62236589E+04</totfact>
</mgrwt>
</event>
<event>
 7    0  0.4712189E-002  0.4546822E+03  0.7546771E-02  0.1026335E+00
         21   -1    0    0  502  501  0.00000000000E+00  0.00000000000E+00  0.11461343734E+03  0.11461343734E+03  0.00000000000E+00 0. -1.
         21   -1    0    0  501  502 -0.00000000000E+00 -0.00000000000E+00 -0.45094157919E+03  0.45094157919E+03  0.00000000000E+00 0. -1.
      99926    2    1    2    0    0  0.00000000000E+00  0.00000000000E+00 -0.33632814185E+03  0.56555501653E+03  0.45468215021E+03 0.  0.
      99925    2    3    3    0    0  0.10063522634E+03 -0.99280811077E+01 -0.14924749520E+03  0.31883109790E+03  0.26296851254E+03 0.  0.
         25    1    4    4    0    0  0.23739658933E+02 -0.16336435829E+02 -0.36093291232E+02  0.13334423240E+03  0.12509000000E+03 0.  0.
         25    1    4    4    0    0  0.76895567405E+02  0.64083547214E+01 -0.11315420397E+03  0.18548686550E+03  0.12509000000E+03 0.  0.
         25    1    3    3    0    0 -0.10063522634E+03  0.99280811077E+01 -0.18708064664E+03  0.24672391863E+03  0.12509000000E+03 0.  0.
<mgrwt>
<rscale>  2 0.45468215E+03</rscale>
<asrwt>0</asrwt>
<pdfrwt beam="1">  1       21 0.16854918E-01 0.45468215E+03</pdfrwt>
<pdfrwt beam="2">  1       21 0.66314937E-01 0.45468215E+03</pdfrwt>
<totfact> 0.61003382E+04</totfact>
</mgrwt>
</event>
<event>
 7    0  0.4712189E-002  0.4591220E+03  0.7546771E-02  0.1025036E+00
         21   -1    0    0  502  501  0.00000000000E+00  0.00000000000E+00  0.18641201199E+03  0.18641201199E+03  0.00000000000E+00 0.  1.
         21   -1    0    0  501  502 -0.00000000000E+00 -0.00000000000E+00 -0.28269778566E+03  0.28269778566E+03  0.00000000000E+00 0.  1.
      99926    2    1    2    0    0  0.00000000000E+00  0.00000000000E+00 -0.96285773672E+02  0.46910979764E+03  0.45912204481E+03 0.  0.
      99925    2    3    3    0    0 -0.53860160378E+02 -0.86945713715E+02 -0.30182155165E+01  0.28254393926E+03  0.26336570388E+03 0.  0.
         25    1    3    3    0    0  0.53860160378E+02  0.86945713715E+02 -0.93267558155E+02  0.18656585838E+03  0.12509000000E+03 0.  0.
         25    1    4    4    0    0 -0.12291122509E+02 -0.77573647911E+02 -0.20958631506E+02  0.14918282367E+03  0.12509000000E+03 0.  0.
         25    1    4    4    0    0 -0.41569037870E+02 -0.93720658038E+01  0.17940415989E+02  0.13336111559E+03  0.12509000000E+03 0.  0.
<mgrwt>
<rscale>  2 0.45912204E+03</rscale>
<asrwt>0</asrwt>
<pdfrwt beam="1">  1       21 0.27413532E-01 0.45912204E+03</pdfrwt>
<pdfrwt beam="2">  1       21 0.41573203E-01 0.45912204E+03</pdfrwt>
<totfact> 0.65338992E+04</totfact>
</mgrwt>
</event>
<event>
 7    0  0.4712189E-002  0.4528674E+03  0.7546771E-02  0.1026870E+00
         21   -1    0    0  502  501  0.00000000000E+00  0.00000000000E+00  0.43396232373E+03  0.43396232373E+03  0.00000000000E+00 0. -1.
         21   -1    0    0  501  502 -0.00000000000E+00 -0.00000000000E+00 -0.11814900131E+03  0.11814900131E+03  0.00000000000E+00 0. -1.
      99926    2    1    2    0    0  0.00000000000E+00  0.00000000000E+00  0.31581332242E+03  0.55211132504E+03  0.45286737642E+03 0.  0.
      99925    2    3    3    0    0 -0.99245693329E+02 -0.40415205506E+02  0.16225854384E+03  0.32692323787E+03  0.26280767099E+03 0.  0.
         25    1    4    4    0    0 -0.81046582029E+02 -0.48981661067E+02  0.83274191150E+02  0.17762277610E+03  0.12509000000E+03 0.  0.
         25    1    4    4    0    0 -0.18199111300E+02  0.85664555612E+01  0.78984352691E+02  0.14930046176E+03  0.12509000000E+03 0.  0.
         25    1    3    3    0    0  0.99245693329E+02  0.40415205506E+02  0.15355477857E+03  0.22518808717E+03  0.12509000000E+03 0.  0.
<mgrwt>
<rscale>  2 0.45286738E+03</rscale>
<asrwt>0</asrwt>
<pdfrwt beam="1">  1       21 0.63817988E-01 0.45286738E+03</pdfrwt>
<pdfrwt beam="2">  1       21 0.17374853E-01 0.45286738E+03</pdfrwt>
<totfact> 0.62779751E+04</totfact>
</mgrwt>
</event>
<event>
 7    0  0.4712189E-002  0.4458930E+03  0.7546771E-02  0.1028954E+00
         21   -1    0    0  502  501  0.00000000000E+00  0.00000000000E+00  0.32045084977E+03  0.32045084977E+03  0.00000000000E+00 0. -1.
         21   -1    0    0  501  502 -0.00000000000E+00 -0.00000000000E+00 -0.15511004331E+03  0.15511004331E+03  0.00000000000E+00 0. -1.
      99926    2    1    2    0    0  0.71054273576E-14  0.17763568394E-14  0.16534080646E+03  0.47556089309E+03  0.44589301492E+03 0.  0.
      99925    2    3    3    0    0 -0.42733643670E+02 -0.13376076999E+02  0.45286916380E+01  0.26696288708E+03  0.26314176843E+03 0.  0.
         25    1    4    4    0    0  0.12514611365E+02 -0.19080345494E+02 -0.17439867278E+02  0.12834458365E+03  0.12509000000E+03 0.  0.
         25    1    4    4    0    0 -0.55248255035E+02  0.57042684959E+01  0.21968558916E+02  0.13861830342E+03  0.12509000000E+03 0.  0.
         25    1    3    3    0    0  0.42733643670E+02  0.13376076999E+02  0.16081211482E+03  0.20859800601E+03  0.12509000000E+03 0.  0.
<mgrwt>
<rscale>  2 0.44589301E+03</rscale>
<asrwt>0</asrwt>
<pdfrwt beam="1">  1       21 0.47125125E-01 0.44589301E+03</pdfrwt>
<pdfrwt beam="2">  1       21 0.22810300E-01 0.44589301E+03</pdfrwt>
<totfact> 0.72097127E+04</totfact>
</mgrwt>
</event>
<event>
 7    0  0.4712189E-002  0.4548203E+03  0.7546771E-02  0.1026294E+00
         21   -1    0    0  502  501  0.00000000000E+00  0.00000000000E+00  0.54222150407E+02  0.54222150407E+02  0.00000000000E+00 0.  1.
         21   -1    0    0  501  502 -0.00000000000E+00 -0.00000000000E+00 -0.95376852120E+03  0.95376852120E+03  0.00000000000E+00 0.  1.
      99926    2    1    2    0    0  0.00000000000E+00 -0.35527136788E-14 -0.89954637080E+03  0.10079906716E+04  0.45482031709E+03 0.  0.
      99925    2    3    3    0    0  0.10789600830E+03  0.29313334700E+02 -0.56331446185E+03  0.63222448781E+03  0.26435544226E+03 0.  0.
         25    1    3    3    0    0 -0.10789600830E+03 -0.29313334700E+02 -0.33623190894E+03  0.37576618380E+03  0.12509000000E+03 0.  0.
         25    1    4    4    0    0  0.88369570195E+02 -0.10798865916E+02 -0.32370167377E+03  0.35826816512E+03  0.12509000000E+03 0.  0.
         25    1    4    4    0    0  0.19526438110E+02  0.40112200616E+02 -0.23961278809E+03  0.27395632268E+03  0.12509000000E+03 0.  0.
<mgrwt>
<rscale>  2 0.45482032E+03</rscale>
<asrwt>0</asrwt>
<pdfrwt beam="1">  1       21 0.79738458E-02 0.45482032E+03</pdfrwt>
<pdfrwt beam="2">  1       21 0.14026007E+00 0.45482032E+03</pdfrwt>
<totfact> 0.38911988E+04</totfact>
</mgrwt>
</event>
<event>
 7    0  0.4712189E-002  0.4364519E+03  0.7546771E-02  0.1031841E+00
         21   -1    0    0  502  501  0.00000000000E+00  0.00000000000E+00  0.14920169958E+03  0.14920169958E+03  0.00000000000E+00 0.  1.
         21   -1    0    0  501  502 -0.00000000000E+00 -0.00000000000E+00 -0.31918240899E+03  0.31918240899E+03  0.00000000000E+00 0.  1.
      99926    2    1    2    0    0 -0.14210854715E-13  0.00000000000E+00 -0.16998070941E+03  0.46838410856E+03  0.43645186629E+03 0.  0.
      99925    2    3    3    0    0 -0.72099858864E+02 -0.59926514218E+02 -0.12356961945E+03  0.30531641058E+03  0.26298114564E+03 0.  0.
         25    1    4    4    0    0 -0.22662729635E+02 -0.29240521101E-01 -0.29217699109E+02  0.13044072298E+03  0.12509000000E+03 0.  0.
         25    1    3    3    0    0  0.72099858864E+02  0.59926514218E+02 -0.46411089959E+02  0.16306769798E+03  0.12509000000E+03 0.  0.
         25    1    4    4    0    0 -0.49437129229E+02 -0.59897273696E+02 -0.94351920340E+02  0.17487568760E+03  0.12509000000E+03 0.  0.
<mgrwt>
<rscale>  2 0.43645187E+03</rscale>
<asrwt>0</asrwt>
<pdfrwt beam="1">  1       21 0.21941427E-01 0.43645187E+03</pdfrwt>
<pdfrwt beam="2">  1       21 0.46938589E-01 0.43645187E+03</pdfrwt>
<totfact> 0.78489831E+04</totfact>
</mgrwt>
</event>
<event>
 7    0  0.4712189E-002  0.4523702E+03  0.7546771E-02  0.1027018E+00
         21   -1    0    0  502  501  0.00000000000E+00  0.00000000000E+00  0.13709192408E+03  0.13709192408E+03  0.00000000000E+00 0. -1.
         21   -1    0    0  501  502 -0.00000000000E+00 -0.00000000000E+00 -0.37317807124E+03  0.37317807124E+03  0.00000000000E+00 0. -1.
      99926    2    1    2    0    0 -0.14210854715E-13  0.00000000000E+00 -0.23608614716E+03  0.51026999532E+03  0.45237020155E+03 0.  0.
      99925    2    3    3    0    0  0.88035761948E+02  0.61441961393E+02 -0.17733313879E+03  0.33527046934E+03  0.26350300852E+03 0.  0.
         25    1    4    4    0    0  0.32070646547E+02 -0.41128524104E+01 -0.55840983044E+02  0.14075214177E+03  0.12509000000E+03 0.  0.
         25    1    4    4    0    0  0.55965115401E+02  0.65554813803E+02 -0.12149215575E+03  0.19451832758E+03  0.12509000000E+03 0.  0.
         25    1    3    3    0    0 -0.88035761948E+02 -0.61441961393E+02 -0.58753008363E+02  0.17499952598E+03  0.12509000000E+03 0.  0.
<mgrwt>
<rscale>  2 0.45237020E+03</rscale>
<asrwt>0</asrwt>
<pdfrwt beam="1">  1       21 0.20160577E-01 0.45237020E+03</pdfrwt>
<pdfrwt beam="2">  1       21 0.54879127E-01 0.45237020E+03</pdfrwt>
<totfact> 0.65920049E+04</totfact>
</mgrwt>
</event>
<event>
 7    0  0.4712189E-002  0.4611288E+03  0.7546771E-02  0.1024454E+00
         21   -1    0    0  502  501  0.00000000000E+00  0.00000000000E+00  0.22109462512E+03  0.22109462512E+03  0.00000000000E+00 0. -1.
         21   -1    0    0  501  502 -0.00000000000E+00 -0.00000000000E+00 -0.24043980183E+03  0.24043980183E+03  0.00000000000E+00 0. -1.
      99926    2    1    2    0    0 -0.71054273576E-14 -0.14210854715E-13 -0.19345176713E+02  0.46153442695E+03  0.46112882300E+03 0.  0.
      99925    2    3    3    0    0 -0.32760643980E+02 -0.70113799242E+02  0.78124706126E+02  0.28507737609E+03  0.26301413653E+03 0.  0.
         25    1    4    4    0    0 -0.56877471959E+02 -0.39470257433E+02  0.35806779014E+02  0.14738582551E+03  0.12509000000E+03 0.  0.
         25    1    4    4    0    0  0.24116827980E+02 -0.30643541810E+02  0.42317927112E+02  0.13769155058E+03  0.12509000000E+03 0.  0.
         25    1    3    3    0    0  0.32760643980E+02  0.70113799242E+02 -0.97469882838E+02  0.17645705086E+03  0.12509000000E+03 0.  0.
<mgrwt>
<rscale>  2 0.46112882E+03</rscale>
<asrwt>0</asrwt>
<pdfrwt beam="1">  1       21 0.32513916E-01 0.46112882E+03</pdfrwt>
<pdfrwt beam="2">  1       21 0.35358794E-01 0.46112882E+03</pdfrwt>
<totfact> 0.64840471E+04</totfact>
</mgrwt>
</event>
<event>
 7    0  0.4712189E-002  0.4533782E+03  0.7546771E-02  0.1026719E+00
         21   -1    0    0  502  501  0.00000000000E+00  0.00000000000E+00  0.43073689979E+03  0.43073689979E+03  0.00000000000E+00 0. -1.
         21   -1    0    0  501  502 -0.00000000000E+00 -0.00000000000E+00 -0.11930238871E+03  0.11930238871E+03  0.00000000000E+00 0. -1.
      99926    2    1    2    0    0  0.00000000000E+00  0.00000000000E+00  0.31143451108E+03  0.55003928850E+03  0.45337816909E+03 0.  0.
      99925    2    3    3    0    0 -0.18727693806E+02 -0.10880326564E+03  0.21624107767E+03  0.35795031174E+03  0.26301966633E+03 0.  0.
         25    1    4    4    0    0  0.24937354941E+02 -0.58824493367E+02  0.13435656626E+03  0.19437434936E+03  0.12509000000E+03 0.  0.
         25    1    3    3    0    0  0.18727693806E+02  0.10880326564E+03  0.95193433409E+02  0.19208897676E+03  0.12509000000E+03 0.  0.
         25    1    4    4    0    0 -0.43665048747E+02 -0.49978772275E+02  0.81884511402E+02  0.16357596238E+03  0.12509000000E+03 0.  0.
<mgrwt>
<rscale>  2 0.45337817E+03</rscale>
<asrwt>0</asrwt>
<pdfrwt beam="1">  1       21 0.63343661E-01 0.45337817E+03</pdfrwt>
<pdfrwt beam="2">  1       21 0.17544469E-01 0.45337817E+03</pdfrwt>
<totfact> 0.62664141E+04</totfact>
</mgrwt>
</event>
<event>
 7    0  0.4712189E-002  0.4542660E+03  0.7546771E-02  0.1026457E+00
         21   -1    0    0  502  501  0.00000000000E+00  0.00000000000E+00  0.25869421957E+03  0.25869421957E+03  0.00000000000E+00 0.  1.
         21   -1    0    0  501  502 -0.00000000000E+00 -0.00000000000E+00 -0.19942232080E+03  0.19942232080E+03  0.00000000000E+00 0.  1.
      99926    2    1    2    0    0  0.71054273576E-14  0.00000000000E+00  0.59271898769E+02  0.45811654037E+03  0.45426600861E+03 0.  0.
      99925    2    3    3    0    0 -0.46794473392E+02 -0.61467858382E+02 -0.44186073917E+02  0.27834145709E+03  0.26373004617E+03 0.  0.
         25    1    4    4    0    0 -0.65475473337E+02 -0.29493329397E+02 -0.27276703453E+02  0.14679380348E+03  0.12509000000E+03 0.  0.
         25    1    4    4    0    0  0.18680999944E+02 -0.31974528985E+02 -0.16909370464E+02  0.13154765362E+03  0.12509000000E+03 0.  0.
         25    1    3    3    0    0  0.46794473392E+02  0.61467858382E+02  0.10345797269E+03  0.17977508327E+03  0.12509000000E+03 0.  0.
<mgrwt>
<rscale>  2 0.45426601E+03</rscale>
<asrwt>0</asrwt>
<pdfrwt beam="1">  1       21 0.38043268E-01 0.45426601E+03</pdfrwt>
<pdfrwt beam="2">  1       21 0.29326812E-01 0.45426601E+03</pdfrwt>
<totfact> 0.68719402E+04</totfact>
</mgrwt>
</event>
<event>
 7    0  0.4712189E-002  0.4581190E+03  0.7546771E-02  0.1025328E+00
         21   -1    0    0  502  501  0.00000000000E+00  0.00000000000E+00  0.20226894901E+03  0.20226894901E+03  0.00000000000E+00 0.  1.
         21   -1    0    0  501  502 -0.00000000000E+00 -0.00000000000E+00 -0.25939851318E+03  0.25939851318E+03  0.00000000000E+00 0.  1.
      99926    2    1    2    0    0 -0.26645352591E-14  0.00000000000E+00 -0.57129564168E+02  0.46166746220E+03  0.45811904408E+03 0.  0.
      99925    2    3    3    0    0 -0.56153419467E+01  0.11370217150E+03 -0.13130406775E+02  0.28690147632E+03  0.26302154601E+03 0.  0.
         25    1    3    3    0    0  0.56153419467E+01 -0.11370217150E+03 -0.43999157392E+02  0.17476598588E+03  0.12509000000E+03 0.  0.
         25    1    4    4    0    0  0.37105459201E+02  0.58178353333E+02 -0.13828927219E+02  0.14352798761E+03  0.12509000000E+03 0.  0.
         25    1    4    4    0    0 -0.42720801147E+02  0.55523818165E+02  0.69852044408E+00  0.14337348871E+03  0.12509000000E+03 0.  0.
<mgrwt>
<rscale>  2 0.45811904E+03</rscale>
<asrwt>0</asrwt>
<pdfrwt beam="1">  1       21 0.29745434E-01 0.45811904E+03</pdfrwt>
<pdfrwt beam="2">  1       21 0.38146840E-01 0.45811904E+03</pdfrwt>
<totfact> 0.66392306E+04</totfact>
</mgrwt>
</event>
<event>
 7    0  0.4712189E-002  0.4523104E+03  0.7546771E-02  0.1027035E+00
         21   -1    0    0  502  501  0.00000000000E+00  0.00000000000E+00  0.38822635722E+03  0.38822635722E+03  0.00000000000E+00 0.  1.
         21   -1    0    0  501  502 -0.00000000000E+00 -0.00000000000E+00 -0.13174320368E+03  0.13174320368E+03  0.00000000000E+00 0.  1.
      99926    2    1    2    0    0  0.00000000000E+00  0.00000000000E+00  0.25648315354E+03  0.51996956090E+03  0.45231044230E+03 0.  0.
      99925    2    3    3    0    0 -0.97497820126E+02 -0.42330232306E+02  0.12639546418E+03  0.31052269766E+03  0.26296550896E+03 0.  0.
         25    1    4    4    0    0 -0.65138110833E+02  0.12539304728E+02  0.80284502336E+02  0.16276767818E+03  0.12509000000E+03 0.  0.
         25    1    3    3    0    0  0.97497820126E+02  0.42330232306E+02  0.13008768937E+03  0.20944686324E+03  0.12509000000E+03 0.  0.
         25    1    4    4    0    0 -0.32359709293E+02 -0.54869537034E+02  0.46110961840E+02  0.14775501948E+03  0.12509000000E+03 0.  0.
<mgrwt>
<rscale>  2 0.45231044E+03</rscale>
<asrwt>0</asrwt>
<pdfrwt beam="1">  1       21 0.57092111E-01 0.45231044E+03</pdfrwt>
<pdfrwt beam="2">  1       21 0.19374001E-01 0.45231044E+03</pdfrwt>
<totfact> 0.65270949E+04</totfact>
</mgrwt>
</event>
<event>
 7    0  0.4712189E-002  0.4522122E+03  0.7546771E-02  0.1027064E+00
         21   -1    0    0  502  501  0.00000000000E+00  0.00000000000E+00  0.93939996033E+02  0.93939996033E+02  0.00000000000E+00 0. -1.
         21   -1    0    0  501  502 -0.00000000000E+00 -0.00000000000E+00 -0.54421936599E+03  0.54421936599E+03  0.00000000000E+00 0. -1.
      99926    2    1    2    0    0 -0.35527136788E-14  0.00000000000E+00 -0.45027936995E+03  0.63815936202E+03  0.45221218507E+03 0.  0.
      99925    2    3    3    0    0  0.28888095025E+02 -0.91956339234E+02 -0.20788578052E+03  0.34886254099E+03  0.26305528773E+03 0.  0.
         25    1    4    4    0    0  0.29845644762E+01 -0.57191699391E+02 -0.59184930881E+02  0.14976702657E+03  0.12509000000E+03 0.  0.
         25    1    3    3    0    0 -0.28888095025E+02  0.91956339234E+02 -0.24239358943E+03  0.28929682103E+03  0.12509000000E+03 0.  0.
         25    1    4    4    0    0  0.25903530548E+02 -0.34764639843E+02 -0.14870084964E+03  0.19909551442E+03  0.12509000000E+03 0.  0.
<mgrwt>
<rscale>  2 0.45221219E+03</rscale>
<asrwt>0</asrwt>
<pdfrwt beam="1">  1       21 0.13814706E-01 0.45221219E+03</pdfrwt>
<pdfrwt beam="2">  1       21 0.80032259E-01 0.45221219E+03</pdfrwt>
<totfact> 0.57646687E+04</totfact>
</mgrwt>
</event>
<event>
 7    0  0.4712189E-002  0.4263298E+03  0.7546771E-02  0.1035026E+00
         21   -1    0    0  502  501  0.00000000000E+00  0.00000000000E+00  0.27448817335E+03  0.27448817335E+03  0.00000000000E+00 0.  1.
         21   -1    0    0  501  502 -0.00000000000E+00 -0.00000000000E+00 -0.16554186351E+03  0.16554186351E+03  0.00000000000E+00 0.  1.
      99926    2    1    2    0    0  0.00000000000E+00  0.17763568394E-14  0.10894630983E+03  0.44003003686E+03  0.42632984286E+03 0.  0.
      99925    2    3    3    0    0 -0.77222578925E+02  0.64186970992E+01  0.10266413675E+03  0.29274969137E+03  0.26297895440E+03 0.  0.
         25    1    4    4    0    0 -0.88372051172E+01 -0.25723314481E+02  0.48718155733E+02  0.13696989414E+03  0.12509000000E+03 0.  0.
         25    1    4    4    0    0 -0.68385373807E+02  0.32142011580E+02  0.53945981017E+02  0.15577979724E+03  0.12509000000E+03 0.  0.
         25    1    3    3    0    0  0.77222578925E+02 -0.64186970992E+01  0.62821730825E+01  0.14728034549E+03  0.12509000000E+03 0.  0.
<mgrwt>
<rscale>  2 0.42632984E+03</rscale>
<asrwt>0</asrwt>
<pdfrwt beam="1">  1       21 0.40365908E-01 0.42632984E+03</pdfrwt>
<pdfrwt beam="2">  1       21 0.24344392E-01 0.42632984E+03</pdfrwt>
<totfact> 0.88131109E+04</totfact>
</mgrwt>
</event>
<event>
 7    0  0.4712189E-002  0.4532068E+03  0.7546771E-02  0.1026770E+00
         21   -1    0    0  502  501  0.00000000000E+00  0.00000000000E+00  0.18569514784E+03  0.18569514784E+03  0.00000000000E+00 0.  1.
         21   -1    0    0  501  502 -0.00000000000E+00 -0.00000000000E+00 -0.27652365152E+03  0.27652365152E+03  0.00000000000E+00 0.  1.
      99926    2    1    2    0    0  0.00000000000E+00  0.00000000000E+00 -0.90828503675E+02  0.46221879936E+03  0.45320679762E+03 0.  0.
      99925    2    3    3    0    0 -0.11074926179E+03  0.43343657006E+01 -0.69281154526E+02  0.29370772534E+03  0.26302122318E+03 0.  0.
         25    1    3    3    0    0  0.11074926179E+03 -0.43343657006E+01 -0.21547349149E+02  0.16851107402E+03  0.12509000000E+03 0.  0.
         25    1    4    4    0    0 -0.14695465416E+02 -0.55043217597E+01 -0.44842452876E+02  0.13380810118E+03  0.12509000000E+03 0.  0.
         25    1    4    4    0    0 -0.96053796373E+02  0.98386874603E+01 -0.24438701649E+02  0.15989962416E+03  0.12509000000E+03 0.  0.
<mgrwt>
<rscale>  2 0.45320680E+03</rscale>
<asrwt>0</asrwt>
<pdfrwt beam="1">  1       21 0.27308111E-01 0.45320680E+03</pdfrwt>
<pdfrwt beam="2">  1       21 0.40665242E-01 0.45320680E+03</pdfrwt>
<totfact> 0.68995457E+04</totfact>
</mgrwt>
</event>
<event>
 7    0  0.4712189E-002  0.4535183E+03  0.7546771E-02  0.1026678E+00
         21   -1    0    0  502  501  0.00000000000E+00  0.00000000000E+00  0.14901969178E+03  0.14901969178E+03  0.00000000000E+00 0. -1.
         21   -1    0    0  501  502 -0.00000000000E+00 -0.00000000000E+00 -0.34505306656E+03  0.34505306656E+03  0.00000000000E+00 0. -1.
      99926    2    1    2    0    0  0.00000000000E+00  0.00000000000E+00 -0.19603337478E+03  0.49407275834E+03  0.45351825377E+03 0.  0.
      99925    2    3    3    0    0  0.27936577922E+02  0.70979228783E+02 -0.21244931174E+03  0.34664313312E+03  0.26307460611E+03 0.  0.
         25    1    4    4    0    0  0.73726267330E+01  0.58171079968E+02 -0.67838905184E+02  0.15390859406E+03  0.12509000000E+03 0.  0.
         25    1    4    4    0    0  0.20563951189E+02  0.12808148815E+02 -0.14461040655E+03  0.19273453906E+03  0.12509000000E+03 0.  0.
         25    1    3    3    0    0 -0.27936577922E+02 -0.70979228783E+02  0.16415936951E+02  0.14742962521E+03  0.12509000000E+03 0.  0.
<mgrwt>
<rscale>  2 0.45351825E+03</rscale>
<asrwt>0</asrwt>
<pdfrwt beam="1">  1       21 0.21914661E-01 0.45351825E+03</pdfrwt>
<pdfrwt beam="2">  1       21 0.50743098E-01 0.45351825E+03</pdfrwt>
<totfact> 0.66467518E+04</totfact>
</mgrwt>
</event>
<event>
 7    0  0.4712189E-002  0.4736142E+03  0.7546771E-02  0.1020905E+00
         21   -1    0    0  502  501  0.00000000000E+00  0.00000000000E+00  0.39430903892E+03  0.39430903892E+03  0.00000000000E+00 0. -1.
         21   -1    0    0  501  502 -0.00000000000E+00 -0.00000000000E+00 -0.14221736391E+03  0.14221736391E+03  0.00000000000E+00 0. -1.
      99926    2    1    2    0    0  0.00000000000E+00  0.00000000000E+00  0.25209167501E+03  0.53652640284E+03  0.47361415554E+03 0.  0.
      99925    2    3    3    0    0 -0.10358532692E+03 -0.66457901836E+02  0.10960835675E+03  0.31048309559E+03  0.26313340363E+03 0.  0.
         25    1    3    3    0    0  0.10358532692E+03  0.66457901836E+02  0.14248331826E+03  0.22604330725E+03  0.12509000000E+03 0.  0.
         25    1    4    4    0    0 -0.22617332662E+02 -0.40510717675E+00  0.55939668576E+02  0.13888290920E+03  0.12509000000E+03 0.  0.
         25    1    4    4    0    0 -0.80967994258E+02 -0.66052794660E+02  0.53668688173E+02  0.17160018638E+03  0.12509000000E+03 0.  0.
<mgrwt>
<rscale>  2 0.47361416E+03</rscale>
<asrwt>0</asrwt>
<pdfrwt beam="1">  1       21 0.57986623E-01 0.47361416E+03</pdfrwt>
<pdfrwt beam="2">  1       21 0.20914318E-01 0.47361416E+03</pdfrwt>
<totfact> 0.54301087E+04</totfact>
</mgrwt>
</event>
<event>
 6    0  0.4712189E-002  0.4609302E+03  0.7546771E-02  0.1024512E+00
         21   -1    0    0  502  501  0.00000000000E+00  0.00000000000E+00  0.26867065239E+04  0.26867065239E+04  0.00000000000E+00 0. -1.
         21   -1    0    0  501  502 -0.00000000000E+00 -0.00000000000E+00 -0.19769250268E+02  0.19769250268E+02  0.00000000000E+00 0. -1.
      99926    2    1    2    0    0  0.00000000000E+00  0.00000000000E+00  0.26669372737E+04  0.27064757742E+04  0.46093024925E+03 0.  0.
         25    1    3    3    0    0 -0.32518599617E+02  0.30562327001E+02  0.64441604809E+03  0.65795977558E+03  0.12509000000E+03 0.  0.
         25    1    3    3    0    0 -0.26158987173E+01  0.84660273895E+02  0.10020846170E+04  0.10134077623E+04  0.12509000000E+03 0.  0.
         25    1    3    3    0    0  0.35134498334E+02 -0.11522260090E+03  0.10204366086E+04  0.10351082363E+04  0.12509000000E+03 0.  0.
<mgrwt>
<rscale>  2 0.46093025E+03</rscale>
<asrwt>0</asrwt>
<pdfrwt beam="1">  1       21 0.39510365E+00 0.46093025E+03</pdfrwt>
<pdfrwt beam="2">  1       21 0.29072445E-02 0.46093025E+03</pdfrwt>
<totfact> 0.50068584E+03</totfact>
</mgrwt>
</event>
<event>
 7    0  0.4712189E-002  0.4570194E+03  0.7546771E-02  0.1025649E+00
         21   -1    0    0  502  501  0.00000000000E+00  0.00000000000E+00  0.71025088264E+02  0.71025088264E+02  0.00000000000E+00 0.  1.
         21   -1    0    0  501  502 -0.00000000000E+00 -0.00000000000E+00 -0.73518644615E+03  0.73518644615E+03  0.00000000000E+00 0.  1.
      99926    2    1    2    0    0  0.00000000000E+00 -0.71054273576E-14 -0.66416135789E+03  0.80621153442E+03  0.45701939665E+03 0.  0.
      99925    2    3    3    0    0 -0.76556217278E+02  0.40188941766E+02 -0.55136941637E+03  0.61688236177E+03  0.26279195100E+03 0.  0.
         25    1    4    4    0    0 -0.53319805492E+02 -0.87359300969E+01 -0.32839827972E+03  0.35554501312E+03  0.12509000000E+03 0.  0.
         25    1    4    4    0    0 -0.23236411787E+02  0.48924871863E+02 -0.22297113664E+03  0.26133734864E+03  0.12509000000E+03 0.  0.
         25    1    3    3    0    0  0.76556217278E+02 -0.40188941766E+02 -0.11279194152E+03  0.18932917265E+03  0.12509000000E+03 0.  0.
<mgrwt>
<rscale>  2 0.45701940E+03</rscale>
<asrwt>0</asrwt>
<pdfrwt beam="1">  1       21 0.10444866E-01 0.45701940E+03</pdfrwt>
<pdfrwt beam="2">  1       21 0.10811566E+00 0.45701940E+03</pdfrwt>
<totfact> 0.46721024E+04</totfact>
</mgrwt>
</event>
<event>
 7    0  0.4712189E-002  0.4544560E+03  0.7546771E-02  0.1026402E+00
         21   -1    0    0  502  501  0.00000000000E+00  0.00000000000E+00  0.23722593785E+03  0.23722593785E+03  0.00000000000E+00 0.  1.
         21   -1    0    0  501  502 -0.00000000000E+00 -0.00000000000E+00 -0.21765139520E+03  0.21765139520E+03  0.00000000000E+00 0.  1.
      99926    2    1    2    0    0  0.00000000000E+00  0.17763568394E-14  0.19574542650E+02  0.45487733305E+03  0.45445596641E+03 0.  0.
      99925    2    3    3    0    0 -0.85689230974E+02 -0.14099484459E+02 -0.59441741103E+02  0.28331824421E+03  0.26304841218E+03 0.  0.
         25    1    4    4    0    0 -0.74502214085E+02 -0.24698993167E+02 -0.53752205719E+02  0.15715415326E+03  0.12509000000E+03 0.  0.
         25    1    3    3    0    0  0.85689230974E+02  0.14099484459E+02  0.79016283753E+02  0.17155908884E+03  0.12509000000E+03 0.  0.
         25    1    4    4    0    0 -0.11187016889E+02  0.10599508708E+02 -0.56895353841E+01  0.12616409095E+03  0.12509000000E+03 0.  0.
<mgrwt>
<rscale>  2 0.45445597E+03</rscale>
<asrwt>0</asrwt>
<pdfrwt beam="1">  1       21 0.34886168E-01 0.45445597E+03</pdfrwt>
<pdfrwt beam="2">  1       21 0.32007558E-01 0.45445597E+03</pdfrwt>
<totfact> 0.68853193E+04</totfact>
</mgrwt>
</event>
<event>
 7    0  0.4712189E-002  0.4510095E+03  0.7546771E-02  0.1027421E+00
         21   -1    0    0  502  501  0.00000000000E+00  0.00000000000E+00  0.55439687740E+02  0.55439687740E+02  0.00000000000E+00 0. -1.
         21   -1    0    0  501  502 -0.00000000000E+00 -0.00000000000E+00 -0.91725599038E+03  0.91725599038E+03  0.00000000000E+00 0. -1.
      99926    2    1    2    0    0  0.35527136788E-14  0.00000000000E+00 -0.86181630264E+03  0.97269567812E+03  0.45100947079E+03 0.  0.
      99925    2    3    3    0    0 -0.98927905181E+01 -0.10512148081E+03 -0.48292081984E+03  0.55995158305E+03  0.26303015814E+03 0.  0.
         25    1    4    4    0    0  0.15375434732E+02 -0.33478227308E+02 -0.16787277817E+03  0.21256992602E+03  0.12509000000E+03 0.  0.
         25    1    4    4    0    0 -0.25268225250E+02 -0.71643253503E+02 -0.31504804167E+03  0.34738165703E+03  0.12509000000E+03 0.  0.
         25    1    3    3    0    0  0.98927905181E+01  0.10512148081E+03 -0.37889548281E+03  0.41274409508E+03  0.12509000000E+03 0.  0.
<mgrwt>
<rscale>  2 0.45100947E+03</rscale>
<asrwt>0</asrwt>
<pdfrwt beam="1">  1       21 0.81528954E-02 0.45100947E+03</pdfrwt>
<pdfrwt beam="2">  1       21 0.13489058E+00 0.45100947E+03</pdfrwt>
<totfact> 0.41515270E+04</totfact>
</mgrwt>
</event>
<event>
 7    0  0.4712189E-002  0.4532796E+03  0.7546771E-02  0.1026749E+00
         21   -1    0    0  502  501  0.00000000000E+00  0.00000000000E+00  0.70479993699E+02  0.70479993699E+02  0.00000000000E+00 0.  1.
         21   -1    0    0  501  502 -0.00000000000E+00 -0.00000000000E+00 -0.72879693845E+03  0.72879693845E+03  0.00000000000E+00 0.  1.
      99926    2    1    2    0    0  0.00000000000E+00  0.17763568394E-14 -0.65831694475E+03  0.79927693215E+03  0.45327962068E+03 0.  0.
      99925    2    3    3    0    0 -0.97156318319E+02 -0.14196358686E+02 -0.50743967809E+03  0.58006848230E+03  0.26333159793E+03 0.  0.
         25    1    4    4    0    0 -0.77967483995E+02 -0.32304727090E+02 -0.31128447643E+03  0.34593071173E+03  0.12509000000E+03 0.  0.
         25    1    4    4    0    0 -0.19188834325E+02  0.18108368405E+02 -0.19615520166E+03  0.23413777057E+03  0.12509000000E+03 0.  0.
         25    1    3    3    0    0  0.97156318319E+02  0.14196358686E+02 -0.15087726665E+03  0.21920844984E+03  0.12509000000E+03 0.  0.
<mgrwt>
<rscale>  2 0.45327962E+03</rscale>
<asrwt>0</asrwt>
<pdfrwt beam="1">  1       21 0.10364705E-01 0.45327962E+03</pdfrwt>
<pdfrwt beam="2">  1       21 0.10717602E+00 0.45327962E+03</pdfrwt>
<totfact> 0.48450645E+04</totfact>
</mgrwt>
</event>
<event>
 7    0  0.4712189E-002  0.4551415E+03  0.7546771E-02  0.1026200E+00
         21   -1    0    0  502  501  0.00000000000E+00  0.00000000000E+00  0.11151266817E+03  0.11151266817E+03  0.00000000000E+00 0. -1.
         21   -1    0    0  501  502 -0.00000000000E+00 -0.00000000000E+00 -0.46441755320E+03  0.46441755320E+03  0.00000000000E+00 0. -1.
      99926    2    1    2    0    0 -0.35527136788E-14  0.00000000000E+00 -0.35290488503E+03  0.57593022137E+03  0.45514147472E+03 0.  0.
      99925    2    3    3    0    0  0.27825346170E+02 -0.33143099233E+02 -0.35451748629E+03  0.44355641921E+03  0.26303409288E+03 0.  0.
         25    1    3    3    0    0 -0.27825346170E+02  0.33143099233E+02  0.16126012660E+01  0.13237380216E+03  0.12509000000E+03 0.  0.
         25    1    4    4    0    0  0.36738794912E+02 -0.67771723592E+01 -0.23230356075E+03  0.26647349128E+03  0.12509000000E+03 0.  0.
         25    1    4    4    0    0 -0.89134487418E+01 -0.26365926874E+02 -0.12221392554E+03  0.17708292793E+03  0.12509000000E+03 0.  0.
<mgrwt>
<rscale>  2 0.45514147E+03</rscale>
<asrwt>0</asrwt>
<pdfrwt beam="1">  1       21 0.16398922E-01 0.45514147E+03</pdfrwt>
<pdfrwt beam="2">  1       21 0.68296699E-01 0.45514147E+03</pdfrwt>
<totfact> 0.60117563E+04</totfact>
</mgrwt>
</event>
<event>
 7    0  0.4712189E-002  0.4323541E+03  0.7546771E-02  0.1033119E+00
         21   -1    0    0  502  501  0.00000000000E+00  0.00000000000E+00  0.82670304611E+02  0.82670304611E+02  0.00000000000E+00 0.  1.
         21   -1    0    0  501  502 -0.00000000000E+00 -0.00000000000E+00 -0.56528790440E+03  0.56528790440E+03  0.00000000000E+00 0.  1.
      99926    2    1    2    0    0  0.71054273576E-14  0.00000000000E+00 -0.48261759979E+03  0.64795820901E+03  0.43235412916E+03 0.  0.
      99925    2    3    3    0    0 -0.58539835331E+02  0.40431136392E+02 -0.22704283283E+03  0.35465365958E+03  0.26300034449E+03 0.  0.
         25    1    4    4    0    0 -0.12342873814E+02  0.21751431499E+02 -0.15881767488E+03  0.20370575166E+03  0.12509000000E+03 0.  0.
         25    1    4    4    0    0 -0.46196961517E+02  0.18679704893E+02 -0.68225157958E+02  0.15094790792E+03  0.12509000000E+03 0.  0.
         25    1    3    3    0    0  0.58539835331E+02 -0.40431136392E+02 -0.25557476696E+03  0.29330454943E+03  0.12509000000E+03 0.  0.
<mgrwt>
<rscale>  2 0.43235413E+03</rscale>
<asrwt>0</asrwt>
<pdfrwt beam="1">  1       21 0.12157398E-01 0.43235413E+03</pdfrwt>
<pdfrwt beam="2">  1       21 0.83130574E-01 0.43235413E+03</pdfrwt>
<totfact> 0.67006227E+04</totfact>
</mgrwt>
</event>
<event>
 7    0  0.4712189E-002  0.4057964E+03  0.7546771E-02  0.1041791E+00
         21   -1    0    0  502  501  0.00000000000E+00  0.00000000000E+00  0.71838502184E+03  0.71838502184E+03  0.00000000000E+00 0. -1.
         21   -1    0    0  501  502 -0.00000000000E+00 -0.00000000000E+00 -0.57305860730E+02  0.57305860730E+02  0.00000000000E+00 0. -1.
      99926    2    1    2    0    0  0.35527136788E-14  0.00000000000E+00  0.66107916111E+03  0.77569088257E+03  0.40579636279E+03 0.  0.
      99925    2    3    3    0    0 -0.10257969516E+02 -0.30210194478E+02  0.52507097449E+03  0.58817123902E+03  0.26311213650E+03 0.  0.
         25    1    3    3    0    0  0.10257969516E+02  0.30210194478E+02  0.13600818662E+03  0.18751964355E+03  0.12509000000E+03 0.  0.
         25    1    4    4    0    0 -0.40986099602E+02 -0.27399561605E+02  0.23437745046E+03  0.27020528071E+03  0.12509000000E+03 0.  0.
         25    1    4    4    0    0  0.30728130086E+02 -0.28106328731E+01  0.29069352403E+03  0.31796595832E+03  0.12509000000E+03 0.  0.
<mgrwt>
<rscale>  2 0.40579636E+03</rscale>
<asrwt>0</asrwt>
<pdfrwt beam="1">  1       21 0.10564485E+00 0.40579636E+03</pdfrwt>
<pdfrwt beam="2">  1       21 0.84273329E-02 0.40579636E+03</pdfrwt>
<totfact> 0.73499739E+04</totfact>
</mgrwt>
</event>
<event>
 6    0  0.4712189E-002  0.4574364E+03  0.7546771E-02  0.1025527E+00
         21   -1    0    0  502  501  0.00000000000E+00  0.00000000000E+00  0.19298494350E+02  0.19298494350E+02  0.00000000000E+00 0. -1.
         21   -1    0    0  501  502 -0.00000000000E+00 -0.00000000000E+00 -0.27106788741E+04  0.27106788741E+04  0.00000000000E+00 0. -1.
      99926    2    1    2    0    0  0.71054273576E-14 -0.14210854715E-13 -0.26913803798E+04  0.27299773685E+04  0.45743642591E+03 0.  0.
         25    1    3    3    0    0  0.38990296111E+02 -0.50685777169E+02 -0.62558183139E+03  0.64116255900E+03  0.12509000000E+03 0.  0.
         25    1    3    3    0    0  0.19367337644E+02 -0.46021050463E+02 -0.11256174001E+04  0.11336468015E+04  0.12509000000E+03 0.  0.
         25    1    3    3    0    0 -0.58357633755E+02  0.96706827631E+02 -0.94018114823E+03  0.95516800800E+03  0.12509000000E+03 0.  0.
<mgrwt>
<rscale>  2 0.45743643E+03</rscale>
<asrwt>0</asrwt>
<pdfrwt beam="1">  1       21 0.28380116E-02 0.45743643E+03</pdfrwt>
<pdfrwt beam="2">  1       21 0.39862957E+00 0.45743643E+03</pdfrwt>
<totfact> 0.49588917E+03</totfact>
</mgrwt>
</event>
<event>
 7    0  0.4712189E-002  0.4545787E+03  0.7546771E-02  0.1026365E+00
         21   -1    0    0  502  501  0.00000000000E+00  0.00000000000E+00  0.26839264360E+03  0.26839264360E+03  0.00000000000E+00 0. -1.
         21   -1    0    0  501  502 -0.00000000000E+00 -0.00000000000E+00 -0.19248088347E+03  0.19248088347E+03  0.00000000000E+00 0. -1.
      99926    2    1    2    0    0 -0.14210854715E-13 -0.44408920985E-15  0.75911760129E+02  0.46087352707E+03  0.45457871994E+03 0.  0.
      99925    2    3    3    0    0 -0.11070152451E+03  0.28558092404E+01  0.25966534573E+02  0.28650318317E+03  0.26295784809E+03 0.  0.
         25    1    3    3    0    0  0.11070152451E+03 -0.28558092404E+01  0.49945225557E+02  0.17437034390E+03  0.12509000000E+03 0.  0.
         25    1    4    4    0    0 -0.70357252937E+02  0.24134676055E+02  0.44238029931E+02  0.15210896430E+03  0.12509000000E+03 0.  0.
         25    1    4    4    0    0 -0.40344271575E+02 -0.21278866815E+02 -0.18271495359E+02  0.13439421887E+03  0.12509000000E+03 0.  0.
<mgrwt>
<rscale>  2 0.45457872E+03</rscale>
<asrwt>0</asrwt>
<pdfrwt beam="1">  1       21 0.39469507E-01 0.45457872E+03</pdfrwt>
<pdfrwt beam="2">  1       21 0.28306012E-01 0.45457872E+03</pdfrwt>
<totfact> 0.68346090E+04</totfact>
</mgrwt>
</event>
<event>
 7    0  0.4712189E-002  0.4111748E+03  0.7546771E-02  0.1039978E+00
         21   -1    0    0  502  501  0.00000000000E+00  0.00000000000E+00  0.18006224131E+02  0.18006224131E+02  0.00000000000E+00 0. -1.
         21   -1    0    0  501  502 -0.00000000000E+00 -0.00000000000E+00 -0.23473090154E+04  0.23473090154E+04  0.00000000000E+00 0. -1.
      99926    2    1    2    0    0  0.00000000000E+00  0.00000000000E+00 -0.23293027913E+04  0.23653152396E+04  0.41117476691E+03 0.  0.
      99925    2    3    3    0    0 -0.56964193256E+02 -0.62427763598E+01 -0.13710830295E+04  0.13972674558E+04  0.26306610916E+03 0.  0.
         25    1    4    4    0    0 -0.28550067822E+02  0.37192477776E+02 -0.70883641245E+03  0.72131474025E+03  0.12509000000E+03 0.  0.
         25    1    3    3    0    0  0.56964193256E+02  0.62427763598E+01 -0.95821976182E+03  0.96804778375E+03  0.12509000000E+03 0.  0.
         25    1    4    4    0    0 -0.28414125434E+02 -0.43435254136E+02 -0.66224661702E+03  0.67595271557E+03  0.12509000000E+03 0.  0.
<mgrwt>
<rscale>  2 0.41117477E+03</rscale>
<asrwt>0</asrwt>
<pdfrwt beam="1">  1       21 0.26479758E-02 0.41117477E+03</pdfrwt>
<pdfrwt beam="2">  1       21 0.34519229E+00 0.41117477E+03</pdfrwt>
<totfact> 0.12293211E+04</totfact>
</mgrwt>
</event>
<event>
 7    0  0.4712189E-002  0.4550338E+03  0.7546771E-02  0.1026231E+00
         21   -1    0    0  502  501  0.00000000000E+00  0.00000000000E+00  0.54606348512E+03  0.54606348512E+03  0.00000000000E+00 0. -1.
         21   -1    0    0  501  502 -0.00000000000E+00 -0.00000000000E+00 -0.94794732903E+02  0.94794732903E+02  0.00000000000E+00 0. -1.
      99926    2    1    2    0    0  0.00000000000E+00  0.00000000000E+00  0.45126875222E+03  0.64085821802E+03  0.45503381070E+03 0.  0.
      99925    2    3    3    0    0 -0.59642764747E+02  0.96304166046E+02  0.28375676603E+03  0.40307780377E+03  0.26291074881E+03 0.  0.
         25    1    4    4    0    0 -0.31135153702E+02  0.90383538017E+02  0.16690552632E+03  0.22944181083E+03  0.12509000000E+03 0.  0.
         25    1    4    4    0    0 -0.28507611046E+02  0.59206280290E+01  0.11685123971E+03  0.17363599294E+03  0.12509000000E+03 0.  0.
         25    1    3    3    0    0  0.59642764747E+02 -0.96304166046E+02  0.16751198619E+03  0.23778041425E+03  0.12509000000E+03 0.  0.
<mgrwt>
<rscale>  2 0.45503381E+03</rscale>
<asrwt>0</asrwt>
<pdfrwt beam="1">  1       21 0.80303452E-01 0.45503381E+03</pdfrwt>
<pdfrwt beam="2">  1       21 0.13940402E-01 0.45503381E+03</pdfrwt>
<totfact> 0.56216241E+04</totfact>
</mgrwt>
</event>
<event>
 7    0  0.4712189E-002  0.4560774E+03  0.7546771E-02  0.1025925E+00
         21   -1    0    0  502  501  0.00000000000E+00  0.00000000000E+00  0.34364311498E+03  0.34364311498E+03  0.00000000000E+00 0. -1.
         21   -1    0    0  501  502 -0.00000000000E+00 -0.00000000000E+00 -0.15132460181E+03  0.15132460181E+03  0.00000000000E+00 0. -1.
      99926    2    1    2    0    0  0.00000000000E+00  0.00000000000E+00  0.19231851317E+03  0.49496771679E+03  0.45607743877E+03 0.  0.
      99925    2    3    3    0    0  0.47295573950E+02 -0.94298261517E+02  0.16868026067E+03  0.32963378645E+03  0.26282383718E+03 0.  0.
         25    1    3    3    0    0 -0.47295573950E+02  0.94298261517E+02  0.23638252503E+02  0.16533393034E+03  0.12509000000E+03 0.  0.
         25    1    4    4    0    0  0.28920952210E+02 -0.81362652505E+02  0.11953167616E+03  0.19336916095E+03  0.12509000000E+03 0.  0.
         25    1    4    4    0    0  0.18374621740E+02 -0.12935609012E+02  0.49148584502E+02  0.13626462550E+03  0.12509000000E+03 0.  0.
<mgrwt>
<rscale>  2 0.45607744E+03</rscale>
<asrwt>0</asrwt>
<pdfrwt beam="1">  1       21 0.50535752E-01 0.45607744E+03</pdfrwt>
<pdfrwt beam="2">  1       21 0.22253618E-01 0.45607744E+03</pdfrwt>
<totfact> 0.65067329E+04</totfact>
</mgrwt>
</event>
<event>
 7    0  0.4712189E-002  0.4569268E+03  0.7546771E-02  0.1025676E+00
         21   -1    0    0  502  501  0.00000000000E+00  0.00000000000E+00  0.19657266929E+03  0.19657266929E+03  0.00000000000E+00 0. -1.
         21   -1    0    0  501  502 -0.00000000000E+00 -0.00000000000E+00 -0.26552787004E+03  0.26552787004E+03  0.00000000000E+00 0. -1.
      99926    2    1    2    0    0  0.14210854715E-13  0.00000000000E+00 -0.68955200744E+02  0.46210053933E+03  0.45692678707E+03 0.  0.
      99925    2    3    3    0    0  0.95409135743E+02 -0.46634641644E+02 -0.87928515652E+02  0.29691825286E+03  0.26296640857E+03 0.  0.
         25    1    4    4    0    0  0.56911278206E+02 -0.62787061667E+02 -0.37025269949E+02  0.15556184434E+03  0.12509000000E+03 0.  0.
         25    1    4    4    0    0  0.38497857537E+02  0.16152420023E+02 -0.50903245703E+02  0.14135640852E+03  0.12509000000E+03 0.  0.
         25    1    3    3    0    0 -0.95409135743E+02  0.46634641644E+02  0.18973314909E+02  0.16518228647E+03  0.12509000000E+03 0.  0.
<mgrwt>
<rscale>  2 0.45692679E+03</rscale>
<asrwt>0</asrwt>
<pdfrwt beam="1">  1       21 0.28907746E-01 0.45692679E+03</pdfrwt>
<pdfrwt beam="2">  1       21 0.39048216E-01 0.45692679E+03</pdfrwt>
<totfact> 0.66992453E+04</totfact>
</mgrwt>
</event>
<event>
 7    0  0.4712189E-002  0.4401874E+03  0.7546771E-02  0.1030689E+00
         21   -1    0    0  502  501  0.00000000000E+00  0.00000000000E+00  0.49385892376E+02  0.49385892376E+02  0.00000000000E+00 0.  1.
         21   -1    0    0  501  502 -0.00000000000E+00 -0.00000000000E+00 -0.98087177739E+03  0.98087177739E+03  0.00000000000E+00 0.  1.
      99926    2    1    2    0    0  0.17763568394E-14 -0.71054273576E-14 -0.93148588501E+03  0.10302576698E+04  0.44018736026E+03 0.  0.
      99925    2    3    3    0    0 -0.94069143465E+01  0.60260612530E+02 -0.41211969934E+03  0.49256949398E+03  0.26279693369E+03 0.  0.
         25    1    4    4    0    0  0.22379406500E+01  0.42614647649E+02 -0.14113632307E+03  0.19335973304E+03  0.12509000000E+03 0.  0.
         25    1    4    4    0    0 -0.11644854996E+02  0.17645964881E+02 -0.27098337628E+03  0.29920976094E+03  0.12509000000E+03 0.  0.
         25    1    3    3    0    0  0.94069143465E+01 -0.60260612530E+02 -0.51936618567E+03  0.53768817578E+03  0.12509000000E+03 0.  0.
<mgrwt>
<rscale>  2 0.44018736E+03</rscale>
<asrwt>0</asrwt>
<pdfrwt beam="1">  1       21 0.72626318E-02 0.44018736E+03</pdfrwt>
<pdfrwt beam="2">  1       21 0.14424584E+00 0.44018736E+03</pdfrwt>
<totfact> 0.42743249E+04</totfact>
</mgrwt>
</event>
<event>
 7    0  0.4712189E-002  0.4196331E+03  0.7546771E-02  0.1037186E+00
         21   -1    0    0  502  501  0.00000000000E+00  0.00000000000E+00  0.42301321668E+02  0.42301321668E+02  0.00000000000E+00 0. -1.
         21   -1    0    0  501  502 -0.00000000000E+00 -0.00000000000E+00 -0.10406998690E+04  0.10406998690E+04  0.00000000000E+00 0. -1.
      99926    2    1    2    0    0  0.00000000000E+00 -0.44408920985E-14 -0.99839854734E+03  0.10830011907E+04  0.41963307743E+03 0.  0.
      99925    2    3    3    0    0  0.20375840318E+02 -0.48551268553E+01 -0.46413487479E+03  0.53388924669E+03  0.26301672686E+03 0.  0.
         25    1    4    4    0    0  0.21725270138E+02 -0.33502417486E+02 -0.28210897669E+03  0.31117098542E+03  0.12509000000E+03 0.  0.
         25    1    3    3    0    0 -0.20375840318E+02  0.48551268553E+01 -0.53426367255E+03  0.54911194399E+03  0.12509000000E+03 0.  0.
         25    1    4    4    0    0 -0.13494298203E+01  0.28647290631E+02 -0.18202589810E+03  0.22271826126E+03  0.12509000000E+03 0.  0.
<mgrwt>
<rscale>  2 0.41963308E+03</rscale>
<asrwt>0</asrwt>
<pdfrwt beam="1">  1       21 0.62207828E-02 0.41963308E+03</pdfrwt>
<pdfrwt beam="2">  1       21 0.15304409E+00 0.41963308E+03</pdfrwt>
<totfact> 0.48038243E+04</totfact>
</mgrwt>
</event>
<event>
 7    0  0.4712189E-002  0.4542447E+03  0.7546771E-02  0.1026464E+00
         21   -1    0    0  502  501  0.00000000000E+00  0.00000000000E+00  0.37724047804E+03  0.37724047804E+03  0.00000000000E+00 0.  1.
         21   -1    0    0  501  502 -0.00000000000E+00 -0.00000000000E+00 -0.13674185827E+03  0.13674185827E+03  0.00000000000E+00 0.  1.
      99926    2    1    2    0    0  0.00000000000E+00  0.00000000000E+00  0.24049861977E+03  0.51398233631E+03  0.45424470931E+03 0.  0.
      99925    2    3    3    0    0 -0.54807864964E+02  0.48470876695E+02  0.24826363234E+03  0.36885779852E+03  0.26280775567E+03 0.  0.
         25    1    3    3    0    0  0.54807864964E+02 -0.48470876695E+02 -0.77650125724E+01  0.14512453779E+03  0.12509000000E+03 0.  0.
         25    1    4    4    0    0 -0.66937607071E+02  0.16623235024E+02  0.12136197958E+03  0.18743855892E+03  0.12509000000E+03 0.  0.
         25    1    4    4    0    0  0.12129742107E+02  0.31847641671E+02  0.12690165276E+03  0.18141923960E+03  0.12509000000E+03 0.  0.
<mgrwt>
<rscale>  2 0.45424471E+03</rscale>
<asrwt>0</asrwt>
<pdfrwt beam="1">  1       21 0.55476541E-01 0.45424471E+03</pdfrwt>
<pdfrwt beam="2">  1       21 0.20109097E-01 0.45424471E+03</pdfrwt>
<totfact> 0.64685928E+04</totfact>
</mgrwt>
</event>
<event>
 7    0  0.4712189E-002  0.4321256E+03  0.7546771E-02  0.1033191E+00
         21   -1    0    0  502  501  0.00000000000E+00  0.00000000000E+00  0.90544520010E+02  0.90544520010E+02  0.00000000000E+00 0. -1.
         21   -1    0    0  501  502 -0.00000000000E+00 -0.00000000000E+00 -0.51558221633E+03  0.51558221633E+03  0.00000000000E+00 0. -1.
      99926    2    1    2    0    0  0.00000000000E+00  0.35527136788E-14 -0.42503769632E+03  0.60612673634E+03  0.43212564980E+03 0.  0.
      99925    2    3    3    0    0  0.33238672301E+02  0.30303348771E+02 -0.16418989874E+03  0.31336030403E+03  0.26308412155E+03 0.  0.
         25    1    4    4    0    0  0.25739410137E+02 -0.20245783983E+02 -0.10158336220E+03  0.16443569132E+03  0.12509000000E+03 0.  0.
         25    1    4    4    0    0  0.74992621646E+01  0.50549132754E+02 -0.62606536541E+02  0.14892461272E+03  0.12509000000E+03 0.  0.
         25    1    3    3    0    0 -0.33238672301E+02 -0.30303348771E+02 -0.26084779758E+03  0.29276643231E+03  0.12509000000E+03 0.  0.
<mgrwt>
<rscale>  2 0.43212565E+03</rscale>
<asrwt>0</asrwt>
<pdfrwt beam="1">  1       21 0.13315370E-01 0.43212565E+03</pdfrwt>
<pdfrwt beam="2">  1       21 0.75820915E-01 0.43212565E+03</pdfrwt>
<totfact> 0.70142822E+04</totfact>
</mgrwt>
</event>
<event>
 7    0  0.4712189E-002  0.4654654E+03  0.7546771E-02  0.1023208E+00
         21   -1    0    0  502  501  0.00000000000E+00  0.00000000000E+00  0.15275628117E+03  0.15275628117E+03  0.00000000000E+00 0.  1.
         21   -1    0    0  501  502 -0.00000000000E+00 -0.00000000000E+00 -0.35458120187E+03  0.35458120187E+03  0.00000000000E+00 0.  1.
      99926    2    1    2    0    0  0.00000000000E+00  0.00000000000E+00 -0.20182492070E+03  0.50733748303E+03  0.46546538333E+03 0.  0.
      99925    2    3    3    0    0 -0.72256711515E+02 -0.55438149133E+02 -0.21556217770E+03  0.35199707919E+03  0.26294575593E+03 0.  0.
         25    1    4    4    0    0 -0.22239718216E+02 -0.52116938758E+02 -0.14565418438E+03  0.20018349057E+03  0.12509000000E+03 0.  0.
         25    1    3    3    0    0  0.72256711515E+02  0.55438149133E+02  0.13737256999E+02  0.15534040385E+03  0.12509000000E+03 0.  0.
         25    1    4    4    0    0 -0.50016993299E+02 -0.33212103750E+01 -0.69907993323E+02  0.15181358861E+03  0.12509000000E+03 0.  0.
<mgrwt>
<rscale>  2 0.46546538E+03</rscale>
<asrwt>0</asrwt>
<pdfrwt beam="1">  1       21 0.22464159E-01 0.46546538E+03</pdfrwt>
<pdfrwt beam="2">  1       21 0.52144295E-01 0.46546538E+03</pdfrwt>
<totfact> 0.59647026E+04</totfact>
</mgrwt>
</event>
<event>
 6    0  0.4712189E-002  0.4485198E+03  0.7546771E-02  0.1028164E+00
         21   -1    0    0  502  501  0.00000000000E+00  0.00000000000E+00  0.87543418164E+02  0.87543418164E+02  0.00000000000E+00 0.  1.
         21   -1    0    0  501  502 -0.00000000000E+00 -0.00000000000E+00 -0.57448639181E+03  0.57448639181E+03  0.00000000000E+00 0.  1.
      99926    2    1    2    0    0  0.71054273576E-14 -0.14210854715E-13 -0.48694297365E+03  0.66202980998E+03  0.44851979857E+03 0.  0.
         25    1    3    3    0    0 -0.36100824434E+02  0.13440432988E+02 -0.90170480639E+02  0.15894067586E+03  0.12509000000E+03 0.  0.
         25    1    3    3    0    0 -0.27480726096E+01  0.79897927372E+02 -0.19281946095E+03  0.24334765937E+03  0.12509000000E+03 0.  0.
         25    1    3    3    0    0  0.38848897044E+02 -0.93338360361E+02 -0.20395303206E+03  0.25974147475E+03  0.12509000000E+03 0.  0.
<mgrwt>
<rscale>  2 0.44851980E+03</rscale>
<asrwt>0</asrwt>
<pdfrwt beam="1">  1       21 0.12874032E-01 0.44851980E+03</pdfrwt>
<pdfrwt beam="2">  1       21 0.84483292E-01 0.44851980E+03</pdfrwt>
<totfact> 0.57915746E+04</totfact>
</mgrwt>
</event>
<event>
 7    0  0.4712189E-002  0.4563514E+03  0.7546771E-02  0.1025845E+00
         21   -1    0    0  502  501  0.00000000000E+00  0.00000000000E+00  0.17775494905E+03  0.17775494905E+03  0.00000000000E+00 0. -1.
         21   -1    0    0  501  502 -0.00000000000E+00 -0.00000000000E+00 -0.29289842007E+03  0.29289842007E+03  0.00000000000E+00 0. -1.
      99926    2    1    2    0    0  0.17763568394E-14 -0.14210854715E-13 -0.11514347102E+03  0.47065336913E+03  0.45635137225E+03 0.  0.
      99925    2    3    3    0    0  0.11319832800E+02  0.98217241042E+02 -0.13180295605E+03  0.31034176133E+03  0.26299282224E+03 0.  0.
         25    1    3    3    0    0 -0.11319832800E+02 -0.98217241042E+02  0.16659485027E+02  0.16031160780E+03  0.12509000000E+03 0.  0.
         25    1    4    4    0    0  0.79387488633E+01  0.70030525215E+02 -0.10851709649E+03  0.17997434963E+03  0.12509000000E+03 0.  0.
         25    1    4    4    0    0  0.33810839367E+01  0.28186715827E+02 -0.23285859563E+02  0.13036741170E+03  0.12509000000E+03 0.  0.
<mgrwt>
<rscale>  2 0.45635137E+03</rscale>
<asrwt>0</asrwt>
<pdfrwt beam="1">  1       21 0.26140434E-01 0.45635137E+03</pdfrwt>
<pdfrwt beam="2">  1       21 0.43073297E-01 0.45635137E+03</pdfrwt>
<totfact> 0.66669574E+04</totfact>
</mgrwt>
</event>
<event>
 7    0  0.4712189E-002  0.4511954E+03  0.7546771E-02  0.1027366E+00
         21   -1    0    0  502  501  0.00000000000E+00  0.00000000000E+00  0.24495505942E+03  0.24495505942E+03  0.00000000000E+00 0.  1.
         21   -1    0    0  501  502 -0.00000000000E+00 -0.00000000000E+00 -0.20777003898E+03  0.20777003898E+03  0.00000000000E+00 0.  1.
      99926    2    1    2    0    0  0.35527136788E-14  0.00000000000E+00  0.37185020437E+02  0.45272509840E+03  0.45119539999E+03 0.  0.
      99925    2    3    3    0    0  0.31070065372E+02 -0.10243567688E+03  0.20879187480E+00  0.28398516110E+03  0.26303823158E+03 0.  0.
         25    1    4    4    0    0  0.51642513797E+02 -0.73125375205E+02 -0.24490411207E+01  0.15384334770E+03  0.12509000000E+03 0.  0.
         25    1    4    4    0    0 -0.20572448425E+02 -0.29310301675E+02  0.26578329955E+01  0.13014181340E+03  0.12509000000E+03 0.  0.
         25    1    3    3    0    0 -0.31070065372E+02  0.10243567688E+03  0.36976228562E+02  0.16873993730E+03  0.12509000000E+03 0.  0.
<mgrwt>
<rscale>  2 0.45119540E+03</rscale>
<asrwt>0</asrwt>
<pdfrwt beam="1">  1       21 0.36022803E-01 0.45119540E+03</pdfrwt>
<pdfrwt beam="2">  1       21 0.30554417E-01 0.45119540E+03</pdfrwt>
<totfact> 0.70838867E+04</totfact>
</mgrwt>
</event>
<event>
 7    0  0.4712189E-002  0.4562299E+03  0.7546771E-02  0.1025880E+00
         21   -1    0    0  502  501  0.00000000000E+00  0.00000000000E+00  0.27018322960E+03  0.27018322960E+03  0.00000000000E+00 0. -1.
         21   -1    0    0  501  502 -0.00000000000E+00 -0.00000000000E+00 -0.19259684493E+03  0.19259684493E+03  0.00000000000E+00 0. -1.
      99926    2    1    2    0    0 -0.88817841970E-15  0.00000000000E+00  0.77586384672E+02  0.46278007453E+03  0.45622993139E+03 0.  0.
      99925    2    3    3    0    0 -0.79915177102E+01 -0.11379703296E+03  0.41035962732E+02  0.28958345069E+03  0.26298478209E+03 0.  0.
         25    1    4    4    0    0  0.74069088147E+01 -0.95269427532E+02  0.39030347943E+02  0.16217892058E+03  0.12509000000E+03 0.  0.
         25    1    4    4    0    0 -0.15398426525E+02 -0.18527605427E+02  0.20056147889E+01  0.12740453011E+03  0.12509000000E+03 0.  0.
         25    1    3    3    0    0  0.79915177102E+01  0.11379703296E+03  0.36550421939E+02  0.17319662384E+03  0.12509000000E+03 0.  0.
<mgrwt>
<rscale>  2 0.45622993E+03</rscale>
<asrwt>0</asrwt>
<pdfrwt beam="1">  1       21 0.39732828E-01 0.45622993E+03</pdfrwt>
<pdfrwt beam="2">  1       21 0.28323065E-01 0.45622993E+03</pdfrwt>
<totfact> 0.67314637E+04</totfact>
</mgrwt>
</event>
<event>
 7    0  0.4712189E-002  0.4580690E+03  0.7546771E-02  0.1025343E+00
         21   -1    0    0  502  501  0.00000000000E+00  0.00000000000E+00  0.20860587297E+03  0.20860587297E+03  0.00000000000E+00 0. -1.
         21   -1    0    0  501  502 -0.00000000000E+00 -0.00000000000E+00 -0.25146365734E+03  0.25146365734E+03  0.00000000000E+00 0. -1.
      99926    2    1    2    0    0  0.88817841970E-15  0.00000000000E+00 -0.42857784375E+02  0.46006953031E+03  0.45806897193E+03 0.  0.
      99925    2    3    3    0    0  0.38320357656E+01  0.11695939810E+03 -0.16210294526E+02  0.28671503191E+03  0.26124423548E+03 0.  0.
         25    1    4    4    0    0  0.25166376278E+02  0.87055966532E+02  0.54210015902E+01  0.15456061323E+03  0.12509000000E+03 0.  0.
         25    1    3    3    0    0 -0.38320357656E+01 -0.11695939810E+03 -0.26647489849E+02  0.17335449840E+03  0.12509000000E+03 0.  0.
         25    1    4    4    0    0 -0.21334340513E+02  0.29903431568E+02 -0.21631296117E+02  0.13215441868E+03  0.12509000000E+03 0.  0.
<mgrwt>
<rscale>  2 0.45806897E+03</rscale>
<asrwt>0</asrwt>
<pdfrwt beam="1">  1       21 0.30677334E-01 0.45806897E+03</pdfrwt>
<pdfrwt beam="2">  1       21 0.36979949E-01 0.45806897E+03</pdfrwt>
<totfact> 0.66531902E+04</totfact>
</mgrwt>
</event>
<event>
 7    0  0.4712189E-002  0.4384204E+03  0.7546771E-02  0.1031233E+00
         21   -1    0    0  502  501  0.00000000000E+00  0.00000000000E+00  0.84786304067E+03  0.84786304067E+03  0.00000000000E+00 0. -1.
         21   -1    0    0  501  502 -0.00000000000E+00 -0.00000000000E+00 -0.56675552924E+02  0.56675552924E+02  0.00000000000E+00 0. -1.
      99926    2    1    2    0    0  0.00000000000E+00  0.00000000000E+00  0.79118748775E+03  0.90453859360E+03  0.43842037651E+03 0.  0.
      99925    2    3    3    0    0  0.21089028992E+02 -0.85045276659E+02  0.59087055434E+03  0.65264213047E+03  0.26293781062E+03 0.  0.
         25    1    3    3    0    0 -0.21089028992E+02  0.85045276659E+02  0.20031693341E+03  0.25189646313E+03  0.12509000000E+03 0.  0.
         25    1    4    4    0    0 -0.12613746399E+02 -0.38606709917E+02  0.36699326942E+03  0.38984760170E+03  0.12509000000E+03 0.  0.
         25    1    4    4    0    0  0.33702775391E+02 -0.46438566742E+02  0.22387728492E+03  0.26279452877E+03  0.12509000000E+03 0.  0.
<mgrwt>
<rscale>  2 0.43842038E+03</rscale>
<asrwt>0</asrwt>
<pdfrwt beam="1">  1       21 0.12468573E+00 0.43842038E+03</pdfrwt>
<pdfrwt beam="2">  1       21 0.83346407E-02 0.43842038E+03</pdfrwt>
<totfact> 0.49105559E+04</totfact>
</mgrwt>
</event>
<event>
 7    0  0.4712189E-002  0.4441002E+03  0.7546771E-02  0.1029496E+00
         21   -1    0    0  502  501  0.00000000000E+00  0.00000000000E+00  0.25322749919E+03  0.25322749919E+03  0.00000000000E+00 0. -1.
         21   -1    0    0  501  502 -0.00000000000E+00 -0.00000000000E+00 -0.19471123300E+03  0.19471123300E+03  0.00000000000E+00 0. -1.
      99926    2    1    2    0    0  0.00000000000E+00  0.00000000000E+00  0.58516266190E+02  0.44793873219E+03  0.44410016256E+03 0.  0.
      99925    2    3    3    0    0 -0.76512897096E+02 -0.18339509030E+02 -0.29290466128E+02  0.27604314949E+03  0.26296640082E+03 0.  0.
         25    1    3    3    0    0  0.76512897096E+02  0.18339509030E+02  0.87806732318E+02  0.17189558271E+03  0.12509000000E+03 0.  0.
         25    1    4    4    0    0  0.27080715921E+01 -0.10954065962E+02 -0.40736120728E+01  0.12566394721E+03  0.12509000000E+03 0.  0.
         25    1    4    4    0    0 -0.79220968688E+02 -0.73854430679E+01 -0.25216854055E+02  0.15037920228E+03  0.12509000000E+03 0.  0.
<mgrwt>
<rscale>  2 0.44410016E+03</rscale>
<asrwt>0</asrwt>
<pdfrwt beam="1">  1       21 0.37239338E-01 0.44410016E+03</pdfrwt>
<pdfrwt beam="2">  1       21 0.28634005E-01 0.44410016E+03</pdfrwt>
<totfact> 0.75413806E+04</totfact>
</mgrwt>
</event>
<event>
 7    0  0.4712189E-002  0.4543384E+03  0.7546771E-02  0.1026436E+00
         21   -1    0    0  502  501  0.00000000000E+00  0.00000000000E+00  0.10230701082E+04  0.10230701082E+04  0.00000000000E+00 0.  1.
         21   -1    0    0  501  502 -0.00000000000E+00 -0.00000000000E+00 -0.50442136003E+02  0.50442136003E+02  0.00000000000E+00 0.  1.
      99926    2    1    2    0    0  0.00000000000E+00  0.00000000000E+00  0.97262797221E+03  0.10735122442E+04  0.45433838288E+03 0.  0.
      99925    2    3    3    0    0 -0.66153028305E+02 -0.89464131457E+02  0.57473177163E+03  0.64183070823E+03  0.26315393735E+03 0.  0.
         25    1    4    4    0    0 -0.52532216214E+02 -0.84052900957E+02  0.33200608058E+03  0.36837490351E+03  0.12509000000E+03 0.  0.
         25    1    3    3    0    0  0.66153028305E+02  0.89464131457E+02  0.39789620058E+03  0.43168153598E+03  0.12509000000E+03 0.  0.
         25    1    4    4    0    0 -0.13620812091E+02 -0.54112304998E+01  0.24272569105E+03  0.27345580472E+03  0.12509000000E+03 0.  0.
<mgrwt>
<rscale>  2 0.45433838E+03</rscale>
<asrwt>0</asrwt>
<pdfrwt beam="1">  1       21 0.15045147E+00 0.45433838E+03</pdfrwt>
<pdfrwt beam="2">  1       21 0.74179618E-02 0.45433838E+03</pdfrwt>
<totfact> 0.36614986E+04</totfact>
</mgrwt>
</event>
<event>
 7    0  0.4712189E-002  0.4574401E+03  0.7546771E-02  0.1025526E+00
         21   -1    0    0  502  501  0.00000000000E+00  0.00000000000E+00  0.21079084857E+04  0.21079084857E+04  0.00000000000E+00 0. -1.
         21   -1    0    0  501  502 -0.00000000000E+00 -0.00000000000E+00 -0.24817422650E+02  0.24817422650E+02  0.00000000000E+00 0. -1.
      99926    2    1    2    0    0  0.00000000000E+00 -0.71054273576E-14  0.20830910631E+04  0.21327259084E+04  0.45744007607E+03 0.  0.
      99925    2    3    3    0    0  0.33711300888E+02  0.48204441364E+02  0.17707938438E+04  0.17912040478E+04  0.26313681555E+03 0.  0.
         25    1    4    4    0    0  0.74031757077E+01  0.13501094572E+02  0.11199318325E+04  0.11270012884E+04  0.12509000000E+03 0.  0.
         25    1    3    3    0    0 -0.33711300888E+02 -0.48204441364E+02  0.31229721931E+03  0.34152186060E+03  0.12509000000E+03 0.  0.
         25    1    4    4    0    0  0.26308125180E+02  0.34703346792E+02  0.65086201131E+03  0.66420275940E+03  0.12509000000E+03 0.  0.
<mgrwt>
<rscale>  2 0.45744008E+03</rscale>
<asrwt>0</asrwt>
<pdfrwt beam="1">  1       21 0.30998642E+00 0.45744008E+03</pdfrwt>
<pdfrwt beam="2">  1       21 0.36496224E-02 0.45744008E+03</pdfrwt>
<totfact> 0.11443017E+04</totfact>
</mgrwt>
</event>
<event>
 7    0  0.4712189E-002  0.4335736E+03  0.7546771E-02  0.1032737E+00
         21   -1    0    0  502  501  0.00000000000E+00  0.00000000000E+00  0.34595326488E+02  0.34595326488E+02  0.00000000000E+00 0. -1.
         21   -1    0    0  501  502 -0.00000000000E+00 -0.00000000000E+00 -0.13584642094E+04  0.13584642094E+04  0.00000000000E+00 0. -1.
      99926    2    1    2    0    0  0.00000000000E+00  0.00000000000E+00 -0.13238688829E+04  0.13930595359E+04  0.43357358244E+03 0.  0.
      99925    2    3    3    0    0 -0.59033086012E+02 -0.88523291033E+01 -0.62676791278E+03  0.68231306939E+03  0.26296357010E+03 0.  0.
         25    1    4    4    0    0 -0.12675457084E+02 -0.26965704636E+02 -0.23246064549E+03  0.26565631225E+03  0.12509000000E+03 0.  0.
         25    1    4    4    0    0 -0.46357628927E+02  0.18113375533E+02 -0.39430726729E+03  0.41665675714E+03  0.12509000000E+03 0.  0.
         25    1    3    3    0    0  0.59033086012E+02  0.88523291033E+01 -0.69710097016E+03  0.71074646652E+03  0.12509000000E+03 0.  0.
<mgrwt>
<rscale>  2 0.43357358E+03</rscale>
<asrwt>0</asrwt>
<pdfrwt beam="1">  1       21 0.50875500E-02 0.43357358E+03</pdfrwt>
<pdfrwt beam="2">  1       21 0.19977407E+00 0.43357358E+03</pdfrwt>
<totfact> 0.31435316E+04</totfact>
</mgrwt>
</event>
<event>
 7    0  0.4712189E-002  0.4591536E+03  0.7546771E-02  0.1025027E+00
         21   -1    0    0  502  501  0.00000000000E+00  0.00000000000E+00  0.42991367033E+02  0.42991367033E+02  0.00000000000E+00 0. -1.
         21   -1    0    0  501  502 -0.00000000000E+00 -0.00000000000E+00 -0.12259555061E+04  0.12259555061E+04  0.00000000000E+00 0. -1.
      99926    2    1    2    0    0  0.35527136788E-14  0.00000000000E+00 -0.11829641391E+04  0.12689468731E+04  0.45915358271E+03 0.  0.
      99925    2    3    3    0    0  0.23796375306E+02  0.16767096164E+02 -0.42841076594E+03  0.50354129176E+03  0.26300312764E+03 0.  0.
         25    1    4    4    0    0  0.17903782985E+02 -0.30524133866E+02 -0.19215541680E+03  0.23199888038E+03  0.12509000000E+03 0.  0.
         25    1    3    3    0    0 -0.23796375306E+02 -0.16767096164E+02 -0.75455337313E+03  0.76540558137E+03  0.12509000000E+03 0.  0.
         25    1    4    4    0    0  0.58925923211E+01  0.47291230029E+02 -0.23625534914E+03  0.27154241138E+03  0.12509000000E+03 0.  0.
<mgrwt>
<rscale>  2 0.45915358E+03</rscale>
<asrwt>0</asrwt>
<pdfrwt beam="1">  1       21 0.63222593E-02 0.45915358E+03</pdfrwt>
<pdfrwt beam="2">  1       21 0.18028759E+00 0.45915358E+03</pdfrwt>
<totfact> 0.29078578E+04</totfact>
</mgrwt>
</event>
<event>
 7    0  0.4712189E-002  0.4605120E+03  0.7546771E-02  0.1024633E+00
         21   -1    0    0  502  501  0.00000000000E+00  0.00000000000E+00  0.90836314733E+03  0.90836314733E+03  0.00000000000E+00 0.  1.
         21   -1    0    0  501  502 -0.00000000000E+00 -0.00000000000E+00 -0.58366340765E+02  0.58366340765E+02  0.00000000000E+00 0.  1.
      99926    2    1    2    0    0  0.26645352591E-14  0.13322676296E-14  0.84999680657E+03  0.96672948809E+03  0.46051203239E+03 0.  0.
      99925    2    3    3    0    0  0.43671873106E+01  0.36513208915E+01  0.28431852458E+03  0.38735755982E+03  0.26301416551E+03 0.  0.
         25    1    4    4    0    0 -0.25853097792E+02  0.28372575243E+02  0.16043431137E+03  0.20702671822E+03  0.12509000000E+03 0.  0.
         25    1    3    3    0    0 -0.43671873106E+01 -0.36513208915E+01  0.56567828198E+03  0.57937192828E+03  0.12509000000E+03 0.  0.
         25    1    4    4    0    0  0.30220285103E+02 -0.24721254352E+02  0.12388421321E+03  0.18033084160E+03  0.12509000000E+03 0.  0.
<mgrwt>
<rscale>  2 0.46051203E+03</rscale>
<asrwt>0</asrwt>
<pdfrwt beam="1">  1       21 0.13358281E+00 0.46051203E+03</pdfrwt>
<pdfrwt beam="2">  1       21 0.85832859E-02 0.46051203E+03</pdfrwt>
<totfact> 0.38772658E+04</totfact>
</mgrwt>
</event>
<event>
 7    0  0.4712189E-002  0.4517486E+03  0.7546771E-02  0.1027202E+00
         21   -1    0    0  502  501  0.00000000000E+00  0.00000000000E+00  0.20280335447E+03  0.20280335447E+03  0.00000000000E+00 0. -1.
         21   -1    0    0  501  502 -0.00000000000E+00 -0.00000000000E+00 -0.25156976114E+03  0.25156976114E+03  0.00000000000E+00 0. -1.
      99926    2    1    2    0    0 -0.71054273576E-14  0.00000000000E+00 -0.48766406667E+02  0.45437311561E+03  0.45174856476E+03 0.  0.
      99925    2    3    3    0    0  0.54427075591E+02  0.82135112260E+02  0.18455980766E+02  0.28152971627E+03  0.26307769706E+03 0.  0.
         25    1    3    3    0    0 -0.54427075591E+02 -0.82135112260E+02 -0.67222387433E+02  0.17284339934E+03  0.12509000000E+03 0.  0.
         25    1    4    4    0    0  0.37559465787E+02  0.40382405931E+02 -0.30117401739E+02  0.13998577844E+03  0.12509000000E+03 0.  0.
         25    1    4    4    0    0  0.16867609804E+02  0.41752706328E+02  0.48573382505E+02  0.14154393782E+03  0.12509000000E+03 0.  0.
<mgrwt>
<rscale>  2 0.45174856E+03</rscale>
<asrwt>0</asrwt>
<pdfrwt beam="1">  1       21 0.29824023E-01 0.45174856E+03</pdfrwt>
<pdfrwt beam="2">  1       21 0.36995553E-01 0.45174856E+03</pdfrwt>
<totfact> 0.70400344E+04</totfact>
</mgrwt>
</event>
<event>
 7    0  0.4712189E-002  0.4582853E+03  0.7546771E-02  0.1025280E+00
         21   -1    0    0  502  501  0.00000000000E+00  0.00000000000E+00  0.40021982566E+03  0.40021982566E+03  0.00000000000E+00 0. -1.
         21   -1    0    0  501  502 -0.00000000000E+00 -0.00000000000E+00 -0.13119376946E+03  0.13119376946E+03  0.00000000000E+00 0. -1.
      99926    2    1    2    0    0  0.00000000000E+00 -0.71054273576E-14  0.26902605621E+03  0.53141359512E+03  0.45828527159E+03 0.  0.
      99925    2    3    3    0    0 -0.91022570337E+02  0.45436180897E+02  0.23393870569E+03  0.36640394355E+03  0.26301136284E+03 0.  0.
         25    1    4    4    0    0 -0.29308845853E+02 -0.13037942943E+02  0.88318144161E+02  0.15644998910E+03  0.12509000000E+03 0.  0.
         25    1    3    3    0    0  0.91022570337E+02 -0.45436180897E+02  0.35087350518E+02  0.16500965157E+03  0.12509000000E+03 0.  0.
         25    1    4    4    0    0 -0.61713724484E+02  0.58474123839E+02  0.14562056153E+03  0.20995395445E+03  0.12509000000E+03 0.  0.
<mgrwt>
<rscale>  2 0.45828527E+03</rscale>
<asrwt>0</asrwt>
<pdfrwt beam="1">  1       21 0.58855856E-01 0.45828527E+03</pdfrwt>
<pdfrwt beam="2">  1       21 0.19293201E-01 0.45828527E+03</pdfrwt>
<totfact> 0.61494000E+04</totfact>
</mgrwt>
</event>
<event>
 7    0  0.4712189E-002  0.4475505E+03  0.7546771E-02  0.1028455E+00
         21   -1    0    0  502  501  0.00000000000E+00  0.00000000000E+00  0.15427267937E+03  0.15427267937E+03  0.00000000000E+00 0.  1.
         21   -1    0    0  501  502 -0.00000000000E+00 -0.00000000000E+00 -0.32459002998E+03  0.32459002998E+03  0.00000000000E+00 0.  1.
      99926    2    1    2    0    0 -0.17763568394E-14 -0.14210854715E-13 -0.17031735061E+03  0.47886270934E+03  0.44755054964E+03 0.  0.
      99925    2    3    3    0    0  0.61371545868E+01 -0.95672817266E+02 -0.60117371161E+02  0.28655437307E+03  0.26326480543E+03 0.  0.
         25    1    4    4    0    0 -0.22506485733E+02 -0.64204129352E+02 -0.25207971386E+01  0.14241690435E+03  0.12509000000E+03 0.  0.
         25    1    4    4    0    0  0.28643640320E+02 -0.31468687914E+02 -0.57596574023E+02  0.14413746872E+03  0.12509000000E+03 0.  0.
         25    1    3    3    0    0 -0.61371545868E+01  0.95672817266E+02 -0.11019997945E+03  0.19230833627E+03  0.12509000000E+03 0.  0.
<mgrwt>
<rscale>  2 0.44755055E+03</rscale>
<asrwt>0</asrwt>
<pdfrwt beam="1">  1       21 0.22687159E-01 0.44755055E+03</pdfrwt>
<pdfrwt beam="2">  1       21 0.47733827E-01 0.44755055E+03</pdfrwt>
<totfact> 0.70882746E+04</totfact>
</mgrwt>
</event>
<event>
 7    0  0.4712189E-002  0.4441931E+03  0.7546771E-02  0.1029468E+00
         21   -1    0    0  502  501  0.00000000000E+00  0.00000000000E+00  0.30514958985E+03  0.30514958985E+03  0.00000000000E+00 0. -1.
         21   -1    0    0  501  502 -0.00000000000E+00 -0.00000000000E+00 -0.16164819899E+03  0.16164819899E+03  0.00000000000E+00 0. -1.
      99926    2    1    2    0    0  0.00000000000E+00 -0.71054273576E-14  0.14350139087E+03  0.46679778884E+03  0.44419311846E+03 0.  0.
      99925    2    3    3    0    0 -0.82526975458E+02  0.51404378058E+02  0.56480638519E+02  0.28604040670E+03  0.26301319354E+03 0.  0.
         25    1    4    4    0    0 -0.31017239192E+02  0.63420970258E+02  0.17217910644E+02  0.14466600548E+03  0.12509000000E+03 0.  0.
         25    1    3    3    0    0  0.82526975458E+02 -0.51404378058E+02  0.87020752346E+02  0.18075738215E+03  0.12509000000E+03 0.  0.
         25    1    4    4    0    0 -0.51509736265E+02 -0.12016592200E+02  0.39262727876E+02  0.14137440121E+03  0.12509000000E+03 0.  0.
<mgrwt>
<rscale>  2 0.44419312E+03</rscale>
<asrwt>0</asrwt>
<pdfrwt beam="1">  1       21 0.44874940E-01 0.44419312E+03</pdfrwt>
<pdfrwt beam="2">  1       21 0.23771794E-01 0.44419312E+03</pdfrwt>
<totfact> 0.73803087E+04</totfact>
</mgrwt>
</event>
<event>
 7    0  0.4712189E-002  0.4586600E+03  0.7546771E-02  0.1025171E+00
         21   -1    0    0  502  501  0.00000000000E+00  0.00000000000E+00  0.38672963162E+02  0.38672963162E+02  0.00000000000E+00 0. -1.
         21   -1    0    0  501  502 -0.00000000000E+00 -0.00000000000E+00 -0.13599228872E+04  0.13599228872E+04  0.00000000000E+00 0. -1.
      99926    2    1    2    0    0  0.14210854715E-13  0.00000000000E+00 -0.13212499240E+04  0.13985958504E+04  0.45865999486E+03 0.  0.
      99925    2    3    3    0    0 -0.11554148756E+03  0.15406617101E+02 -0.82045571614E+03  0.86941767057E+03  0.26296825771E+03 0.  0.
         25    1    3    3    0    0  0.11554148756E+03 -0.15406617101E+02 -0.50079420790E+03  0.52917817979E+03  0.12509000000E+03 0.  0.
         25    1    4    4    0    0 -0.88300278925E+02  0.14997416376E+02 -0.53263152308E+03  0.55440572619E+03  0.12509000000E+03 0.  0.
         25    1    4    4    0    0 -0.27241208640E+02  0.40920072564E+00 -0.28782419306E+03  0.31501194438E+03  0.12509000000E+03 0.  0.
<mgrwt>
<rscale>  2 0.45865999E+03</rscale>
<asrwt>0</asrwt>
<pdfrwt beam="1">  1       21 0.56872025E-02 0.45865999E+03</pdfrwt>
<pdfrwt beam="2">  1       21 0.19998859E+00 0.45865999E+03</pdfrwt>
<totfact> 0.25632606E+04</totfact>
</mgrwt>
</event>
<event>
 7    0  0.4712189E-002  0.4549335E+03  0.7546771E-02  0.1026261E+00
         21   -1    0    0  502  501  0.00000000000E+00  0.00000000000E+00  0.33792290845E+03  0.33792290845E+03  0.00000000000E+00 0. -1.
         21   -1    0    0  501  502 -0.00000000000E+00 -0.00000000000E+00 -0.15311514423E+03  0.15311514423E+03  0.00000000000E+00 0. -1.
      99926    2    1    2    0    0  0.00000000000E+00  0.00000000000E+00  0.18480776423E+03  0.49103805268E+03  0.45493346707E+03 0.  0.
      99925    2    3    3    0    0 -0.72802949910E+02  0.84632625791E+02  0.12740411364E+03  0.31382169321E+03  0.26417663805E+03 0.  0.
         25    1    4    4    0    0 -0.62249579097E+02  0.59868313366E+02  0.10284727388E+03  0.18353281692E+03  0.12509000000E+03 0.  0.
         25    1    4    4    0    0 -0.10553370813E+02  0.24764312425E+02  0.24556839760E+02  0.13028887629E+03  0.12509000000E+03 0.  0.
         25    1    3    3    0    0  0.72802949910E+02 -0.84632625791E+02  0.57403650587E+02  0.17721635947E+03  0.12509000000E+03 0.  0.
<mgrwt>
<rscale>  2 0.45493347E+03</rscale>
<asrwt>0</asrwt>
<pdfrwt beam="1">  1       21 0.49694545E-01 0.45493347E+03</pdfrwt>
<pdfrwt beam="2">  1       21 0.22516933E-01 0.45493347E+03</pdfrwt>
<totfact> 0.65939784E+04</totfact>
</mgrwt>
</event>
<event>
 7    0  0.4712189E-002  0.4543783E+03  0.7546771E-02  0.1026424E+00
         21   -1    0    0  502  501  0.00000000000E+00  0.00000000000E+00  0.11408173818E+04  0.11408173818E+04  0.00000000000E+00 0. -1.
         21   -1    0    0  501  502 -0.00000000000E+00 -0.00000000000E+00 -0.45243787381E+02  0.45243787381E+02  0.00000000000E+00 0. -1.
      99926    2    1    2    0    0 -0.35527136788E-14  0.00000000000E+00  0.10955735944E+04  0.11860611692E+04  0.45437825240E+03 0.  0.
      99925    2    3    3    0    0 -0.24184617203E+02 -0.36952411045E+02  0.41946640283E+03  0.49706275191E+03  0.26299988562E+03 0.  0.
         25    1    4    4    0    0 -0.52634689031E+02 -0.21287231598E+02  0.22192620268E+03  0.26100249856E+03  0.12509000000E+03 0.  0.
         25    1    4    4    0    0  0.28450071827E+02 -0.15665179447E+02  0.19754020015E+03  0.23606025335E+03  0.12509000000E+03 0.  0.
         25    1    3    3    0    0  0.24184617203E+02  0.36952411045E+02  0.67610719159E+03  0.68899841727E+03  0.12509000000E+03 0.  0.
<mgrwt>
<rscale>  2 0.45437825E+03</rscale>
<asrwt>0</asrwt>
<pdfrwt beam="1">  1       21 0.16776724E+00 0.45437825E+03</pdfrwt>
<pdfrwt beam="2">  1       21 0.66534989E-02 0.45437825E+03</pdfrwt>
<totfact> 0.32759281E+04</totfact>
</mgrwt>
</event>
<event>
 6    0  0.4712189E-002  0.4551563E+03  0.7546771E-02  0.1026195E+00
         21   -1    0    0  502  501  0.00000000000E+00  0.00000000000E+00  0.10068645060E+03  0.10068645060E+03  0.00000000000E+00 0.  1.
         21   -1    0    0  501  502 -0.00000000000E+00 -0.00000000000E+00 -0.51438715517E+03  0.51438715517E+03  0.00000000000E+00 0.  1.
      99926    2    1    2    0    0 -0.35527136788E-14  0.00000000000E+00 -0.41370070456E+03  0.61507360577E+03  0.45515631113E+03 0.  0.
         25    1    3    3    0    0 -0.24869184865E+02 -0.35566595128E+02 -0.18022700566E+03  0.22363528504E+03  0.12509000000E+03 0.  0.
         25    1    3    3    0    0  0.30464125165E+02  0.83231108054E+02 -0.20239096813E+03  0.25389976831E+03  0.12509000000E+03 0.  0.
         25    1    3    3    0    0 -0.55949403004E+01 -0.47664512925E+02 -0.31082730775E+02  0.13753855242E+03  0.12509000000E+03 0.  0.
<mgrwt>
<rscale>  2 0.45515631E+03</rscale>
<asrwt>0</asrwt>
<pdfrwt beam="1">  1       21 0.14806831E-01 0.45515631E+03</pdfrwt>
<pdfrwt beam="2">  1       21 0.75645170E-01 0.45515631E+03</pdfrwt>
<totfact> 0.57688663E+04</totfact>
</mgrwt>
</event>
<event>
 7    0  0.4712189E-002  0.4557563E+03  0.7546771E-02  0.1026019E+00
         21   -1    0    0  502  501  0.00000000000E+00  0.00000000000E+00  0.16498954541E+02  0.16498954541E+02  0.00000000000E+00 0. -1.
         21   -1    0    0  501  502 -0.00000000000E+00 -0.00000000000E+00 -0.31473778948E+04  0.31473778948E+04  0.00000000000E+00 0. -1.
      99926    2    1    2    0    0  0.00000000000E+00  0.00000000000E+00 -0.31308789403E+04  0.31638768493E+04  0.45575627174E+03 0.  0.
      99925    2    3    3    0    0  0.32860892219E+02 -0.77210194649E+02 -0.25032061420E+04  0.25183833156E+04  0.26300623999E+03 0.  0.
         25    1    4    4    0    0 -0.22260005703E+02 -0.33291651600E+02 -0.13108484159E+04  0.13174122056E+04  0.12509000000E+03 0.  0.
         25    1    4    4    0    0  0.55120897922E+02 -0.43918543049E+02 -0.11923577262E+04  0.12009711100E+04  0.12509000000E+03 0.  0.
         25    1    3    3    0    0 -0.32860892219E+02  0.77210194649E+02 -0.62767279821E+03  0.64549353375E+03  0.12509000000E+03 0.  0.
<mgrwt>
<rscale>  2 0.45575627E+03</rscale>
<asrwt>0</asrwt>
<pdfrwt beam="1">  1       21 0.24263167E-02 0.45575627E+03</pdfrwt>
<pdfrwt beam="2">  1       21 0.46284972E+00 0.45575627E+03</pdfrwt>
<totfact> 0.24197180E+03</totfact>
</mgrwt>
</event>
<event>
 7    0  0.4712189E-002  0.4642334E+03  0.7546771E-02  0.1023561E+00
         21   -1    0    0  502  501  0.00000000000E+00  0.00000000000E+00  0.24817201436E+03  0.24817201436E+03  0.00000000000E+00 0.  1.
         21   -1    0    0  501  502 -0.00000000000E+00 -0.00000000000E+00 -0.21710003131E+03  0.21710003131E+03  0.00000000000E+00 0.  1.
      99926    2    1    2    0    0  0.00000000000E+00  0.00000000000E+00  0.31071983056E+02  0.46527204567E+03  0.46423335549E+03 0.  0.
      99925    2    3    3    0    0  0.87179066892E+01  0.42572948780E+02 -0.94488859675E+02  0.28278508397E+03  0.26296539934E+03 0.  0.
         25    1    3    3    0    0 -0.87179066892E+01 -0.42572948780E+02  0.12556084273E+03  0.18248696170E+03  0.12509000000E+03 0.  0.
         25    1    4    4    0    0 -0.35677899968E+02  0.16904472530E+02 -0.41546712298E+02  0.13759473515E+03  0.12509000000E+03 0.  0.
         25    1    4    4    0    0  0.44395806658E+02  0.25668476250E+02 -0.52942147377E+02  0.14519034882E+03  0.12509000000E+03 0.  0.
<mgrwt>
<rscale>  2 0.46423336E+03</rscale>
<asrwt>0</asrwt>
<pdfrwt beam="1">  1       21 0.36495885E-01 0.46423336E+03</pdfrwt>
<pdfrwt beam="2">  1       21 0.31926475E-01 0.46423336E+03</pdfrwt>
<totfact> 0.63026948E+04</totfact>
</mgrwt>
</event>
<event>
 7    0  0.4712189E-002  0.4528987E+03  0.7546771E-02  0.1026861E+00
         21   -1    0    0  502  501  0.00000000000E+00  0.00000000000E+00  0.28096822896E+03  0.28096822896E+03  0.00000000000E+00 0.  1.
         21   -1    0    0  501  502 -0.00000000000E+00 -0.00000000000E+00 -0.18250930344E+03  0.18250930344E+03  0.00000000000E+00 0.  1.
      99926    2    1    2    0    0  0.00000000000E+00  0.00000000000E+00  0.98458925528E+02  0.46347753240E+03  0.45289873374E+03 0.  0.
      99925    2    3    3    0    0 -0.41320925073E+02  0.91609227965E+02  0.14539397877E+02  0.28239836541E+03  0.26351048024E+03 0.  0.
         25    1    3    3    0    0  0.41320925073E+02 -0.91609227965E+02  0.83919527651E+02  0.18107916699E+03  0.12509000000E+03 0.  0.
         25    1    4    4    0    0 -0.45949465168E+02  0.77024632210E+02 -0.90518214889E+01  0.15418687003E+03  0.12509000000E+03 0.  0.
         25    1    4    4    0    0  0.46285400954E+01  0.14584595754E+02  0.23591219366E+02  0.12821149538E+03  0.12509000000E+03 0.  0.
<mgrwt>
<rscale>  2 0.45289873E+03</rscale>
<asrwt>0</asrwt>
<pdfrwt beam="1">  1       21 0.41318858E-01 0.45289873E+03</pdfrwt>
<pdfrwt beam="2">  1       21 0.26839603E-01 0.45289873E+03</pdfrwt>
<totfact> 0.69068481E+04</totfact>
</mgrwt>
</event>
<event>
 7    0  0.4712189E-002  0.4446228E+03  0.7546771E-02  0.1029338E+00
         21   -1    0    0  502  501  0.00000000000E+00  0.00000000000E+00  0.13596052044E+04  0.13596052044E+04  0.00000000000E+00 0. -1.
         21   -1    0    0  501  502 -0.00000000000E+00 -0.00000000000E+00 -0.36350525029E+02  0.36350525029E+02  0.00000000000E+00 0. -1.
      99926    2    1    2    0    0  0.00000000000E+00  0.71054273576E-14  0.13232546794E+04  0.13959557294E+04  0.44462281998E+03 0.  0.
      99925    2    3    3    0    0  0.67266967728E+02  0.57455297898E+02  0.67380515164E+03  0.72867906015E+03  0.26293313620E+03 0.  0.
         25    1    4    4    0    0  0.45751629652E+02 -0.90594876681E+01  0.30079700421E+03  0.32909213266E+03  0.12509000000E+03 0.  0.
         25    1    4    4    0    0  0.21515338077E+02  0.66514785566E+02  0.37300814743E+03  0.39958692749E+03  0.12509000000E+03 0.  0.
         25    1    3    3    0    0 -0.67266967728E+02 -0.57455297898E+02  0.64944952774E+03  0.66727666930E+03  0.12509000000E+03 0.  0.
<mgrwt>
<rscale>  2 0.44462282E+03</rscale>
<asrwt>0</asrwt>
<pdfrwt beam="1">  1       21 0.19994191E+00 0.44462282E+03</pdfrwt>
<pdfrwt beam="2">  1       21 0.53456663E-02 0.44462282E+03</pdfrwt>
<totfact> 0.28684455E+04</totfact>
</mgrwt>
</event>
<event>
 7    0  0.4712189E-002  0.4174452E+03  0.7546771E-02  0.1037901E+00
         21   -1    0    0  502  501  0.00000000000E+00  0.00000000000E+00  0.60520120656E+02  0.60520120656E+02  0.00000000000E+00 0.  1.
         21   -1    0    0  501  502 -0.00000000000E+00 -0.00000000000E+00 -0.71984542667E+03  0.71984542667E+03  0.00000000000E+00 0.  1.
      99926    2    1    2    0    0  0.00000000000E+00  0.00000000000E+00 -0.65932530601E+03  0.78036554732E+03  0.41744523988E+03 0.  0.
      99925    2    3    3    0    0 -0.40263832542E+01  0.70235232182E+02 -0.46378247183E+03  0.53780894011E+03  0.26304956812E+03 0.  0.
         25    1    3    3    0    0  0.40263832542E+01 -0.70235232182E+02 -0.19554283418E+03  0.24255660721E+03  0.12509000000E+03 0.  0.
         25    1    4    4    0    0  0.30698159560E+02  0.51407746572E+02 -0.27408646880E+03  0.30717427283E+03  0.12509000000E+03 0.  0.
         25    1    4    4    0    0 -0.34724542814E+02  0.18827485610E+02 -0.18969600302E+03  0.23063466728E+03  0.12509000000E+03 0.  0.
<mgrwt>
<rscale>  2 0.41744524E+03</rscale>
<asrwt>0</asrwt>
<pdfrwt beam="1">  1       21 0.89000178E-02 0.41744524E+03</pdfrwt>
<pdfrwt beam="2">  1       21 0.10585962E+00 0.41744524E+03</pdfrwt>
<totfact> 0.66189204E+04</totfact>
</mgrwt>
</event>
<event>
 7    0  0.4712189E-002  0.4531954E+03  0.7546771E-02  0.1026773E+00
         21   -1    0    0  502  501  0.00000000000E+00  0.00000000000E+00  0.15306531880E+03  0.15306531880E+03  0.00000000000E+00 0. -1.
         21   -1    0    0  501  502 -0.00000000000E+00 -0.00000000000E+00 -0.33545492362E+03  0.33545492362E+03  0.00000000000E+00 0. -1.
      99926    2    1    2    0    0  0.00000000000E+00  0.35527136788E-14 -0.18238960482E+03  0.48852024241E+03  0.45319538755E+03 0.  0.
      99925    2    3    3    0    0  0.71108771928E+02  0.20105809327E+02 -0.24181074985E+02  0.27372231871E+03  0.26244710393E+03 0.  0.
         25    1    4    4    0    0  0.28480132932E+02 -0.41118522151E+01 -0.48443503714E+02  0.13719441116E+03  0.12509000000E+03 0.  0.
         25    1    4    4    0    0  0.42628638996E+02  0.24217661542E+02  0.24262428729E+02  0.13652790755E+03  0.12509000000E+03 0.  0.
         25    1    3    3    0    0 -0.71108771928E+02 -0.20105809327E+02 -0.15820852984E+03  0.21479792370E+03  0.12509000000E+03 0.  0.
<mgrwt>
<rscale>  2 0.45319539E+03</rscale>
<asrwt>0</asrwt>
<pdfrwt beam="1">  1       21 0.22509606E-01 0.45319539E+03</pdfrwt>
<pdfrwt beam="2">  1       21 0.49331606E-01 0.45319539E+03</pdfrwt>
<totfact> 0.67040222E+04</totfact>
</mgrwt>
</event>
<event>
 7    0  0.4712189E-002  0.4624643E+03  0.7546771E-02  0.1024069E+00
         21   -1    0    0  502  501  0.00000000000E+00  0.00000000000E+00  0.51435723134E+02  0.51435723134E+02  0.00000000000E+00 0.  1.
         21   -1    0    0  501  502 -0.00000000000E+00 -0.00000000000E+00 -0.10395169014E+04  0.10395169014E+04  0.00000000000E+00 0.  1.
      99926    2    1    2    0    0 -0.88817841970E-15  0.00000000000E+00 -0.98808117831E+03  0.10909526246E+04  0.46246428418E+03 0.  0.
      99925    2    3    3    0    0 -0.39671272586E+01  0.77475220927E+02 -0.40173216022E+03  0.48641079222E+03  0.26303722603E+03 0.  0.
         25    1    4    4    0    0 -0.14918365429E+02  0.15194571513E+02 -0.13616063452E+03  0.18612001269E+03  0.12509000000E+03 0.  0.
         25    1    4    4    0    0  0.10951238170E+02  0.62280649414E+02 -0.26557152569E+03  0.30029077953E+03  0.12509000000E+03 0.  0.
         25    1    3    3    0    0  0.39671272586E+01 -0.77475220927E+02 -0.58634901810E+03  0.60454183236E+03  0.12509000000E+03 0.  0.
<mgrwt>
<rscale>  2 0.46246428E+03</rscale>
<asrwt>0</asrwt>
<pdfrwt beam="1">  1       21 0.75640778E-02 0.46246428E+03</pdfrwt>
<pdfrwt beam="2">  1       21 0.15287012E+00 0.46246428E+03</pdfrwt>
<totfact> 0.33798001E+04</totfact>
</mgrwt>
</event>
<event>
 7    0  0.4712189E-002  0.4546153E+03  0.7546771E-02  0.1026355E+00
         21   -1    0    0  502  501  0.00000000000E+00  0.00000000000E+00  0.23024773926E+03  0.23024773926E+03  0.00000000000E+00 0.  1.
         21   -1    0    0  501  502 -0.00000000000E+00 -0.00000000000E+00 -0.22440510887E+03  0.22440510887E+03  0.00000000000E+00 0.  1.
      99926    2    1    2    0    0  0.00000000000E+00  0.00000000000E+00  0.58426303926E+01  0.45465284813E+03  0.45461530549E+03 0.  0.
      99925    2    3    3    0    0 -0.56491691119E+02  0.89084250811E+02 -0.36422270445E+02  0.28565241958E+03  0.26295134173E+03 0.  0.
         25    1    4    4    0    0 -0.33502904930E+02  0.83648688955E+02 -0.36166885491E+02  0.15835119042E+03  0.12509000000E+03 0.  0.
         25    1    3    3    0    0  0.56491691119E+02 -0.89084250811E+02  0.42264900838E+02  0.16900042855E+03  0.12509000000E+03 0.  0.
         25    1    4    4    0    0 -0.22988786189E+02  0.54355618563E+01 -0.25538495433E+00  0.12730122916E+03  0.12509000000E+03 0.  0.
<mgrwt>
<rscale>  2 0.45461531E+03</rscale>
<asrwt>0</asrwt>
<pdfrwt beam="1">  1       21 0.33859962E-01 0.45461531E+03</pdfrwt>
<pdfrwt beam="2">  1       21 0.33000751E-01 0.45461531E+03</pdfrwt>
<totfact> 0.68782113E+04</totfact>
</mgrwt>
</event>
<event>
 7    0  0.4712189E-002  0.4581140E+03  0.7546771E-02  0.1025330E+00
         21   -1    0    0  502  501  0.00000000000E+00  0.00000000000E+00  0.62349984940E+03  0.62349984940E+03  0.00000000000E+00 0. -1.
         21   -1    0    0  501  502 -0.00000000000E+00 -0.00000000000E+00 -0.84149358643E+02  0.84149358643E+02  0.00000000000E+00 0. -1.
      99926    2    1    2    0    0  0.00000000000E+00  0.00000000000E+00  0.53935049075E+03  0.70764920804E+03  0.45811401393E+03 0.  0.
      99925    2    3    3    0    0  0.46302886811E+02 -0.73280575798E+02  0.21920797918E+03  0.35317391139E+03  0.26299367566E+03 0.  0.
         25    1    4    4    0    0  0.45614806334E+02 -0.75166747396E+01  0.84139091699E+02  0.15768356226E+03  0.12509000000E+03 0.  0.
         25    1    4    4    0    0  0.68808047706E+00 -0.65763901059E+02  0.13506888748E+03  0.19549034913E+03  0.12509000000E+03 0.  0.
         25    1    3    3    0    0 -0.46302886811E+02  0.73280575798E+02  0.32014251157E+03  0.35447529665E+03  0.12509000000E+03 0.  0.
<mgrwt>
<rscale>  2 0.45811401E+03</rscale>
<asrwt>0</asrwt>
<pdfrwt beam="1">  1       21 0.91691152E-01 0.45811401E+03</pdfrwt>
<pdfrwt beam="2">  1       21 0.12374906E-01 0.45811401E+03</pdfrwt>
<totfact> 0.51222986E+04</totfact>
</mgrwt>
</event>
<event>
 7    0  0.4712189E-002  0.4625606E+03  0.7546771E-02  0.1024041E+00
         21   -1    0    0  502  501  0.00000000000E+00  0.00000000000E+00  0.17961361092E+03  0.17961361092E+03  0.00000000000E+00 0.  1.
         21   -1    0    0  501  502 -0.00000000000E+00 -0.00000000000E+00 -0.29780912102E+03  0.29780912102E+03  0.00000000000E+00 0.  1.
      99926    2    1    2    0    0  0.00000000000E+00 -0.71054273576E-14 -0.11819551010E+03  0.47742273194E+03  0.46256057589E+03 0.  0.
      99925    2    3    3    0    0  0.97963590209E+02  0.39883736210E+02 -0.13261432223E+03  0.31297520942E+03  0.26301966815E+03 0.  0.
         25    1    4    4    0    0  0.44190040608E+02  0.56570135845E+02 -0.48982260852E+02  0.15231450993E+03  0.12509000000E+03 0.  0.
         25    1    3    3    0    0 -0.97963590209E+02 -0.39883736210E+02  0.14418812128E+02  0.16444752252E+03  0.12509000000E+03 0.  0.
         25    1    4    4    0    0  0.53773549600E+02 -0.16686399634E+02 -0.83632061375E+02  0.16066069949E+03  0.12509000000E+03 0.  0.
<mgrwt>
<rscale>  2 0.46256058E+03</rscale>
<asrwt>0</asrwt>
<pdfrwt beam="1">  1       21 0.26413766E-01 0.46256058E+03</pdfrwt>
<pdfrwt beam="2">  1       21 0.43795459E-01 0.46256058E+03</pdfrwt>
<totfact> 0.63021722E+04</totfact>
</mgrwt>
</event>
<event>
 7    0  0.4712189E-002  0.4517394E+03  0.7546771E-02  0.1027205E+00
         21   -1    0    0  502  501  0.00000000000E+00  0.00000000000E+00  0.78017122338E+02  0.78017122338E+02  0.00000000000E+00 0.  1.
         21   -1    0    0  501  502 -0.00000000000E+00 -0.00000000000E+00 -0.65392218881E+03  0.65392218881E+03  0.00000000000E+00 0.  1.
      99926    2    1    2    0    0  0.00000000000E+00  0.00000000000E+00 -0.57590506647E+03  0.73193931115E+03  0.45173942668E+03 0.  0.
      99925    2    3    3    0    0  0.81729318132E+02  0.73382078408E+02 -0.36402626388E+03  0.46248663263E+03  0.26327581296E+03 0.  0.
         25    1    4    4    0    0  0.30442657823E+02  0.20196411260E+02 -0.23241338105E+03  0.26645475832E+03  0.12509000000E+03 0.  0.
         25    1    3    3    0    0 -0.81729318132E+02 -0.73382078408E+02 -0.21187880259E+03  0.26945267852E+03  0.12509000000E+03 0.  0.
         25    1    4    4    0    0  0.51286660309E+02  0.53185667148E+02 -0.13161288283E+03  0.19603187430E+03  0.12509000000E+03 0.  0.
<mgrwt>
<rscale>  2 0.45173943E+03</rscale>
<asrwt>0</asrwt>
<pdfrwt beam="1">  1       21 0.11473106E-01 0.45173943E+03</pdfrwt>
<pdfrwt beam="2">  1       21 0.96165026E-01 0.45173943E+03</pdfrwt>
<totfact> 0.52537012E+04</totfact>
</mgrwt>
</event>
<event>
 7    0  0.4712189E-002  0.4456152E+03  0.7546771E-02  0.1029038E+00
         21   -1    0    0  502  501  0.00000000000E+00  0.00000000000E+00  0.14453821413E+04  0.14453821413E+04  0.00000000000E+00 0. -1.
         21   -1    0    0  501  502 -0.00000000000E+00 -0.00000000000E+00 -0.34346084156E+02  0.34346084156E+02  0.00000000000E+00 0. -1.
      99926    2    1    2    0    0  0.00000000000E+00  0.00000000000E+00  0.14110360571E+04  0.14797282254E+04  0.44561515531E+03 0.  0.
      99925    2    3    3    0    0 -0.20642637993E+02  0.85458963593E+02  0.10808917295E+04  0.11158984051E+04  0.26300754127E+03 0.  0.
         25    1    3    3    0    0  0.20642637993E+02 -0.85458963593E+02  0.33014432762E+03  0.36382982027E+03  0.12509000000E+03 0.  0.
         25    1    4    4    0    0 -0.18619156999E+02  0.39739482954E+02  0.69860470311E+03  0.71107098015E+03  0.12509000000E+03 0.  0.
         25    1    4    4    0    0 -0.20234809945E+01  0.45719480639E+02  0.38228702637E+03  0.40482742498E+03  0.12509000000E+03 0.  0.
<mgrwt>
<rscale>  2 0.44561516E+03</rscale>
<asrwt>0</asrwt>
<pdfrwt beam="1">  1       21 0.21255616E+00 0.44561516E+03</pdfrwt>
<pdfrwt beam="2">  1       21 0.50508957E-02 0.44561516E+03</pdfrwt>
<totfact> 0.26134299E+04</totfact>
</mgrwt>
</event>
<event>
 7    0  0.4712189E-002  0.4638613E+03  0.7546771E-02  0.1023667E+00
         21   -1    0    0  502  501  0.00000000000E+00  0.00000000000E+00  0.22215164248E+03  0.22215164248E+03  0.00000000000E+00 0.  1.
         21   -1    0    0  501  502 -0.00000000000E+00 -0.00000000000E+00 -0.24214014701E+03  0.24214014701E+03  0.00000000000E+00 0.  1.
      99926    2    1    2    0    0  0.00000000000E+00  0.00000000000E+00 -0.19988504526E+02  0.46429178949E+03  0.46386132138E+03 0.  0.
      99925    2    3    3    0    0 -0.83519660407E+02 -0.74175332476E+02 -0.59870582772E+02  0.29190965037E+03  0.26296243777E+03 0.  0.
         25    1    3    3    0    0  0.83519660407E+02  0.74175332476E+02  0.39882078246E+02  0.17238213912E+03  0.12509000000E+03 0.  0.
         25    1    4    4    0    0 -0.48462701469E+02  0.37411369265E+01 -0.26494956219E+02  0.13679225250E+03  0.12509000000E+03 0.  0.
         25    1    4    4    0    0 -0.35056958938E+02 -0.77916469402E+02 -0.33375626554E+02  0.15511739787E+03  0.12509000000E+03 0.  0.
<mgrwt>
<rscale>  2 0.46386132E+03</rscale>
<asrwt>0</asrwt>
<pdfrwt beam="1">  1       21 0.32669360E-01 0.46386132E+03</pdfrwt>
<pdfrwt beam="2">  1       21 0.35608845E-01 0.46386132E+03</pdfrwt>
<totfact> 0.63276763E+04</totfact>
</mgrwt>
</event>
<event>
 7    0  0.4712189E-002  0.4558526E+03  0.7546771E-02  0.1025991E+00
         21   -1    0    0  502  501  0.00000000000E+00  0.00000000000E+00  0.25250258293E+03  0.25250258293E+03  0.00000000000E+00 0.  1.
         21   -1    0    0  501  502 -0.00000000000E+00 -0.00000000000E+00 -0.20574200497E+03  0.20574200497E+03  0.00000000000E+00 0.  1.
      99926    2    1    2    0    0  0.00000000000E+00  0.00000000000E+00  0.46760577958E+02  0.45824458790E+03  0.45585255368E+03 0.  0.
      99925    2    3    3    0    0 -0.38258832597E+02  0.26468703911E+02  0.13404504986E+03  0.29877541316E+03  0.26293410117E+03 0.  0.
         25    1    4    4    0    0 -0.77991576796E+01  0.97954945270E+01  0.22704160468E+02  0.12774883787E+03  0.12509000000E+03 0.  0.
         25    1    4    4    0    0 -0.30459674918E+02  0.16673209384E+02  0.11134088939E+03  0.17102657530E+03  0.12509000000E+03 0.  0.
         25    1    3    3    0    0  0.38258832597E+02 -0.26468703911E+02 -0.87284471899E+02  0.15946917474E+03  0.12509000000E+03 0.  0.
<mgrwt>
<rscale>  2 0.45585255E+03</rscale>
<asrwt>0</asrwt>
<pdfrwt beam="1">  1       21 0.37132733E-01 0.45585255E+03</pdfrwt>
<pdfrwt beam="2">  1       21 0.30256177E-01 0.45585255E+03</pdfrwt>
<totfact> 0.67846055E+04</totfact>
</mgrwt>
</event>
<event>
 7    0  0.4712189E-002  0.4168650E+03  0.7546771E-02  0.1038091E+00
         21   -1    0    0  502  501  0.00000000000E+00  0.00000000000E+00  0.20170540434E+04  0.20170540434E+04  0.00000000000E+00 0.  1.
         21   -1    0    0  501  502 -0.00000000000E+00 -0.00000000000E+00 -0.21538393257E+02  0.21538393257E+02  0.00000000000E+00 0.  1.
      99926    2    1    2    0    0  0.88817841970E-15  0.00000000000E+00  0.19955156501E+04  0.20385924367E+04  0.41686498153E+03 0.  0.
      99925    2    3    3    0    0 -0.55345317202E+01 -0.59002220874E+02  0.15036237839E+04  0.15275963415E+04  0.26297187281E+03 0.  0.
         25    1    4    4    0    0  0.19031693415E+02 -0.41241511826E+01  0.85218174206E+03  0.86153377390E+03  0.12509000000E+03 0.  0.
         25    1    4    4    0    0 -0.24566225135E+02 -0.54878069691E+02  0.65144204181E+03  0.66606256755E+03  0.12509000000E+03 0.  0.
         25    1    3    3    0    0  0.55345317202E+01  0.59002220874E+02  0.49189186627E+03  0.51099609520E+03  0.12509000000E+03 0.  0.
<mgrwt>
<rscale>  2 0.41686498E+03</rscale>
<asrwt>0</asrwt>
<pdfrwt beam="1">  1       21 0.29662546E+00 0.41686498E+03</pdfrwt>
<pdfrwt beam="2">  1       21 0.31674122E-02 0.41686498E+03</pdfrwt>
<totfact> 0.17807336E+04</totfact>
</mgrwt>
</event>
<event>
 7    0  0.4712189E-002  0.4622192E+03  0.7546771E-02  0.1024140E+00
         21   -1    0    0  502  501  0.00000000000E+00  0.00000000000E+00  0.40431854746E+03  0.40431854746E+03  0.00000000000E+00 0.  1.
         21   -1    0    0  501  502 -0.00000000000E+00 -0.00000000000E+00 -0.13210288968E+03  0.13210288968E+03  0.00000000000E+00 0.  1.
      99926    2    1    2    0    0  0.00000000000E+00  0.00000000000E+00  0.27221565777E+03  0.53642143714E+03  0.46221920545E+03 0.  0.
      99925    2    3    3    0    0 -0.60775563621E+02 -0.57601478828E+02  0.70958072265E+02  0.28509749614E+03  0.26312342121E+03 0.  0.
         25    1    4    4    0    0 -0.53016497457E+02 -0.64698521599E+02  0.34586492977E+02  0.15440330727E+03  0.12509000000E+03 0.  0.
         25    1    4    4    0    0 -0.77590661638E+01  0.70970427718E+01  0.36371579289E+02  0.13069418887E+03  0.12509000000E+03 0.  0.
         25    1    3    3    0    0  0.60775563621E+02  0.57601478828E+02  0.20125758551E+03  0.25132394100E+03  0.12509000000E+03 0.  0.
<mgrwt>
<rscale>  2 0.46221921E+03</rscale>
<asrwt>0</asrwt>
<pdfrwt beam="1">  1       21 0.59458610E-01 0.46221921E+03</pdfrwt>
<pdfrwt beam="2">  1       21 0.19426896E-01 0.46221921E+03</pdfrwt>
<totfact> 0.59307223E+04</totfact>
</mgrwt>
</event>
<event>
 7    0  0.4712189E-002  0.4525973E+03  0.7546771E-02  0.1026950E+00
         21   -1    0    0  502  501  0.00000000000E+00  0.00000000000E+00  0.10547408843E+04  0.10547408843E+04  0.00000000000E+00 0.  1.
         21   -1    0    0  501  502 -0.00000000000E+00 -0.00000000000E+00 -0.48553223949E+02  0.48553223949E+02  0.00000000000E+00 0.  1.
      99926    2    1    2    0    0  0.35527136788E-14  0.00000000000E+00  0.10061876603E+04  0.11032941082E+04  0.45259726186E+03 0.  0.
      99925    2    3    3    0    0 -0.31810639454E+02 -0.90570624492E+02  0.76960919161E+03  0.81898470851E+03  0.26310205275E+03 0.  0.
         25    1    4    4    0    0 -0.18676229700E+02 -0.86852822086E+02  0.39167665448E+03  0.42065463747E+03  0.12509000000E+03 0.  0.
         25    1    3    3    0    0  0.31810639454E+02  0.90570624492E+02  0.23657846869E+03  0.28430939969E+03  0.12509000000E+03 0.  0.
         25    1    4    4    0    0 -0.13134409754E+02 -0.37178024060E+01  0.37793253714E+03  0.39833007105E+03  0.12509000000E+03 0.  0.
<mgrwt>
<rscale>  2 0.45259726E+03</rscale>
<asrwt>0</asrwt>
<pdfrwt beam="1">  1       21 0.15510894E+00 0.45259726E+03</pdfrwt>
<pdfrwt beam="2">  1       21 0.71401807E-02 0.45259726E+03</pdfrwt>
<totfact> 0.36051134E+04</totfact>
</mgrwt>
</event>
<event>
 7    0  0.4712189E-002  0.4543614E+03  0.7546771E-02  0.1026429E+00
         21   -1    0    0  502  501  0.00000000000E+00  0.00000000000E+00  0.14635915088E+03  0.14635915088E+03  0.00000000000E+00 0.  1.
         21   -1    0    0  501  502 -0.00000000000E+00 -0.00000000000E+00 -0.35263306245E+03  0.35263306245E+03  0.00000000000E+00 0.  1.
      99926    2    1    2    0    0  0.00000000000E+00  0.00000000000E+00 -0.20627391157E+03  0.49899221333E+03  0.45436142263E+03 0.  0.
      99925    2    3    3    0    0  0.39107732662E+02  0.10288839986E+03 -0.15637988023E+03  0.32506015751E+03  0.26285737860E+03 0.  0.
         25    1    4    4    0    0  0.45246052127E+02  0.67456919794E+02 -0.11548199878E+03  0.18862990591E+03  0.12509000000E+03 0.  0.
         25    1    3    3    0    0 -0.39107732662E+02 -0.10288839986E+03 -0.49894031339E+02  0.17393205582E+03  0.12509000000E+03 0.  0.
         25    1    4    4    0    0 -0.61383194645E+01  0.35431480063E+02 -0.40897881449E+02  0.13643025160E+03  0.12509000000E+03 0.  0.
<mgrwt>
<rscale>  2 0.45436142E+03</rscale>
<asrwt>0</asrwt>
<pdfrwt beam="1">  1       21 0.21523405E-01 0.45436142E+03</pdfrwt>
<pdfrwt beam="2">  1       21 0.51857803E-01 0.45436142E+03</pdfrwt>
<totfact> 0.65673795E+04</totfact>
</mgrwt>
</event>
<event>
 7    0  0.4712189E-002  0.4583456E+03  0.7546771E-02  0.1025262E+00
         21   -1    0    0  502  501  0.00000000000E+00  0.00000000000E+00  0.16532194606E+03  0.16532194606E+03  0.00000000000E+00 0. -1.
         21   -1    0    0  501  502 -0.00000000000E+00 -0.00000000000E+00 -0.31768425494E+03  0.31768425494E+03  0.00000000000E+00 0. -1.
      99926    2    1    2    0    0  0.00000000000E+00  0.00000000000E+00 -0.15236230888E+03  0.48300620100E+03  0.45834563054E+03 0.  0.
      99925    2    3    3    0    0 -0.39398395949E+02  0.72830030163E+02 -0.18118061101E+03  0.33025002425E+03  0.26340504516E+03 0.  0.
         25    1    3    3    0    0  0.39398395949E+02 -0.72830030163E+02  0.28818302129E+02  0.15275617675E+03  0.12509000000E+03 0.  0.
         25    1    4    4    0    0 -0.96692047177E+01  0.64122425543E+02 -0.59283953010E+02  0.15286358023E+03  0.12509000000E+03 0.  0.
         25    1    4    4    0    0 -0.29729191231E+02  0.87076046204E+01 -0.12189665800E+03  0.17738644401E+03  0.12509000000E+03 0.  0.
<mgrwt>
<rscale>  2 0.45834563E+03</rscale>
<asrwt>0</asrwt>
<pdfrwt beam="1">  1       21 0.24312051E-01 0.45834563E+03</pdfrwt>
<pdfrwt beam="2">  1       21 0.46718273E-01 0.45834563E+03</pdfrwt>
<totfact> 0.64745340E+04</totfact>
</mgrwt>
</event>
<event>
 7    0  0.4712189E-002  0.4397343E+03  0.7546771E-02  0.1030828E+00
         21   -1    0    0  502  501  0.00000000000E+00  0.00000000000E+00  0.79687374926E+03  0.79687374926E+03  0.00000000000E+00 0.  1.
         21   -1    0    0  501  502 -0.00000000000E+00 -0.00000000000E+00 -0.60664005746E+02  0.60664005746E+02  0.00000000000E+00 0.  1.
      99926    2    1    2    0    0  0.00000000000E+00  0.35527136788E-14  0.73620974352E+03  0.85753775501E+03  0.43973425477E+03 0.  0.
      99925    2    3    3    0    0  0.95090318534E+02  0.23917193669E+02  0.46090309416E+03  0.53964554040E+03  0.26300465059E+03 0.  0.
         25    1    4    4    0    0  0.12402653866E+02  0.34434556970E+02  0.20975026883E+03  0.24694584004E+03  0.12509000000E+03 0.  0.
         25    1    4    4    0    0  0.82687664667E+02 -0.10517363300E+02  0.25115282533E+03  0.29269970036E+03  0.12509000000E+03 0.  0.
         25    1    3    3    0    0 -0.95090318534E+02 -0.23917193669E+02  0.27530664935E+03  0.31789221461E+03  0.12509000000E+03 0.  0.
<mgrwt>
<rscale>  2 0.43973425E+03</rscale>
<asrwt>0</asrwt>
<pdfrwt beam="1">  1       21 0.11718731E+00 0.43973425E+03</pdfrwt>
<pdfrwt beam="2">  1       21 0.89211778E-02 0.43973425E+03</pdfrwt>
<totfact> 0.50934262E+04</totfact>
</mgrwt>
</event>
<event>
 7    0  0.4712189E-002  0.4569654E+03  0.7546771E-02  0.1025665E+00
         21   -1    0    0  502  501  0.00000000000E+00  0.00000000000E+00  0.99567016189E+03  0.99567016189E+03  0.00000000000E+00 0. -1.
         21   -1    0    0  501  502 -0.00000000000E+00 -0.00000000000E+00 -0.52431358135E+02  0.52431358135E+02  0.00000000000E+00 0. -1.
      99926    2    1    2    0    0 -0.35527136788E-14 -0.35527136788E-14  0.94323880376E+03  0.10481015200E+04  0.45696537655E+03 0.  0.
      99925    2    3    3    0    0  0.19886523939E+02  0.30072505286E+02  0.34176439148E+03  0.43270018258E+03  0.26291960618E+03 0.  0.
         25    1    4    4    0    0  0.42621696446E+02  0.38453161293E+02  0.16664088563E+03  0.21612946927E+03  0.12509000000E+03 0.  0.
         25    1    4    4    0    0 -0.22735172507E+02 -0.83806560067E+01  0.17512350585E+03  0.21657071331E+03  0.12509000000E+03 0.  0.
         25    1    3    3    0    0 -0.19886523939E+02 -0.30072505286E+02  0.60147441227E+03  0.61540133744E+03  0.12509000000E+03 0.  0.
<mgrwt>
<rscale>  2 0.45696538E+03</rscale>
<asrwt>0</asrwt>
<pdfrwt beam="1">  1       21 0.14642207E+00 0.45696538E+03</pdfrwt>
<pdfrwt beam="2">  1       21 0.77104945E-02 0.45696538E+03</pdfrwt>
<totfact> 0.36779658E+04</totfact>
</mgrwt>
</event>
<event>
 7    0  0.4712189E-002  0.4514852E+03  0.7546771E-02  0.1027280E+00
         21   -1    0    0  502  501  0.00000000000E+00  0.00000000000E+00  0.11986632662E+03  0.11986632662E+03  0.00000000000E+00 0. -1.
         21   -1    0    0  501  502 -0.00000000000E+00 -0.00000000000E+00 -0.42513796470E+03  0.42513796470E+03  0.00000000000E+00 0. -1.
      99926    2    1    2    0    0  0.00000000000E+00  0.00000000000E+00 -0.30527163808E+03  0.54500429132E+03  0.45148522074E+03 0.  0.
      99925    2    3    3    0    0  0.37688312178E+02  0.94481847843E+02 -0.24302051087E+03  0.37217507103E+03  0.26288416907E+03 0.  0.
         25    1    4    4    0    0  0.11233008962E+02  0.32063119892E+02 -0.67225199903E+02  0.14601698446E+03  0.12509000000E+03 0.  0.
         25    1    3    3    0    0 -0.37688312178E+02 -0.94481847843E+02 -0.62251127217E+02  0.17282922029E+03  0.12509000000E+03 0.  0.
         25    1    4    4    0    0  0.26455303216E+02  0.62418727951E+02 -0.17579531096E+03  0.22615808658E+03  0.12509000000E+03 0.  0.
<mgrwt>
<rscale>  2 0.45148522E+03</rscale>
<asrwt>0</asrwt>
<pdfrwt beam="1">  1       21 0.17627401E-01 0.45148522E+03</pdfrwt>
<pdfrwt beam="2">  1       21 0.62520288E-01 0.45148522E+03</pdfrwt>
<totfact> 0.63958171E+04</totfact>
</mgrwt>
</event>
<event>
 7    0  0.4712189E-002  0.4489047E+03  0.7546771E-02  0.1028049E+00
         21   -1    0    0  502  501  0.00000000000E+00  0.00000000000E+00  0.25231645436E+03  0.25231645436E+03  0.00000000000E+00 0. -1.
         21   -1    0    0  501  502 -0.00000000000E+00 -0.00000000000E+00 -0.19966538810E+03  0.19966538810E+03  0.00000000000E+00 0. -1.
      99926    2    1    2    0    0  0.71054273576E-14 -0.14210854715E-13  0.52651066263E+02  0.45198184245E+03  0.44890472389E+03 0.  0.
      99925    2    3    3    0    0  0.32897161829E+02 -0.10223043650E+03  0.33033272112E+02  0.28595277467E+03  0.26295343099E+03 0.  0.
         25    1    3    3    0    0 -0.32897161829E+02  0.10223043650E+03  0.19617794150E+02  0.16602906779E+03  0.12509000000E+03 0.  0.
         25    1    4    4    0    0 -0.91088765402E+01 -0.21924146468E+02  0.32808757409E+02  0.13148217557E+03  0.12509000000E+03 0.  0.
         25    1    4    4    0    0  0.42006038369E+02 -0.80306290031E+02  0.22451470392E+00  0.15447059910E+03  0.12509000000E+03 0.  0.
<mgrwt>
<rscale>  2 0.44890472E+03</rscale>
<asrwt>0</asrwt>
<pdfrwt beam="1">  1       21 0.37105361E-01 0.44890472E+03</pdfrwt>
<pdfrwt beam="2">  1       21 0.29362557E-01 0.44890472E+03</pdfrwt>
<totfact> 0.72215888E+04</totfact>
</mgrwt>
</event>
<event>
 7    0  0.4712189E-002  0.4537690E+03  0.7546771E-02  0.1026604E+00
         21   -1    0    0  502  501  0.00000000000E+00  0.00000000000E+00  0.49139362738E+03  0.49139362738E+03  0.00000000000E+00 0. -1.
         21   -1    0    0  501  502 -0.00000000000E+00 -0.00000000000E+00 -0.10475630232E+03  0.10475630232E+03  0.00000000000E+00 0. -1.
      99926    2    1    2    0    0  0.00000000000E+00  0.00000000000E+00  0.38663732506E+03  0.59614992970E+03  0.45376901344E+03 0.  0.
      99925    2    3    3    0    0  0.78031994411E+02  0.76334078224E+02  0.27647844385E+03  0.39690542951E+03  0.26301655158E+03 0.  0.
         25    1    4    4    0    0  0.34006333974E+02  0.18103380579E+02  0.82115567949E+02  0.15451419915E+03  0.12509000000E+03 0.  0.
         25    1    3    3    0    0 -0.78031994411E+02 -0.76334078224E+02  0.11015888121E+03  0.19924450020E+03  0.12509000000E+03 0.  0.
         25    1    4    4    0    0  0.44025660437E+02  0.58230697646E+02  0.19436287590E+03  0.24239123036E+03  0.12509000000E+03 0.  0.
<mgrwt>
<rscale>  2 0.45376901E+03</rscale>
<asrwt>0</asrwt>
<pdfrwt beam="1">  1       21 0.72263767E-01 0.45376901E+03</pdfrwt>
<pdfrwt beam="2">  1       21 0.15405339E-01 0.45376901E+03</pdfrwt>
<totfact> 0.59492473E+04</totfact>
</mgrwt>
</event>
<event>
 7    0  0.4712189E-002  0.4058090E+03  0.7546771E-02  0.1041787E+00
         21   -1    0    0  502  501  0.00000000000E+00  0.00000000000E+00  0.19339621757E+03  0.19339621757E+03  0.00000000000E+00 0. -1.
         21   -1    0    0  501  502 -0.00000000000E+00 -0.00000000000E+00 -0.21288027787E+03  0.21288027787E+03  0.00000000000E+00 0. -1.
      99926    2    1    2    0    0  0.00000000000E+00  0.00000000000E+00 -0.19484060297E+02  0.40627649544E+03  0.40580902176E+03 0.  0.
      99925    2    3    3    0    0 -0.52851848867E+01 -0.40874124896E+02  0.24650424817E+02  0.26737369438E+03  0.26302551537E+03 0.  0.
         25    1    3    3    0    0  0.52851848867E+01  0.40874124896E+02 -0.44134485114E+02  0.13890280106E+03  0.12509000000E+03 0.  0.
         25    1    4    4    0    0 -0.25144601728E+02  0.12472400286E+02  0.29197586072E+01  0.12823355589E+03  0.12509000000E+03 0.  0.
         25    1    4    4    0    0  0.19859416841E+02 -0.53346525183E+02  0.21730666210E+02  0.13914013849E+03  0.12509000000E+03 0.  0.
<mgrwt>
<rscale>  2 0.40580902E+03</rscale>
<asrwt>0</asrwt>
<pdfrwt beam="1">  1       21 0.28440620E-01 0.40580902E+03</pdfrwt>
<pdfrwt beam="2">  1       21 0.31305923E-01 0.40580902E+03</pdfrwt>
<totfact> 0.10926288E+05</totfact>
</mgrwt>
</event>
<event>
 7    0  0.4712189E-002  0.4499881E+03  0.7546771E-02  0.1027726E+00
         21   -1    0    0  502  501  0.00000000000E+00  0.00000000000E+00  0.32910727617E+03  0.32910727617E+03  0.00000000000E+00 0. -1.
         21   -1    0    0  501  502 -0.00000000000E+00 -0.00000000000E+00 -0.15381709731E+03  0.15381709731E+03  0.00000000000E+00 0. -1.
      99926    2    1    2    0    0 -0.71054273576E-14 -0.17763568394E-14  0.17529017886E+03  0.48292437348E+03  0.44998811506E+03 0.  0.
      99925    2    3    3    0    0 -0.44537920208E+02  0.64471152918E+01  0.21667168354E+03  0.34369388594E+03  0.26297086749E+03 0.  0.
         25    1    4    4    0    0  0.99400307549E+01 -0.84348688727E+01  0.13253446074E+03  0.18270972226E+03  0.12509000000E+03 0.  0.
         25    1    3    3    0    0  0.44537920208E+02 -0.64471152918E+01 -0.41381504682E+02  0.13923048754E+03  0.12509000000E+03 0.  0.
         25    1    4    4    0    0 -0.54477950963E+02  0.14881984165E+02  0.84137222804E+02  0.16098416368E+03  0.12509000000E+03 0.  0.
<mgrwt>
<rscale>  2 0.44998812E+03</rscale>
<asrwt>0</asrwt>
<pdfrwt beam="1">  1       21 0.48398129E-01 0.44998812E+03</pdfrwt>
<pdfrwt beam="2">  1       21 0.22620161E-01 0.44998812E+03</pdfrwt>
<totfact> 0.69200369E+04</totfact>
</mgrwt>
</event>
<event>
 7    0  0.4712189E-002  0.4600001E+03  0.7546771E-02  0.1024781E+00
         21   -1    0    0  502  501  0.00000000000E+00  0.00000000000E+00  0.42938090601E+03  0.42938090601E+03  0.00000000000E+00 0.  1.
         21   -1    0    0  501  502 -0.00000000000E+00 -0.00000000000E+00 -0.12320067321E+03  0.12320067321E+03  0.00000000000E+00 0.  1.
      99926    2    1    2    0    0  0.00000000000E+00  0.14210854715E-13  0.30618023280E+03  0.55258157922E+03  0.46000007254E+03 0.  0.
      99925    2    3    3    0    0 -0.77830323772E+02  0.87678671363E+02  0.20518585747E+03  0.35360298575E+03  0.26303750059E+03 0.  0.
         25    1    4    4    0    0 -0.68159679412E+02  0.23511297613E+02  0.79748998663E+02  0.16494221382E+03  0.12509000000E+03 0.  0.
         25    1    4    4    0    0 -0.96706443600E+01  0.64167373750E+02  0.12543685881E+03  0.18866077193E+03  0.12509000000E+03 0.  0.
         25    1    3    3    0    0  0.77830323772E+02 -0.87678671363E+02  0.10099437533E+03  0.19897859347E+03  0.12509000000E+03 0.  0.
<mgrwt>
<rscale>  2 0.46000007E+03</rscale>
<asrwt>0</asrwt>
<pdfrwt beam="1">  1       21 0.63144250E-01 0.46000007E+03</pdfrwt>
<pdfrwt beam="2">  1       21 0.18117746E-01 0.46000007E+03</pdfrwt>
<totfact> 0.59314812E+04</totfact>
</mgrwt>
</event>
<event>
 7    0  0.4712189E-002  0.4574690E+03  0.7546771E-02  0.1025518E+00
         21   -1    0    0  502  501  0.00000000000E+00  0.00000000000E+00  0.29593968701E+02  0.29593968701E+02  0.00000000000E+00 0. -1.
         21   -1    0    0  501  502 -0.00000000000E+00 -0.00000000000E+00 -0.17679101021E+04  0.17679101021E+04  0.00000000000E+00 0. -1.
      99926    2    1    2    0    0  0.00000000000E+00  0.17763568394E-14 -0.17383161334E+04  0.17975040708E+04  0.45746902071E+03 0.  0.
      99925    2    3    3    0    0 -0.11182444126E+03  0.81767708944E+01 -0.12005626186E+04  0.12341232795E+04  0.26294125301E+03 0.  0.
         25    1    4    4    0    0 -0.88132095920E+02 -0.22963106236E+02 -0.63848369888E+03  0.65696538145E+03  0.12509000000E+03 0.  0.
         25    1    3    3    0    0  0.11182444126E+03 -0.81767708944E+01 -0.53775351474E+03  0.56338079126E+03  0.12509000000E+03 0.  0.
         25    1    4    4    0    0 -0.23692345341E+02  0.31139877130E+02 -0.56207891976E+03  0.57715789808E+03  0.12509000000E+03 0.  0.
<mgrwt>
<rscale>  2 0.45746902E+03</rscale>
<asrwt>0</asrwt>
<pdfrwt beam="1">  1       21 0.43520553E-02 0.45746902E+03</pdfrwt>
<pdfrwt beam="2">  1       21 0.25998671E+00 0.45746902E+03</pdfrwt>
<totfact> 0.16979652E+04</totfact>
</mgrwt>
</event>
<event>
 7    0  0.4712189E-002  0.4792598E+03  0.7546771E-02  0.1019339E+00
         21   -1    0    0  502  501  0.00000000000E+00  0.00000000000E+00  0.70227765484E+03  0.70227765484E+03  0.00000000000E+00 0. -1.
         21   -1    0    0  501  502 -0.00000000000E+00 -0.00000000000E+00 -0.81766093152E+02  0.81766093152E+02  0.00000000000E+00 0. -1.
      99926    2    1    2    0    0  0.00000000000E+00  0.00000000000E+00  0.62051156169E+03  0.78404374799E+03  0.47925984661E+03 0.  0.
      99925    2    3    3    0    0 -0.29412724567E+02 -0.10512168544E+03  0.25611165056E+03  0.38360588709E+03  0.26390267513E+03 0.  0.
         25    1    3    3    0    0  0.29412724567E+02  0.10512168544E+03  0.36439991112E+03  0.40043786090E+03  0.12509000000E+03 0.  0.
         25    1    4    4    0    0 -0.26241166200E+02 -0.99962455744E+01  0.10789871559E+03  0.16756540411E+03  0.12509000000E+03 0.  0.
         25    1    4    4    0    0 -0.31715583669E+01 -0.95125439865E+02  0.14821293497E+03  0.21604048298E+03  0.12509000000E+03 0.  0.
<mgrwt>
<rscale>  2 0.47925985E+03</rscale>
<asrwt>0</asrwt>
<pdfrwt beam="1">  1       21 0.10327612E+00 0.47925985E+03</pdfrwt>
<pdfrwt beam="2">  1       21 0.12024426E-01 0.47925985E+03</pdfrwt>
<totfact> 0.40305967E+04</totfact>
</mgrwt>
</event>
<event>
 7    0  0.4712189E-002  0.4582112E+03  0.7546771E-02  0.1025301E+00
         21   -1    0    0  502  501  0.00000000000E+00  0.00000000000E+00  0.15885765484E+03  0.15885765484E+03  0.00000000000E+00 0. -1.
         21   -1    0    0  501  502 -0.00000000000E+00 -0.00000000000E+00 -0.33041761695E+03  0.33041761695E+03  0.00000000000E+00 0. -1.
      99926    2    1    2    0    0  0.14210854715E-13  0.00000000000E+00 -0.17155996211E+03  0.48927527178E+03  0.45821116418E+03 0.  0.
      99925    2    3    3    0    0 -0.77748036985E+02 -0.86206562992E+02 -0.10832388952E+03  0.30727901431E+03  0.26307793301E+03 0.  0.
         25    1    4    4    0    0 -0.57932392224E+02 -0.14471737272E+02 -0.29365853969E+02  0.14168787784E+03  0.12509000000E+03 0.  0.
         25    1    4    4    0    0 -0.19815644761E+02 -0.71734825719E+02 -0.78958035547E+02  0.16559113646E+03  0.12509000000E+03 0.  0.
         25    1    3    3    0    0  0.77748036985E+02  0.86206562992E+02 -0.63236072595E+02  0.18199625748E+03  0.12509000000E+03 0.  0.
<mgrwt>
<rscale>  2 0.45821116E+03</rscale>
<asrwt>0</asrwt>
<pdfrwt beam="1">  1       21 0.23361420E-01 0.45821116E+03</pdfrwt>
<pdfrwt beam="2">  1       21 0.48590826E-01 0.45821116E+03</pdfrwt>
<totfact> 0.64374130E+04</totfact>
</mgrwt>
</event>
<event>
 7    0  0.4712189E-002  0.4475993E+03  0.7546771E-02  0.1028440E+00
         21   -1    0    0  502  501  0.00000000000E+00  0.00000000000E+00  0.50540389983E+03  0.50540389983E+03  0.00000000000E+00 0.  1.
         21   -1    0    0  501  502 -0.00000000000E+00 -0.00000000000E+00 -0.99101489168E+02  0.99101489168E+02  0.00000000000E+00 0.  1.
      99926    2    1    2    0    0  0.71054273576E-14  0.00000000000E+00  0.40630241066E+03  0.60450538900E+03  0.44759928107E+03 0.  0.
      99925    2    3    3    0    0  0.62383066480E+02  0.62467837061E+02  0.33691588264E+03  0.43641054666E+03  0.26296002663E+03 0.  0.
         25    1    3    3    0    0 -0.62383066480E+02 -0.62467837061E+02  0.69386528017E+02  0.16809484234E+03  0.12509000000E+03 0.  0.
         25    1    4    4    0    0  0.75611269582E+01  0.59844083756E+02  0.14427423594E+03  0.20025246130E+03  0.12509000000E+03 0.  0.
         25    1    4    4    0    0  0.54821939522E+02  0.26237533051E+01  0.19264164670E+03  0.23615808535E+03  0.12509000000E+03 0.  0.
<mgrwt>
<rscale>  2 0.44759928E+03</rscale>
<asrwt>0</asrwt>
<pdfrwt beam="1">  1       21 0.74324102E-01 0.44759928E+03</pdfrwt>
<pdfrwt beam="2">  1       21 0.14573749E-01 0.44759928E+03</pdfrwt>
<totfact> 0.61944742E+04</totfact>
</mgrwt>
</event>
<event>
 7    0  0.4712189E-002  0.4538880E+03  0.7546771E-02  0.1026569E+00
         21   -1    0    0  502  501  0.00000000000E+00  0.00000000000E+00  0.40006356825E+03  0.40006356825E+03  0.00000000000E+00 0. -1.
         21   -1    0    0  501  502 -0.00000000000E+00 -0.00000000000E+00 -0.12873848963E+03  0.12873848963E+03  0.00000000000E+00 0. -1.
      99926    2    1    2    0    0  0.00000000000E+00  0.00000000000E+00  0.27132507861E+03  0.52880205788E+03  0.45388800175E+03 0.  0.
      99925    2    3    3    0    0  0.28760837325E+02 -0.75792984067E+02  0.26006762140E+03  0.37931627046E+03  0.26395814657E+03 0.  0.
         25    1    4    4    0    0  0.24992570019E+02  0.11127711354E+01  0.10020986138E+03  0.16222019367E+03  0.12509000000E+03 0.  0.
         25    1    3    3    0    0 -0.28760837325E+02  0.75792984067E+02  0.11257457216E+02  0.14948578742E+03  0.12509000000E+03 0.  0.
         25    1    4    4    0    0  0.37682673061E+01 -0.76905755202E+02  0.15985776002E+03  0.21709607679E+03  0.12509000000E+03 0.  0.
<mgrwt>
<rscale>  2 0.45388800E+03</rscale>
<asrwt>0</asrwt>
<pdfrwt beam="1">  1       21 0.58832877E-01 0.45388800E+03</pdfrwt>
<pdfrwt beam="2">  1       21 0.18932131E-01 0.45388800E+03</pdfrwt>
<totfact> 0.63848599E+04</totfact>
</mgrwt>
</event>
<event>
 7    0  0.4712189E-002  0.4595787E+03  0.7546771E-02  0.1024903E+00
         21   -1    0    0  502  501  0.00000000000E+00  0.00000000000E+00  0.94795850485E+03  0.94795850485E+03  0.00000000000E+00 0. -1.
         21   -1    0    0  501  502 -0.00000000000E+00 -0.00000000000E+00 -0.55701954284E+02  0.55701954284E+02  0.00000000000E+00 0. -1.
      99926    2    1    2    0    0  0.00000000000E+00  0.00000000000E+00  0.89225655057E+03  0.10036604591E+04  0.45957868228E+03 0.  0.
      99925    2    3    3    0    0  0.30170557084E+02  0.98727662106E+02  0.43703556094E+03  0.52040993272E+03  0.26300000527E+03 0.  0.
         25    1    3    3    0    0 -0.30170557084E+02 -0.98727662106E+02  0.45522098963E+03  0.48325052642E+03  0.12509000000E+03 0.  0.
         25    1    4    4    0    0 -0.17708706429E+02  0.32112095888E+02  0.23884532730E+03  0.27210178879E+03  0.12509000000E+03 0.  0.
         25    1    4    4    0    0  0.47879263513E+02  0.66615566217E+02  0.19819023363E+03  0.24830814394E+03  0.12509000000E+03 0.  0.
<mgrwt>
<rscale>  2 0.45957868E+03</rscale>
<asrwt>0</asrwt>
<pdfrwt beam="1">  1       21 0.13940565E+00 0.45957868E+03</pdfrwt>
<pdfrwt beam="2">  1       21 0.81914645E-02 0.45957868E+03</pdfrwt>
<totfact> 0.37659985E+04</totfact>
</mgrwt>
</event>
<event>
 7    0  0.4712189E-002  0.4564148E+03  0.7546771E-02  0.1025826E+00
         21   -1    0    0  502  501  0.00000000000E+00  0.00000000000E+00  0.51407605484E+02  0.51407605484E+02  0.00000000000E+00 0. -1.
         21   -1    0    0  501  502 -0.00000000000E+00 -0.00000000000E+00 -0.10130527154E+04  0.10130527154E+04  0.00000000000E+00 0. -1.
      99926    2    1    2    0    0 -0.71054273576E-14  0.00000000000E+00 -0.96164510993E+03  0.10644603209E+04  0.45641478648E+03 0.  0.
      99925    2    3    3    0    0  0.48970944273E+02  0.88035205338E+02 -0.73144893959E+03  0.78377163980E+03  0.26292980309E+03 0.  0.
         25    1    3    3    0    0 -0.48970944273E+02 -0.88035205338E+02 -0.23019617034E+03  0.28068868111E+03  0.12509000000E+03 0.  0.
         25    1    4    4    0    0 -0.97481796641E+01  0.41526421910E+02 -0.41064462887E+03  0.43138844450E+03  0.12509000000E+03 0.  0.
         25    1    4    4    0    0  0.58719123937E+02  0.46508783428E+02 -0.32080431072E+03  0.35238319530E+03  0.12509000000E+03 0.  0.
<mgrwt>
<rscale>  2 0.45641479E+03</rscale>
<asrwt>0</asrwt>
<pdfrwt beam="1">  1       21 0.75599418E-02 0.45641479E+03</pdfrwt>
<pdfrwt beam="2">  1       21 0.14897834E+00 0.45641479E+03</pdfrwt>
<totfact> 0.36348247E+04</totfact>
</mgrwt>
</event>
<event>
 7    0  0.4712189E-002  0.4680428E+03  0.7546771E-02  0.1022474E+00
         21   -1    0    0  502  501  0.00000000000E+00  0.00000000000E+00  0.26693486887E+03  0.26693486887E+03  0.00000000000E+00 0. -1.
         21   -1    0    0  501  502 -0.00000000000E+00 -0.00000000000E+00 -0.20516624068E+03  0.20516624068E+03  0.00000000000E+00 0. -1.
      99926    2    1    2    0    0  0.00000000000E+00  0.48849813084E-14  0.61768628189E+02  0.47210110956E+03  0.46804283374E+03 0.  0.
      99925    2    3    3    0    0 -0.12501064560E+03  0.16186187256E+01  0.39594720842E+02  0.29386118219E+03  0.26297598947E+03 0.  0.
         25    1    3    3    0    0  0.12501064560E+03 -0.16186187256E+01  0.22173907347E+02  0.17823992737E+03  0.12509000000E+03 0.  0.
         25    1    4    4    0    0 -0.75768004185E+02  0.33746899960E+02  0.41163986341E+02  0.15563298361E+03  0.12509000000E+03 0.  0.
         25    1    4    4    0    0 -0.49242641418E+02 -0.32128281234E+02 -0.15692654992E+01  0.13822819858E+03  0.12509000000E+03 0.  0.
<mgrwt>
<rscale>  2 0.46804283E+03</rscale>
<asrwt>0</asrwt>
<pdfrwt beam="1">  1       21 0.39255128E-01 0.46804283E+03</pdfrwt>
<pdfrwt beam="2">  1       21 0.30171506E-01 0.46804283E+03</pdfrwt>
<totfact> 0.60739541E+04</totfact>
</mgrwt>
</event>
<event>
 7    0  0.4712189E-002  0.4554763E+03  0.7546771E-02  0.1026101E+00
         21   -1    0    0  502  501  0.00000000000E+00  0.00000000000E+00  0.10968687178E+03  0.10968687178E+03  0.00000000000E+00 0. -1.
         21   -1    0    0  501  502 -0.00000000000E+00 -0.00000000000E+00 -0.47284298117E+03  0.47284298117E+03  0.00000000000E+00 0. -1.
      99926    2    1    2    0    0  0.00000000000E+00 -0.14210854715E-13 -0.36315610939E+03  0.58252985295E+03  0.45547631090E+03 0.  0.
      99925    2    3    3    0    0 -0.63440301315E+02 -0.93391058163E+02 -0.21257100789E+03  0.35654325497E+03  0.26304010662E+03 0.  0.
         25    1    3    3    0    0  0.63440301315E+02  0.93391058163E+02 -0.15058510150E+03  0.22598659799E+03  0.12509000000E+03 0.  0.
         25    1    4    4    0    0 -0.19125934969E+02 -0.86624454306E+02 -0.11218843229E+03  0.19000881535E+03  0.12509000000E+03 0.  0.
         25    1    4    4    0    0 -0.44314366347E+02 -0.67666038567E+01 -0.10038257561E+03  0.16653443961E+03  0.12509000000E+03 0.  0.
<mgrwt>
<rscale>  2 0.45547631E+03</rscale>
<asrwt>0</asrwt>
<pdfrwt beam="1">  1       21 0.16130422E-01 0.45547631E+03</pdfrwt>
<pdfrwt beam="2">  1       21 0.69535734E-01 0.45547631E+03</pdfrwt>
<totfact> 0.59542181E+04</totfact>
</mgrwt>
</event>
<event>
 7    0  0.4712189E-002  0.4574399E+03  0.7546771E-02  0.1025526E+00
         21   -1    0    0  502  501  0.00000000000E+00  0.00000000000E+00  0.16724570902E+03  0.16724570902E+03  0.00000000000E+00 0. -1.
         21   -1    0    0  501  502 -0.00000000000E+00 -0.00000000000E+00 -0.31279016213E+03  0.31279016213E+03  0.00000000000E+00 0. -1.
      99926    2    1    2    0    0  0.00000000000E+00  0.00000000000E+00 -0.14554445311E+03  0.48003587115E+03  0.45743988650E+03 0.  0.
      99925    2    3    3    0    0 -0.70951811699E+02 -0.70630849484E+02 -0.30911794362E+02  0.28303071631E+03  0.26292198627E+03 0.  0.
         25    1    4    4    0    0 -0.50261463508E+02 -0.66968519102E+02 -0.40337736658E+02  0.15583850090E+03  0.12509000000E+03 0.  0.
         25    1    4    4    0    0 -0.20690348191E+02 -0.36623303821E+01  0.94259422960E+01  0.12719221541E+03  0.12509000000E+03 0.  0.
         25    1    3    3    0    0  0.70951811699E+02  0.70630849484E+02 -0.11463265874E+03  0.19700515484E+03  0.12509000000E+03 0.  0.
<mgrwt>
<rscale>  2 0.45743989E+03</rscale>
<asrwt>0</asrwt>
<pdfrwt beam="1">  1       21 0.24594957E-01 0.45743989E+03</pdfrwt>
<pdfrwt beam="2">  1       21 0.45998553E-01 0.45743989E+03</pdfrwt>
<totfact> 0.65421355E+04</totfact>
</mgrwt>
</event>
<event>
 7    0  0.4712189E-002  0.4538428E+03  0.7546771E-02  0.1026582E+00
         21   -1    0    0  502  501  0.00000000000E+00  0.00000000000E+00  0.43808098772E+03  0.43808098772E+03  0.00000000000E+00 0.  1.
         21   -1    0    0  501  502 -0.00000000000E+00 -0.00000000000E+00 -0.11754295274E+03  0.11754295274E+03  0.00000000000E+00 0.  1.
      99926    2    1    2    0    0  0.00000000000E+00 -0.19428902931E-14  0.32053803498E+03  0.55562394046E+03  0.45384284873E+03 0.  0.
      99925    2    3    3    0    0 -0.61418917337E+02 -0.44648538854E+00  0.31671809729E+03  0.41621596802E+03  0.26296938249E+03 0.  0.
         25    1    4    4    0    0 -0.25673770454E+02  0.37767527293E+02  0.17724477796E+03  0.22169516914E+03  0.12509000000E+03 0.  0.
         25    1    4    4    0    0 -0.35745146882E+02 -0.38214012682E+02  0.13947331933E+03  0.19452079888E+03  0.12509000000E+03 0.  0.
         25    1    3    3    0    0  0.61418917337E+02  0.44648538854E+00  0.38199376857E+01  0.13940797244E+03  0.12509000000E+03 0.  0.
<mgrwt>
<rscale>  2 0.45384285E+03</rscale>
<asrwt>0</asrwt>
<pdfrwt beam="1">  1       21 0.64423674E-01 0.45384285E+03</pdfrwt>
<pdfrwt beam="2">  1       21 0.17285729E-01 0.45384285E+03</pdfrwt>
<totfact> 0.62062569E+04</totfact>
</mgrwt>
</event>
<event>
 7    0  0.4712189E-002  0.4557902E+03  0.7546771E-02  0.1026009E+00
         21   -1    0    0  502  501  0.00000000000E+00  0.00000000000E+00  0.45846480711E+02  0.45846480711E+02  0.00000000000E+00 0. -1.
         21   -1    0    0  501  502 -0.00000000000E+00 -0.00000000000E+00 -0.11328279014E+04  0.11328279014E+04  0.00000000000E+00 0. -1.
      99926    2    1    2    0    0 -0.71054273576E-14  0.00000000000E+00 -0.10869814207E+04  0.11786743822E+04  0.45579018213E+03 0.  0.
      99925    2    3    3    0    0 -0.41941156272E+02 -0.95829278376E+02 -0.80009048320E+03  0.84868009535E+03  0.26300344438E+03 0.  0.
         25    1    3    3    0    0  0.41941156272E+02  0.95829278376E+02 -0.28689093753E+03  0.32999428680E+03  0.12509000000E+03 0.  0.
         25    1    4    4    0    0 -0.59394675134E+02 -0.47915485902E+02 -0.37360906885E+03  0.40131641587E+03  0.12509000000E+03 0.  0.
         25    1    4    4    0    0  0.17453518863E+02 -0.47913792473E+02 -0.42648141435E+03  0.44736367947E+03  0.12509000000E+03 0.  0.
<mgrwt>
<rscale>  2 0.45579018E+03</rscale>
<asrwt>0</asrwt>
<pdfrwt beam="1">  1       21 0.67421291E-02 0.45579018E+03</pdfrwt>
<pdfrwt beam="2">  1       21 0.16659235E+00 0.45579018E+03</pdfrwt>
<totfact> 0.32637868E+04</totfact>
</mgrwt>
</event>
<event>
 7    0  0.4712189E-002  0.4541628E+03  0.7546771E-02  0.1026488E+00
         21   -1    0    0  502  501  0.00000000000E+00  0.00000000000E+00  0.75495697214E+03  0.75495697214E+03  0.00000000000E+00 0. -1.
         21   -1    0    0  501  502 -0.00000000000E+00 -0.00000000000E+00 -0.68303175268E+02  0.68303175268E+02  0.00000000000E+00 0. -1.
      99926    2    1    2    0    0  0.00000000000E+00  0.00000000000E+00  0.68665379688E+03  0.82326014741E+03  0.45416278310E+03 0.  0.
      99925    2    3    3    0    0 -0.60598323820E+02 -0.94443042914E+02  0.44345250222E+03  0.52764887728E+03  0.26300488735E+03 0.  0.
         25    1    4    4    0    0 -0.10475582410E+02 -0.67375031513E+02  0.17166297529E+03  0.22308029470E+03  0.12509000000E+03 0.  0.
         25    1    4    4    0    0 -0.50122741410E+02 -0.27068011401E+02  0.27178952693E+03  0.30456858258E+03  0.12509000000E+03 0.  0.
         25    1    3    3    0    0  0.60598323820E+02  0.94443042914E+02  0.24320129466E+03  0.29561127013E+03  0.12509000000E+03 0.  0.
<mgrwt>
<rscale>  2 0.45416278E+03</rscale>
<asrwt>0</asrwt>
<pdfrwt beam="1">  1       21 0.11102308E+00 0.45416278E+03</pdfrwt>
<pdfrwt beam="2">  1       21 0.10044585E-01 0.45416278E+03</pdfrwt>
<totfact> 0.46968026E+04</totfact>
</mgrwt>
</event>
<event>
 7    0  0.4712189E-002  0.4592293E+03  0.7546771E-02  0.1025005E+00
         21   -1    0    0  502  501  0.00000000000E+00  0.00000000000E+00  0.14723202437E+04  0.14723202437E+04  0.00000000000E+00 0. -1.
         21   -1    0    0  501  502 -0.00000000000E+00 -0.00000000000E+00 -0.35809387879E+02  0.35809387879E+02  0.00000000000E+00 0. -1.
      99926    2    1    2    0    0  0.88817841970E-15  0.00000000000E+00  0.14365108558E+04  0.15081296316E+04  0.45922929650E+03 0.  0.
      99925    2    3    3    0    0  0.18387589481E+01 -0.72497519249E+02  0.59888223595E+03  0.65811287630E+03  0.26304629646E+03 0.  0.
         25    1    4    4    0    0  0.28614907107E+02 -0.26422806162E+02  0.36204550184E+03  0.38502133850E+03  0.12509000000E+03 0.  0.
         25    1    4    4    0    0 -0.26776148159E+02 -0.46074713087E+02  0.23683673411E+03  0.27309153781E+03  0.12509000000E+03 0.  0.
         25    1    3    3    0    0 -0.18387589481E+01  0.72497519249E+02  0.83762861989E+03  0.85001675530E+03  0.12509000000E+03 0.  0.
<mgrwt>
<rscale>  2 0.45922930E+03</rscale>
<asrwt>0</asrwt>
<pdfrwt beam="1">  1       21 0.21651764E+00 0.45922930E+03</pdfrwt>
<pdfrwt beam="2">  1       21 0.52660874E-02 0.45922930E+03</pdfrwt>
<totfact> 0.22821649E+04</totfact>
</mgrwt>
</event>
<event>
 7    0  0.4712189E-002  0.4524490E+03  0.7546771E-02  0.1026994E+00
         21   -1    0    0  502  501  0.00000000000E+00  0.00000000000E+00  0.43786516184E+03  0.43786516184E+03  0.00000000000E+00 0. -1.
         21   -1    0    0  501  502 -0.00000000000E+00 -0.00000000000E+00 -0.11687965168E+03  0.11687965168E+03  0.00000000000E+00 0. -1.
      99926    2    1    2    0    0  0.00000000000E+00  0.00000000000E+00  0.32098551016E+03  0.55474481352E+03  0.45244901414E+03 0.  0.
      99925    2    3    3    0    0 -0.91255501942E+02  0.56789619593E+02  0.16898327120E+03  0.33045746150E+03  0.26285768086E+03 0.  0.
         25    1    4    4    0    0 -0.14856748452E+02  0.53511678255E+02  0.71723347110E+02  0.15451850797E+03  0.12509000000E+03 0.  0.
         25    1    3    3    0    0  0.91255501942E+02 -0.56789619593E+02  0.15200223896E+03  0.22428735202E+03  0.12509000000E+03 0.  0.
         25    1    4    4    0    0 -0.76398753490E+02  0.32779413380E+01  0.97259924091E+02  0.17593895353E+03  0.12509000000E+03 0.  0.
<mgrwt>
<rscale>  2 0.45244901E+03</rscale>
<asrwt>0</asrwt>
<pdfrwt beam="1">  1       21 0.64391935E-01 0.45244901E+03</pdfrwt>
<pdfrwt beam="2">  1       21 0.17188184E-01 0.45244901E+03</pdfrwt>
<totfact> 0.62812077E+04</totfact>
</mgrwt>
</event>
<event>
 7    0  0.4712189E-002  0.4454773E+03  0.7546771E-02  0.1029079E+00
         21   -1    0    0  502  501  0.00000000000E+00  0.00000000000E+00  0.87047464690E+02  0.87047464690E+02  0.00000000000E+00 0. -1.
         21   -1    0    0  501  502 -0.00000000000E+00 -0.00000000000E+00 -0.56994779612E+03  0.56994779612E+03  0.00000000000E+00 0. -1.
      99926    2    1    2    0    0 -0.35527136788E-14  0.00000000000E+00 -0.48290033143E+03  0.65699526081E+03  0.44547732000E+03 0.  0.
      99925    2    3    3    0    0  0.23624358380E+02  0.70048870917E+02 -0.41439903106E+03  0.49635625285E+03  0.26301714427E+03 0.  0.
         25    1    3    3    0    0 -0.23624358380E+02 -0.70048870917E+02 -0.68501300376E+02  0.16063900796E+03  0.12509000000E+03 0.  0.
         25    1    4    4    0    0  0.42633014535E+02  0.26876739812E+02 -0.16243593171E+03  0.21112288621E+03  0.12509000000E+03 0.  0.
         25    1    4    4    0    0 -0.19008656154E+02  0.43172131105E+02 -0.25196309934E+03  0.28523336664E+03  0.12509000000E+03 0.  0.
<mgrwt>
<rscale>  2 0.44547732E+03</rscale>
<asrwt>0</asrwt>
<pdfrwt beam="1">  1       21 0.12801098E-01 0.44547732E+03</pdfrwt>
<pdfrwt beam="2">  1       21 0.83815850E-01 0.44547732E+03</pdfrwt>
<totfact> 0.59654592E+04</totfact>
</mgrwt>
</event>
<event>
 7    0  0.4712189E-002  0.4545186E+03  0.7546771E-02  0.1026383E+00
         21   -1    0    0  502  501  0.00000000000E+00  0.00000000000E+00  0.99728394844E+02  0.99728394844E+02  0.00000000000E+00 0.  1.
         21   -1    0    0  501  502 -0.00000000000E+00 -0.00000000000E+00 -0.51787447290E+03  0.51787447290E+03  0.00000000000E+00 0.  1.
      99926    2    1    2    0    0  0.99920072216E-15  0.00000000000E+00 -0.41814607806E+03  0.61760286775E+03  0.45451860210E+03 0.  0.
      99925    2    3    3    0    0 -0.63057087130E+00 -0.68745827486E+02 -0.14291750672E+03  0.30756309449E+03  0.26352088523E+03 0.  0.
         25    1    4    4    0    0  0.38570828612E+02 -0.33005638591E+02 -0.55279367464E+02  0.14587802290E+03  0.12509000000E+03 0.  0.
         25    1    3    3    0    0  0.63057087130E+00  0.68745827486E+02 -0.27522857134E+03  0.31003977325E+03  0.12509000000E+03 0.  0.
         25    1    4    4    0    0 -0.39201399483E+02 -0.35740188895E+02 -0.87638139254E+02  0.16168507159E+03  0.12509000000E+03 0.  0.
<mgrwt>
<rscale>  2 0.45451860E+03</rscale>
<asrwt>0</asrwt>
<pdfrwt beam="1">  1       21 0.14665940E-01 0.45451860E+03</pdfrwt>
<pdfrwt beam="2">  1       21 0.76158011E-01 0.45451860E+03</pdfrwt>
<totfact> 0.57827167E+04</totfact>
</mgrwt>
</event>
<event>
 7    0  0.4712189E-002  0.4491933E+03  0.7546771E-02  0.1027963E+00
         21   -1    0    0  502  501  0.00000000000E+00  0.00000000000E+00  0.22421952910E+03  0.22421952910E+03  0.00000000000E+00 0. -1.
         21   -1    0    0  501  502 -0.00000000000E+00 -0.00000000000E+00 -0.22497436277E+03  0.22497436277E+03  0.00000000000E+00 0. -1.
      99926    2    1    2    0    0  0.00000000000E+00  0.00000000000E+00 -0.75483366736E+00  0.44919389187E+03  0.44919325765E+03 0.  0.
      99925    2    3    3    0    0  0.81878712244E+02 -0.65183818909E+02 -0.26485815388E+02  0.28407985465E+03  0.26276760005E+03 0.  0.
         25    1    4    4    0    0  0.20139122586E+02 -0.42909235648E+02 -0.46036551921E+02  0.14146963977E+03  0.12509000000E+03 0.  0.
         25    1    3    3    0    0 -0.81878712244E+02  0.65183818909E+02  0.25730981721E+02  0.16511403722E+03  0.12509000000E+03 0.  0.
         25    1    4    4    0    0  0.61739589657E+02 -0.22274583261E+02  0.19550736533E+02  0.14261021488E+03  0.12509000000E+03 0.  0.
<mgrwt>
<rscale>  2 0.44919326E+03</rscale>
<asrwt>0</asrwt>
<pdfrwt beam="1">  1       21 0.32973460E-01 0.44919326E+03</pdfrwt>
<pdfrwt beam="2">  1       21 0.33084465E-01 0.44919326E+03</pdfrwt>
<totfact> 0.72263769E+04</totfact>
</mgrwt>
</event>
<event>
 7    0  0.4712189E-002  0.4437502E+03  0.7546771E-02  0.1029602E+00
         21   -1    0    0  502  501  0.00000000000E+00  0.00000000000E+00  0.99662984724E+03  0.99662984724E+03  0.00000000000E+00 0.  1.
         21   -1    0    0  501  502 -0.00000000000E+00 -0.00000000000E+00 -0.49395028197E+02  0.49395028197E+02  0.00000000000E+00 0.  1.
      99926    2    1    2    0    0  0.00000000000E+00  0.00000000000E+00  0.94723481904E+03  0.10460248754E+04  0.44375019732E+03 0.  0.
      99925    2    3    3    0    0 -0.85170424736E+02 -0.29245552315E+02  0.71682484407E+03  0.76881454330E+03  0.26292326128E+03 0.  0.
         25    1    4    4    0    0 -0.41456103863E+02 -0.25448885229E+02  0.25271991342E+03  0.28614876734E+03  0.12509000000E+03 0.  0.
         25    1    4    4    0    0 -0.43714320873E+02 -0.37966670860E+01  0.46410493065E+03  0.48266577596E+03  0.12509000000E+03 0.  0.
         25    1    3    3    0    0  0.85170424736E+02  0.29245552315E+02  0.23040997497E+03  0.27721033214E+03  0.12509000000E+03 0.  0.
<mgrwt>
<rscale>  2 0.44375020E+03</rscale>
<asrwt>0</asrwt>
<pdfrwt beam="1">  1       21 0.14656320E+00 0.44375020E+03</pdfrwt>
<pdfrwt beam="2">  1       21 0.72639754E-02 0.44375020E+03</pdfrwt>
<totfact> 0.40898606E+04</totfact>
</mgrwt>
</event>
<event>
 7    0  0.4712189E-002  0.4578494E+03  0.7546771E-02  0.1025407E+00
         21   -1    0    0  502  501  0.00000000000E+00  0.00000000000E+00  0.12824640105E+03  0.12824640105E+03  0.00000000000E+00 0. -1.
         21   -1    0    0  501  502 -0.00000000000E+00 -0.00000000000E+00 -0.40863921632E+03  0.40863921632E+03  0.00000000000E+00 0. -1.
      99926    2    1    2    0    0  0.00000000000E+00  0.00000000000E+00 -0.28039281527E+03  0.53688561737E+03  0.45784935873E+03 0.  0.
      99925    2    3    3    0    0  0.41913350157E+02  0.10653876261E+03 -0.19616123750E+03  0.34754543766E+03  0.26306151995E+03 0.  0.
         25    1    4    4    0    0  0.22538661629E+02  0.72843744952E+02 -0.59139158201E+02  0.15798465299E+03  0.12509000000E+03 0.  0.
         25    1    4    4    0    0  0.19374688528E+02  0.33695017662E+02 -0.13702207930E+03  0.18956078467E+03  0.12509000000E+03 0.  0.
         25    1    3    3    0    0 -0.41913350157E+02 -0.10653876261E+03 -0.84231577767E+02  0.18934017971E+03  0.12509000000E+03 0.  0.
<mgrwt>
<rscale>  2 0.45784936E+03</rscale>
<asrwt>0</asrwt>
<pdfrwt beam="1">  1       21 0.18859765E-01 0.45784936E+03</pdfrwt>
<pdfrwt beam="2">  1       21 0.60094002E-01 0.45784936E+03</pdfrwt>
<totfact> 0.61345722E+04</totfact>
</mgrwt>
</event>
<event>
 7    0  0.4712189E-002  0.4549081E+03  0.7546771E-02  0.1026268E+00
         21   -1    0    0  502  501  0.00000000000E+00  0.00000000000E+00  0.13108849044E+04  0.13108849044E+04  0.00000000000E+00 0.  1.
         21   -1    0    0  501  502 -0.00000000000E+00 -0.00000000000E+00 -0.39465976044E+02  0.39465976044E+02  0.00000000000E+00 0.  1.
      99926    2    1    2    0    0  0.00000000000E+00  0.00000000000E+00  0.12714189284E+04  0.13503508805E+04  0.45490813241E+03 0.  0.
      99925    2    3    3    0    0 -0.11232396012E+03  0.11571389707E+02  0.81710522559E+03  0.86579023646E+03  0.26302322100E+03 0.  0.
         25    1    4    4    0    0 -0.79121701196E+02  0.15994007597E+02  0.53600692170E+03  0.55629756434E+03  0.12509000000E+03 0.  0.
         25    1    3    3    0    0  0.11232396012E+03 -0.11571389707E+02  0.45431370278E+03  0.48456064400E+03  0.12509000000E+03 0.  0.
         25    1    4    4    0    0 -0.33202258924E+02 -0.44226178901E+01  0.28109830388E+03  0.30949267212E+03  0.12509000000E+03 0.  0.
<mgrwt>
<rscale>  2 0.45490813E+03</rscale>
<asrwt>0</asrwt>
<pdfrwt beam="1">  1       21 0.19277716E+00 0.45490813E+03</pdfrwt>
<pdfrwt beam="2">  1       21 0.58038209E-02 0.45490813E+03</pdfrwt>
<totfact> 0.27705391E+04</totfact>
</mgrwt>
</event>
<event>
 7    0  0.4712189E-002  0.4595301E+03  0.7546771E-02  0.1024918E+00
         21   -1    0    0  502  501  0.00000000000E+00  0.00000000000E+00  0.17859376553E+03  0.17859376553E+03  0.00000000000E+00 0. -1.
         21   -1    0    0  501  502 -0.00000000000E+00 -0.00000000000E+00 -0.29559807469E+03  0.29559807469E+03  0.00000000000E+00 0. -1.
      99926    2    1    2    0    0  0.00000000000E+00  0.00000000000E+00 -0.11700430916E+03  0.47419184021E+03  0.45953007841E+03 0.  0.
      99925    2    3    3    0    0  0.47157434392E+02 -0.84986692329E+02 -0.55294361935E+01  0.28048918950E+03  0.26305332020E+03 0.  0.
         25    1    4    4    0    0 -0.13778802300E+02 -0.30228165141E+02 -0.16913119425E+02  0.13052646885E+03  0.12509000000E+03 0.  0.
         25    1    3    3    0    0 -0.47157434392E+02  0.84986692329E+02 -0.11147487296E+03  0.19370265071E+03  0.12509000000E+03 0.  0.
         25    1    4    4    0    0  0.60936236692E+02 -0.54758527188E+02  0.11383683232E+02  0.14996272065E+03  0.12509000000E+03 0.  0.
<mgrwt>
<rscale>  2 0.45953008E+03</rscale>
<asrwt>0</asrwt>
<pdfrwt beam="1">  1       21 0.26263789E-01 0.45953008E+03</pdfrwt>
<pdfrwt beam="2">  1       21 0.43470304E-01 0.45953008E+03</pdfrwt>
<totfact> 0.64766136E+04</totfact>
</mgrwt>
</event>
<event>
 7    0  0.4712189E-002  0.4707015E+03  0.7546771E-02  0.1021722E+00
         21   -1    0    0  502  501  0.00000000000E+00  0.00000000000E+00  0.20928048542E+03  0.20928048542E+03  0.00000000000E+00 0. -1.
         21   -1    0    0  501  502 -0.00000000000E+00 -0.00000000000E+00 -0.26466860646E+03  0.26466860646E+03  0.00000000000E+00 0. -1.
      99926    2    1    2    0    0  0.00000000000E+00  0.71054273576E-14 -0.55388121036E+02  0.47394909188E+03  0.47070149537E+03 0.  0.
      99925    2    3    3    0    0  0.90107306175E+02  0.46326715811E+02 -0.11318476651E+03  0.30291268770E+03  0.26206833799E+03 0.  0.
         25    1    4    4    0    0  0.31856836986E+02  0.38387061578E+02 -0.19827079082E+02  0.13612143742E+03  0.12509000000E+03 0.  0.
         25    1    3    3    0    0 -0.90107306175E+02 -0.46326715811E+02  0.57796645478E+02  0.17103640417E+03  0.12509000000E+03 0.  0.
         25    1    4    4    0    0  0.58250469190E+02  0.79396542338E+01 -0.93357687432E+02  0.16679125029E+03  0.12509000000E+03 0.  0.
<mgrwt>
<rscale>  2 0.47070150E+03</rscale>
<asrwt>0</asrwt>
<pdfrwt beam="1">  1       21 0.30776542E-01 0.47070150E+03</pdfrwt>
<pdfrwt beam="2">  1       21 0.38921854E-01 0.47070150E+03</pdfrwt>
<totfact> 0.59383941E+04</totfact>
</mgrwt>
</event>
<event>
 7    0  0.4712189E-002  0.4490571E+03  0.7546771E-02  0.1028004E+00
         21   -1    0    0  502  501  0.00000000000E+00  0.00000000000E+00  0.17699559400E+03  0.17699559400E+03  0.00000000000E+00 0.  1.
         21   -1    0    0  501  502 -0.00000000000E+00 -0.00000000000E+00 -0.28482669453E+03  0.28482669453E+03  0.00000000000E+00 0.  1.
      99926    2    1    2    0    0  0.00000000000E+00  0.00000000000E+00 -0.10783110054E+03  0.46182228853E+03  0.44905710098E+03 0.  0.
      99925    2    3    3    0    0  0.57623108040E+02  0.39728941247E+02 -0.15210728239E+03  0.31179995775E+03  0.26302809156E+03 0.  0.
         25    1    4    4    0    0  0.65094172280E+02  0.38981432224E+02 -0.91906098956E+02  0.17277454225E+03  0.12509000000E+03 0.  0.
         25    1    4    4    0    0 -0.74710642393E+01  0.74750902249E+00 -0.60201183431E+02  0.13902541551E+03  0.12509000000E+03 0.  0.
         25    1    3    3    0    0 -0.57623108040E+02 -0.39728941247E+02  0.44276181851E+02  0.15002233078E+03  0.12509000000E+03 0.  0.
<mgrwt>
<rscale>  2 0.44905710E+03</rscale>
<asrwt>0</asrwt>
<pdfrwt beam="1">  1       21 0.26028764E-01 0.44905710E+03</pdfrwt>
<pdfrwt beam="2">  1       21 0.41886278E-01 0.44905710E+03</pdfrwt>
<totfact> 0.71353736E+04</totfact>
</mgrwt>
</event>
<event>
 7    0  0.4712189E-002  0.4590486E+03  0.7546771E-02  0.1025058E+00
         21   -1    0    0  502  501  0.00000000000E+00  0.00000000000E+00  0.24639332086E+03  0.24639332086E+03  0.00000000000E+00 0.  1.
         21   -1    0    0  501  502 -0.00000000000E+00 -0.00000000000E+00 -0.21381018170E+03  0.21381018170E+03  0.00000000000E+00 0.  1.
      99926    2    1    2    0    0  0.00000000000E+00  0.88817841970E-15  0.32583139160E+02  0.46020350255E+03  0.45904858436E+03 0.  0.
      99925    2    3    3    0    0 -0.25930302782E+02  0.69009828820E+01 -0.93664873412E+02  0.28046460041E+03  0.26299672888E+03 0.  0.
         25    1    4    4    0    0  0.97608604243E+00 -0.16904698228E+01 -0.86359856068E+02  0.15201757554E+03  0.12509000000E+03 0.  0.
         25    1    3    3    0    0  0.25930302782E+02 -0.69009828820E+01  0.12624801257E+03  0.17973890215E+03  0.12509000000E+03 0.  0.
         25    1    4    4    0    0 -0.26906388824E+02  0.85914527047E+01 -0.73050173437E+01  0.12844702487E+03  0.12509000000E+03 0.  0.
<mgrwt>
<rscale>  2 0.45904858E+03</rscale>
<asrwt>0</asrwt>
<pdfrwt beam="1">  1       21 0.36234312E-01 0.45904858E+03</pdfrwt>
<pdfrwt beam="2">  1       21 0.31442674E-01 0.45904858E+03</pdfrwt>
<totfact> 0.66008145E+04</totfact>
</mgrwt>
</event>
<event>
 7    0  0.4712189E-002  0.4217337E+03  0.7546771E-02  0.1036504E+00
         21   -1    0    0  502  501  0.00000000000E+00  0.00000000000E+00  0.10697401345E+03  0.10697401345E+03  0.00000000000E+00 0.  1.
         21   -1    0    0  501  502 -0.00000000000E+00 -0.00000000000E+00 -0.41566015192E+03  0.41566015192E+03  0.00000000000E+00 0.  1.
      99926    2    1    2    0    0 -0.14210854715E-13 -0.71054273576E-14 -0.30868613846E+03  0.52263416537E+03  0.42173372966E+03 0.  0.
      99925    2    3    3    0    0 -0.65217303213E+02 -0.40381834749E+02 -0.18337640211E+03  0.32967295854E+03  0.26300829935E+03 0.  0.
         25    1    4    4    0    0 -0.37445999247E+02 -0.59736206522E+02 -0.83893917840E+02  0.16630187846E+03  0.12509000000E+03 0.  0.
         25    1    4    4    0    0 -0.27771303965E+02  0.19354371773E+02 -0.99482484267E+02  0.16337108008E+03  0.12509000000E+03 0.  0.
         25    1    3    3    0    0  0.65217303213E+02  0.40381834749E+02 -0.12530973636E+03  0.19296120683E+03  0.12509000000E+03 0.  0.
<mgrwt>
<rscale>  2 0.42173373E+03</rscale>
<asrwt>0</asrwt>
<pdfrwt beam="1">  1       21 0.15731472E-01 0.42173373E+03</pdfrwt>
<pdfrwt beam="2">  1       21 0.61126494E-01 0.42173373E+03</pdfrwt>
<totfact> 0.83664943E+04</totfact>
</mgrwt>
</event>
<event>
 7    0  0.4712189E-002  0.4526784E+03  0.7546771E-02  0.1026926E+00
         21   -1    0    0  502  501  0.00000000000E+00  0.00000000000E+00  0.35196232358E+03  0.35196232358E+03  0.00000000000E+00 0.  1.
         21   -1    0    0  501  502 -0.00000000000E+00 -0.00000000000E+00 -0.14555373181E+03  0.14555373181E+03  0.00000000000E+00 0.  1.
      99926    2    1    2    0    0  0.71054273576E-14  0.00000000000E+00  0.20640859177E+03  0.49751605539E+03  0.45267838319E+03 0.  0.
      99925    2    3    3    0    0  0.35719947924E+02 -0.78229370163E+02  0.53273018439E+02  0.28189193578E+03  0.26311461367E+03 0.  0.
         25    1    3    3    0    0 -0.35719947924E+02  0.78229370163E+02  0.15313557334E+03  0.21562411961E+03  0.12509000000E+03 0.  0.
         25    1    4    4    0    0 -0.13388639900E+02 -0.24836701838E+02  0.13198206014E+01  0.12823949260E+03  0.12509000000E+03 0.  0.
         25    1    4    4    0    0  0.49108587824E+02 -0.53392668325E+02  0.51953197837E+02  0.15365244318E+03  0.12509000000E+03 0.  0.
<mgrwt>
<rscale>  2 0.45267838E+03</rscale>
<asrwt>0</asrwt>
<pdfrwt beam="1">  1       21 0.51759165E-01 0.45267838E+03</pdfrwt>
<pdfrwt beam="2">  1       21 0.21404961E-01 0.45267838E+03</pdfrwt>
<totfact> 0.66665684E+04</totfact>
</mgrwt>
</event>
<event>
 7    0  0.4712189E-002  0.4583074E+03  0.7546771E-02  0.1025273E+00
         21   -1    0    0  502  501  0.00000000000E+00  0.00000000000E+00  0.87716003242E+02  0.87716003242E+02  0.00000000000E+00 0. -1.
         21   -1    0    0  501  502 -0.00000000000E+00 -0.00000000000E+00 -0.59865272903E+03  0.59865272903E+03  0.00000000000E+00 0. -1.
      99926    2    1    2    0    0 -0.44408920985E-15  0.00000000000E+00 -0.51093672578E+03  0.68636873227E+03  0.45830742835E+03 0.  0.
      99925    2    3    3    0    0  0.32217201139E+01 -0.88871464835E+02 -0.43319210726E+03  0.51432149878E+03  0.26260747432E+03 0.  0.
         25    1    3    3    0    0 -0.32217201139E+01  0.88871464835E+02 -0.77744618525E+02  0.17204723349E+03  0.12509000000E+03 0.  0.
         25    1    4    4    0    0 -0.19348681146E+01 -0.36494613348E+02 -0.14013159443E+03  0.19136345622E+03  0.12509000000E+03 0.  0.
         25    1    4    4    0    0  0.51565882285E+01 -0.52376851487E+02 -0.29306051283E+03  0.32295804256E+03  0.12509000000E+03 0.  0.
<mgrwt>
<rscale>  2 0.45830743E+03</rscale>
<asrwt>0</asrwt>
<pdfrwt beam="1">  1       21 0.12899412E-01 0.45830743E+03</pdfrwt>
<pdfrwt beam="2">  1       21 0.88037168E-01 0.45830743E+03</pdfrwt>
<totfact> 0.52274961E+04</totfact>
</mgrwt>
</event>
<event>
 7    0  0.4712189E-002  0.4631333E+03  0.7546771E-02  0.1023876E+00
         21   -1    0    0  502  501  0.00000000000E+00  0.00000000000E+00  0.40332727433E+03  0.40332727433E+03  0.00000000000E+00 0. -1.
         21   -1    0    0  501  502 -0.00000000000E+00 -0.00000000000E+00 -0.13295184721E+03  0.13295184721E+03  0.00000000000E+00 0. -1.
      99926    2    1    2    0    0 -0.14210854715E-13  0.35527136788E-14  0.27037542712E+03  0.53627912154E+03  0.46313326874E+03 0.  0.
      99925    2    3    3    0    0 -0.10779347073E+03 -0.20889599905E+02  0.11085497524E+03  0.30573608785E+03  0.26292569704E+03 0.  0.
         25    1    4    4    0    0 -0.93640210213E+02  0.75247933439E+00  0.73290706963E+02  0.17259226814E+03  0.12509000000E+03 0.  0.
         25    1    3    3    0    0  0.10779347073E+03  0.20889599905E+02  0.15952045187E+03  0.23054303369E+03  0.12509000000E+03 0.  0.
         25    1    4    4    0    0 -0.14153260515E+02 -0.21642079240E+02  0.37564268281E+02  0.13314381972E+03  0.12509000000E+03 0.  0.
<mgrwt>
<rscale>  2 0.46313327E+03</rscale>
<asrwt>0</asrwt>
<pdfrwt beam="1">  1       21 0.59312834E-01 0.46313327E+03</pdfrwt>
<pdfrwt beam="2">  1       21 0.19551742E-01 0.46313327E+03</pdfrwt>
<totfact> 0.58894443E+04</totfact>
</mgrwt>
</event>
<event>
 7    0  0.4712189E-002  0.4651054E+03  0.7546771E-02  0.1023311E+00
         21   -1    0    0  502  501  0.00000000000E+00  0.00000000000E+00  0.20301084368E+03  0.20301084368E+03  0.00000000000E+00 0. -1.
         21   -1    0    0  501  502 -0.00000000000E+00 -0.00000000000E+00 -0.26639348396E+03  0.26639348396E+03  0.00000000000E+00 0. -1.
      99926    2    1    2    0    0  0.17763568394E-14 -0.14210854715E-13 -0.63382640273E+02  0.46940432764E+03  0.46510543291E+03 0.  0.
      99925    2    3    3    0    0 -0.12241811229E+02 -0.12196469666E+03 -0.35551294635E+02  0.29207034592E+03  0.26270885642E+03 0.  0.
         25    1    4    4    0    0  0.58787486441E+01 -0.21474772060E+02 -0.16059118021E+01  0.12706617399E+03  0.12509000000E+03 0.  0.
         25    1    3    3    0    0  0.12241811229E+02  0.12196469666E+03 -0.27831345638E+02  0.17733398172E+03  0.12509000000E+03 0.  0.
         25    1    4    4    0    0 -0.18120559874E+02 -0.10048992460E+03 -0.33945382833E+02  0.16500417192E+03  0.12509000000E+03 0.  0.
<mgrwt>
<rscale>  2 0.46510543E+03</rscale>
<asrwt>0</asrwt>
<pdfrwt beam="1">  1       21 0.29854536E-01 0.46510543E+03</pdfrwt>
<pdfrwt beam="2">  1       21 0.39175512E-01 0.46510543E+03</pdfrwt>
<totfact> 0.62324422E+04</totfact>
</mgrwt>
</event>
<event>
 7    0  0.4712189E-002  0.4525322E+03  0.7546771E-02  0.1026970E+00
         21   -1    0    0  502  501  0.00000000000E+00  0.00000000000E+00  0.39916519021E+03  0.39916519021E+03  0.00000000000E+00 0. -1.
         21   -1    0    0  501  502 -0.00000000000E+00 -0.00000000000E+00 -0.12825856548E+03  0.12825856548E+03  0.00000000000E+00 0. -1.
      99926    2    1    2    0    0  0.00000000000E+00 -0.71054273576E-14  0.27090662473E+03  0.52742375568E+03  0.45253222950E+03 0.  0.
      99925    2    3    3    0    0  0.50278833585E+02 -0.47157383495E+02  0.70424453479E+02  0.28126854242E+03  0.26343995404E+03 0.  0.
         25    1    3    3    0    0 -0.50278833585E+02  0.47157383495E+02  0.20048217125E+03  0.24615521326E+03  0.12509000000E+03 0.  0.
         25    1    4    4    0    0  0.30734114847E+02 -0.62377395070E+02  0.52748297535E+02  0.15253005023E+03  0.12509000000E+03 0.  0.
         25    1    4    4    0    0  0.19544718738E+02  0.15220011575E+02  0.17676155944E+02  0.12873849219E+03  0.12509000000E+03 0.  0.
<mgrwt>
<rscale>  2 0.45253223E+03</rscale>
<asrwt>0</asrwt>
<pdfrwt beam="1">  1       21 0.58700763E-01 0.45253223E+03</pdfrwt>
<pdfrwt beam="2">  1       21 0.18861554E-01 0.45253223E+03</pdfrwt>
<totfact> 0.64636348E+04</totfact>
</mgrwt>
</event>
<event>
 7    0  0.4712189E-002  0.4568258E+03  0.7546771E-02  0.1025706E+00
         21   -1    0    0  502  501  0.00000000000E+00  0.00000000000E+00  0.55485297188E+03  0.55485297188E+03  0.00000000000E+00 0. -1.
         21   -1    0    0  501  502 -0.00000000000E+00 -0.00000000000E+00 -0.94029327109E+02  0.94029327109E+02  0.00000000000E+00 0. -1.
      99926    2    1    2    0    0  0.00000000000E+00  0.00000000000E+00  0.46082364477E+03  0.64888229899E+03  0.45682579433E+03 0.  0.
      99925    2    3    3    0    0 -0.68176773339E+02 -0.80336415379E+02  0.35436279242E+03  0.45373252768E+03  0.26305551879E+03 0.  0.
         25    1    4    4    0    0  0.60249077595E+00 -0.55087034470E+02  0.19699138289E+03  0.23976667282E+03  0.12509000000E+03 0.  0.
         25    1    4    4    0    0 -0.68779264115E+02 -0.25249380910E+02  0.15737140953E+03  0.21396585486E+03  0.12509000000E+03 0.  0.
         25    1    3    3    0    0  0.68176773339E+02  0.80336415379E+02  0.10646085235E+03  0.19514977131E+03  0.12509000000E+03 0.  0.
<mgrwt>
<rscale>  2 0.45682579E+03</rscale>
<asrwt>0</asrwt>
<pdfrwt beam="1">  1       21 0.81596024E-01 0.45682579E+03</pdfrwt>
<pdfrwt beam="2">  1       21 0.13827843E-01 0.45682579E+03</pdfrwt>
<totfact> 0.54969831E+04</totfact>
</mgrwt>
</event>
<event>
 7    0  0.4712189E-002  0.4575379E+03  0.7546771E-02  0.1025498E+00
         21   -1    0    0  502  501  0.00000000000E+00  0.00000000000E+00  0.10037956616E+03  0.10037956616E+03  0.00000000000E+00 0.  1.
         21   -1    0    0  501  502 -0.00000000000E+00 -0.00000000000E+00 -0.52137332936E+03  0.52137332936E+03  0.00000000000E+00 0.  1.
      99926    2    1    2    0    0 -0.71054273576E-14  0.00000000000E+00 -0.42099376320E+03  0.62175289551E+03  0.45753788305E+03 0.  0.
      99925    2    3    3    0    0  0.40194734701E+02  0.95096151657E+02 -0.33488880765E+03  0.43812156314E+03  0.26294694492E+03 0.  0.
         25    1    4    4    0    0  0.51524767385E+02  0.65534511264E+02 -0.21235940560E+03  0.26017993594E+03  0.12509000000E+03 0.  0.
         25    1    3    3    0    0 -0.40194734701E+02 -0.95096151657E+02 -0.86104955552E+02  0.18363133237E+03  0.12509000000E+03 0.  0.
         25    1    4    4    0    0 -0.11330032684E+02  0.29561640393E+02 -0.12252940205E+03  0.17794162720E+03  0.12509000000E+03 0.  0.
<mgrwt>
<rscale>  2 0.45753788E+03</rscale>
<asrwt>0</asrwt>
<pdfrwt beam="1">  1       21 0.14761701E-01 0.45753788E+03</pdfrwt>
<pdfrwt beam="2">  1       21 0.76672548E-01 0.45753788E+03</pdfrwt>
<totfact> 0.56223702E+04</totfact>
</mgrwt>
</event>
<event>
 7    0  0.4712189E-002  0.4511333E+03  0.7546771E-02  0.1027385E+00
         21   -1    0    0  502  501  0.00000000000E+00  0.00000000000E+00  0.12483532269E+03  0.12483532269E+03  0.00000000000E+00 0. -1.
         21   -1    0    0  501  502 -0.00000000000E+00 -0.00000000000E+00 -0.40757951346E+03  0.40757951346E+03  0.00000000000E+00 0. -1.
      99926    2    1    2    0    0  0.00000000000E+00  0.00000000000E+00 -0.28274419077E+03  0.53241483615E+03  0.45113332878E+03 0.  0.
      99925    2    3    3    0    0  0.88009561418E+02 -0.88807411962E+01 -0.10248065112E+03  0.29584137548E+03  0.26304996698E+03 0.  0.
         25    1    3    3    0    0 -0.88009561418E+02  0.88807411962E+01 -0.18026353966E+03  0.23657346067E+03  0.12509000000E+03 0.  0.
         25    1    4    4    0    0  0.12355961530E+01 -0.16599083339E+01 -0.47127570736E+02  0.13368918437E+03  0.12509000000E+03 0.  0.
         25    1    4    4    0    0  0.86773965265E+02 -0.72208328623E+01 -0.55353080382E+02  0.16215219111E+03  0.12509000000E+03 0.  0.
<mgrwt>
<rscale>  2 0.45113333E+03</rscale>
<asrwt>0</asrwt>
<pdfrwt beam="1">  1       21 0.18358136E-01 0.45113333E+03</pdfrwt>
<pdfrwt beam="2">  1       21 0.59938163E-01 0.45113333E+03</pdfrwt>
<totfact> 0.65010727E+04</totfact>
</mgrwt>
</event>
<event>
 6    0  0.4712189E-002  0.4419972E+03  0.7546771E-02  0.1030136E+00
         21   -1    0    0  502  501  0.00000000000E+00  0.00000000000E+00  0.35695760566E+03  0.35695760566E+03  0.00000000000E+00 0. -1.
         21   -1    0    0  501  502 -0.00000000000E+00 -0.00000000000E+00 -0.13682406781E+03  0.13682406781E+03  0.00000000000E+00 0. -1.
      99926    2    1    2    0    0  0.00000000000E+00  0.00000000000E+00  0.22013353785E+03  0.49378167347E+03  0.44199724725E+03 0.  0.
         25    1    3    3    0    0 -0.19611952151E+02 -0.38684477652E+02  0.18858554888E+02  0.13373208542E+03  0.12509000000E+03 0.  0.
         25    1    3    3    0    0 -0.23873966740E+01  0.54220268623E+02  0.19483455243E+02  0.13774124408E+03  0.12509000000E+03 0.  0.
         25    1    3    3    0    0  0.21999348825E+02 -0.15535790970E+02  0.18179152772E+03  0.22230834397E+03  0.12509000000E+03 0.  0.
<mgrwt>
<rscale>  2 0.44199725E+03</rscale>
<asrwt>0</asrwt>
<pdfrwt beam="1">  1       21 0.52493765E-01 0.44199725E+03</pdfrwt>
<pdfrwt beam="2">  1       21 0.20121187E-01 0.44199725E+03</pdfrwt>
<totfact> 0.72953773E+04</totfact>
</mgrwt>
</event>
<event>
 7    0  0.4712189E-002  0.4319509E+03  0.7546771E-02  0.1033245E+00
         21   -1    0    0  502  501  0.00000000000E+00  0.00000000000E+00  0.12042325377E+03  0.12042325377E+03  0.00000000000E+00 0.  1.
         21   -1    0    0  501  502 -0.00000000000E+00 -0.00000000000E+00 -0.38734541031E+03  0.38734541031E+03  0.00000000000E+00 0.  1.
      99926    2    1    2    0    0 -0.26645352591E-14  0.00000000000E+00 -0.26692215654E+03  0.50776866409E+03  0.43195089834E+03 0.  0.
      99925    2    3    3    0    0 -0.79226868688E+01  0.74530206943E+02 -0.22970278988E+03  0.35726846452E+03  0.26317268732E+03 0.  0.
         25    1    4    4    0    0 -0.29859937905E+02  0.60804839857E+02 -0.91847243473E+02  0.16932887726E+03  0.12509000000E+03 0.  0.
         25    1    4    4    0    0  0.21937251037E+02  0.13725367086E+02 -0.13785554640E+03  0.18793958726E+03  0.12509000000E+03 0.  0.
         25    1    3    3    0    0  0.79226868688E+01 -0.74530206943E+02 -0.37219366663E+02  0.15050019956E+03  0.12509000000E+03 0.  0.
<mgrwt>
<rscale>  2 0.43195090E+03</rscale>
<asrwt>0</asrwt>
<pdfrwt beam="1">  1       21 0.17709302E-01 0.43195090E+03</pdfrwt>
<pdfrwt beam="2">  1       21 0.56962560E-01 0.43195090E+03</pdfrwt>
<totfact> 0.78047493E+04</totfact>
</mgrwt>
</event>
<event>
 7    0  0.4712189E-002  0.4546546E+03  0.7546771E-02  0.1026343E+00
         21   -1    0    0  502  501  0.00000000000E+00  0.00000000000E+00  0.23163854000E+03  0.23163854000E+03  0.00000000000E+00 0. -1.
         21   -1    0    0  501  502 -0.00000000000E+00 -0.00000000000E+00 -0.22309625683E+03  0.22309625683E+03  0.00000000000E+00 0. -1.
      99926    2    1    2    0    0  0.00000000000E+00  0.00000000000E+00  0.85422831670E+01  0.45473479683E+03  0.45465455551E+03 0.  0.
      99925    2    3    3    0    0  0.10363270513E+03 -0.21268911644E+02  0.44738273600E+02  0.28695588874E+03  0.26296399903E+03 0.  0.
         25    1    3    3    0    0 -0.10363270513E+03  0.21268911644E+02 -0.36195990433E+02  0.16777890809E+03  0.12509000000E+03 0.  0.
         25    1    4    4    0    0  0.42445353959E+02  0.35096050300E+01  0.59163675842E+02  0.14478181529E+03  0.12509000000E+03 0.  0.
         25    1    4    4    0    0  0.61187351171E+02 -0.24778516674E+02 -0.14425402242E+02  0.14217407345E+03  0.12509000000E+03 0.  0.
<mgrwt>
<rscale>  2 0.45465456E+03</rscale>
<asrwt>0</asrwt>
<pdfrwt beam="1">  1       21 0.34064491E-01 0.45465456E+03</pdfrwt>
<pdfrwt beam="2">  1       21 0.32808273E-01 0.45465456E+03</pdfrwt>
<totfact> 0.68754539E+04</totfact>
</mgrwt>
</event>
<event>
 7    0  0.4712189E-002  0.4446426E+03  0.7546771E-02  0.1029332E+00
         21   -1    0    0  502  501  0.00000000000E+00  0.00000000000E+00  0.68739284807E+03  0.68739284807E+03  0.00000000000E+00 0.  1.
         21   -1    0    0  501  502 -0.00000000000E+00 -0.00000000000E+00 -0.71904686589E+02  0.71904686589E+02  0.00000000000E+00 0.  1.
      99926    2    1    2    0    0  0.00000000000E+00  0.00000000000E+00  0.61548816148E+03  0.75929753465E+03  0.44464263090E+03 0.  0.
      99925    2    3    3    0    0 -0.22018994048E+01 -0.73071434624E+02  0.51515391212E+03  0.58306259881E+03  0.26312384544E+03 0.  0.
         25    1    4    4    0    0 -0.24617434712E+01  0.61743411451E+00  0.19736588366E+03  0.23368192386E+03  0.12509000000E+03 0.  0.
         25    1    3    3    0    0  0.22018994048E+01  0.73071434624E+02  0.10033424936E+03  0.17623493585E+03  0.12509000000E+03 0.  0.
         25    1    4    4    0    0  0.25984406632E+00 -0.73688868738E+02  0.31778802846E+03  0.34938067495E+03  0.12509000000E+03 0.  0.
<mgrwt>
<rscale>  2 0.44464263E+03</rscale>
<asrwt>0</asrwt>
<pdfrwt beam="1">  1       21 0.10108718E+00 0.44464263E+03</pdfrwt>
<pdfrwt beam="2">  1       21 0.10574219E-01 0.44464263E+03</pdfrwt>
<totfact> 0.54060043E+04</totfact>
</mgrwt>
</event>
<event>
 7    0  0.4712189E-002  0.4663002E+03  0.7546771E-02  0.1022970E+00
         21   -1    0    0  502  501  0.00000000000E+00  0.00000000000E+00  0.18644456240E+03  0.18644456240E+03  0.00000000000E+00 0. -1.
         21   -1    0    0  501  502 -0.00000000000E+00 -0.00000000000E+00 -0.29155563661E+03  0.29155563661E+03  0.00000000000E+00 0. -1.
      99926    2    1    2    0    0  0.14210854715E-13 -0.14210854715E-13 -0.10511107421E+03  0.47800019901E+03  0.46630017406E+03 0.  0.
      99925    2    3    3    0    0 -0.10139574870E+03  0.69534029468E+02 -0.78907737714E+02  0.30065815083E+03  0.26277902025E+03 0.  0.
         25    1    4    4    0    0 -0.71688242292E+02  0.41833539069E+02 -0.77909350551E+02  0.16913492861E+03  0.12509000000E+03 0.  0.
         25    1    3    3    0    0  0.10139574870E+03 -0.69534029468E+02 -0.26203336493E+02  0.17734204818E+03  0.12509000000E+03 0.  0.
         25    1    4    4    0    0 -0.29707506407E+02  0.27700490399E+02 -0.99838716282E+00  0.13152322222E+03  0.12509000000E+03 0.  0.
<mgrwt>
<rscale>  2 0.46630017E+03</rscale>
<asrwt>0</asrwt>
<pdfrwt beam="1">  1       21 0.27418318E-01 0.46630017E+03</pdfrwt>
<pdfrwt beam="2">  1       21 0.42875829E-01 0.46630017E+03</pdfrwt>
<totfact> 0.61173828E+04</totfact>
</mgrwt>
</event>
<event>
 7    0  0.4712189E-002  0.4695202E+03  0.7546771E-02  0.1022056E+00
         21   -1    0    0  502  501  0.00000000000E+00  0.00000000000E+00  0.86791122679E+03  0.86791122679E+03  0.00000000000E+00 0.  1.
         21   -1    0    0  501  502 -0.00000000000E+00 -0.00000000000E+00 -0.63499942883E+02  0.63499942883E+02  0.00000000000E+00 0.  1.
      99926    2    1    2    0    0 -0.35527136788E-14  0.14210854715E-13  0.80441128390E+03  0.93141116967E+03  0.46952023738E+03 0.  0.
      99925    2    3    3    0    0  0.26368325254E+02 -0.12284078008E+03  0.47681465642E+03  0.55891660022E+03  0.26315471419E+03 0.  0.
         25    1    4    4    0    0  0.51020319653E+02 -0.63960840283E+02  0.27588865190E+03  0.31377717963E+03  0.12509000000E+03 0.  0.
         25    1    3    3    0    0 -0.26368325254E+02  0.12284078008E+03  0.32759662748E+03  0.37249456944E+03  0.12509000000E+03 0.  0.
         25    1    4    4    0    0 -0.24651994399E+02 -0.58879939798E+02  0.20092600452E+03  0.24513942059E+03  0.12509000000E+03 0.  0.
<mgrwt>
<rscale>  2 0.46952024E+03</rscale>
<asrwt>0</asrwt>
<pdfrwt beam="1">  1       21 0.12763400E+00 0.46952024E+03</pdfrwt>
<pdfrwt beam="2">  1       21 0.93382274E-02 0.46952024E+03</pdfrwt>
<totfact> 0.37461559E+04</totfact>
</mgrwt>
</event>
<event>
 7    0  0.4712189E-002  0.4535291E+03  0.7546771E-02  0.1026675E+00
         21   -1    0    0  502  501  0.00000000000E+00  0.00000000000E+00  0.37420136306E+02  0.37420136306E+02  0.00000000000E+00 0.  1.
         21   -1    0    0  501  502 -0.00000000000E+00 -0.00000000000E+00 -0.13741839744E+04  0.13741839744E+04  0.00000000000E+00 0.  1.
      99926    2    1    2    0    0  0.00000000000E+00 -0.35527136788E-14 -0.13367638381E+04  0.14116041107E+04  0.45352905808E+03 0.  0.
      99925    2    3    3    0    0  0.91446698725E+02 -0.17447917930E+02 -0.10349741632E+04  0.10719109484E+04  0.26297268726E+03 0.  0.
         25    1    3    3    0    0 -0.91446698725E+02  0.17447917930E+02 -0.30178967486E+03  0.33969316228E+03  0.12509000000E+03 0.  0.
         25    1    4    4    0    0  0.80397782067E+02  0.12976001485E+02 -0.52290564903E+03  0.54379224513E+03  0.12509000000E+03 0.  0.
         25    1    4    4    0    0  0.11048916658E+02 -0.30423919415E+02 -0.51206851418E+03  0.52811870328E+03  0.12509000000E+03 0.  0.
<mgrwt>
<rscale>  2 0.45352906E+03</rscale>
<asrwt>0</asrwt>
<pdfrwt beam="1">  1       21 0.55029627E-02 0.45352906E+03</pdfrwt>
<pdfrwt beam="2">  1       21 0.20208583E+00 0.45352906E+03</pdfrwt>
<totfact> 0.26324032E+04</totfact>
</mgrwt>
</event>
<event>
 7    0  0.4712189E-002  0.4524234E+03  0.7546771E-02  0.1027002E+00
         21   -1    0    0  502  501  0.00000000000E+00  0.00000000000E+00  0.63108920144E+03  0.63108920144E+03  0.00000000000E+00 0. -1.
         21   -1    0    0  501  502 -0.00000000000E+00 -0.00000000000E+00 -0.81084781600E+02  0.81084781600E+02  0.00000000000E+00 0. -1.
      99926    2    1    2    0    0  0.35527136788E-14  0.00000000000E+00  0.55000441984E+03  0.71217398304E+03  0.45242338608E+03 0.  0.
      99925    2    3    3    0    0 -0.28640843533E+02 -0.26804966124E+02  0.18382146505E+03  0.32323148265E+03  0.26296284194E+03 0.  0.
         25    1    4    4    0    0  0.57423195520E+01 -0.46903271887E+02  0.10587480003E+03  0.17055753437E+03  0.12509000000E+03 0.  0.
         25    1    3    3    0    0  0.28640843533E+02  0.26804966124E+02  0.36618295479E+03  0.38894250039E+03  0.12509000000E+03 0.  0.
         25    1    4    4    0    0 -0.34383163085E+02  0.20098305763E+02  0.77946665021E+02  0.15267394829E+03  0.12509000000E+03 0.  0.
<mgrwt>
<rscale>  2 0.45242339E+03</rscale>
<asrwt>0</asrwt>
<pdfrwt beam="1">  1       21 0.92807233E-01 0.45242339E+03</pdfrwt>
<pdfrwt beam="2">  1       21 0.11924233E-01 0.45242339E+03</pdfrwt>
<totfact> 0.53319618E+04</totfact>
</mgrwt>
</event>
<event>
 7    0  0.4712189E-002  0.4549790E+03  0.7546771E-02  0.1026248E+00
         21   -1    0    0  502  501  0.00000000000E+00  0.00000000000E+00  0.34583933950E+02  0.34583933950E+02  0.00000000000E+00 0.  1.
         21   -1    0    0  501  502 -0.00000000000E+00 -0.00000000000E+00 -0.14964018234E+04  0.14964018234E+04  0.00000000000E+00 0.  1.
      99926    2    1    2    0    0  0.71054273576E-14 -0.14210854715E-13 -0.14618178894E+04  0.15309857573E+04  0.45497895258E+03 0.  0.
      99925    2    3    3    0    0  0.49463017644E+02 -0.83458228632E+02 -0.72398022822E+03  0.77635751214E+03  0.26300522763E+03 0.  0.
         25    1    3    3    0    0 -0.49463017644E+02  0.83458228632E+02 -0.73783766123E+03  0.75462824521E+03  0.12509000000E+03 0.  0.
         25    1    4    4    0    0  0.27796568272E+02 -0.11907465154E+01 -0.30118286610E+03  0.32731131055E+03  0.12509000000E+03 0.  0.
         25    1    4    4    0    0  0.21666449373E+02 -0.82267482116E+02 -0.42279736212E+03  0.44904620159E+03  0.12509000000E+03 0.  0.
<mgrwt>
<rscale>  2 0.45497895E+03</rscale>
<asrwt>0</asrwt>
<pdfrwt beam="1">  1       21 0.50858742E-02 0.45497895E+03</pdfrwt>
<pdfrwt beam="2">  1       21 0.22005903E+00 0.45497895E+03</pdfrwt>
<totfact> 0.23033606E+04</totfact>
</mgrwt>
</event>
<event>
 7    0  0.4712189E-002  0.4602734E+03  0.7546771E-02  0.1024702E+00
         21   -1    0    0  502  501  0.00000000000E+00  0.00000000000E+00  0.12074013022E+04  0.12074013022E+04  0.00000000000E+00 0. -1.
         21   -1    0    0  501  502 -0.00000000000E+00 -0.00000000000E+00 -0.43865206689E+02  0.43865206689E+02  0.00000000000E+00 0. -1.
      99926    2    1    2    0    0  0.00000000000E+00  0.00000000000E+00  0.11635360955E+04  0.12512665088E+04  0.46027343037E+03 0.  0.
      99925    2    3    3    0    0  0.96407022688E+02 -0.58983312988E+02  0.63629328265E+03  0.69772713626E+03  0.26302218517E+03 0.  0.
         25    1    4    4    0    0  0.67092536914E+02 -0.57354424224E+02  0.40770577161E+03  0.43550251755E+03  0.12509000000E+03 0.  0.
         25    1    4    4    0    0  0.29314485775E+02 -0.16288887641E+01  0.22858751104E+03  0.26222461871E+03  0.12509000000E+03 0.  0.
         25    1    3    3    0    0 -0.96407022688E+02  0.58983312988E+02  0.52724281281E+03  0.55353937258E+03  0.12509000000E+03 0.  0.
<mgrwt>
<rscale>  2 0.46027343E+03</rscale>
<asrwt>0</asrwt>
<pdfrwt beam="1">  1       21 0.17755899E+00 0.46027343E+03</pdfrwt>
<pdfrwt beam="2">  1       21 0.64507665E-02 0.46027343E+03</pdfrwt>
<totfact> 0.29340445E+04</totfact>
</mgrwt>
</event>
<event>
 7    0  0.4712189E-002  0.4552353E+03  0.7546771E-02  0.1026172E+00
         21   -1    0    0  502  501  0.00000000000E+00  0.00000000000E+00  0.39568334987E+02  0.39568334987E+02  0.00000000000E+00 0. -1.
         21   -1    0    0  501  502 -0.00000000000E+00 -0.00000000000E+00 -0.13093748663E+04  0.13093748663E+04  0.00000000000E+00 0. -1.
      99926    2    1    2    0    0  0.71054273576E-14 -0.14210854715E-13 -0.12698065313E+04  0.13489432012E+04  0.45523525053E+03 0.  0.
      99925    2    3    3    0    0  0.36821968305E+02 -0.67869106342E+02 -0.55241660302E+03  0.61664688813E+03  0.26292053629E+03 0.  0.
         25    1    3    3    0    0 -0.36821968305E+02  0.67869106342E+02 -0.71738992825E+03  0.73229631311E+03  0.12509000000E+03 0.  0.
         25    1    4    4    0    0  0.45536878113E+02 -0.19915537716E+02 -0.33617913648E+03  0.36212450320E+03  0.12509000000E+03 0.  0.
         25    1    4    4    0    0 -0.87149098081E+01 -0.47953568626E+02 -0.21623746654E+03  0.25452238493E+03  0.12509000000E+03 0.  0.
<mgrwt>
<rscale>  2 0.45523525E+03</rscale>
<asrwt>0</asrwt>
<pdfrwt beam="1">  1       21 0.58188737E-02 0.45523525E+03</pdfrwt>
<pdfrwt beam="2">  1       21 0.19255510E+00 0.45523525E+03</pdfrwt>
<totfact> 0.27674248E+04</totfact>
</mgrwt>
</event>
<event>
 7    0  0.4712189E-002  0.4537549E+03  0.7546771E-02  0.1026608E+00
         21   -1    0    0  502  501  0.00000000000E+00  0.00000000000E+00  0.96941023325E+02  0.96941023325E+02  0.00000000000E+00 0. -1.
         21   -1    0    0  501  502 -0.00000000000E+00 -0.00000000000E+00 -0.53097626258E+03  0.53097626258E+03  0.00000000000E+00 0. -1.
      99926    2    1    2    0    0  0.14210854715E-13  0.17763568394E-14 -0.43403523926E+03  0.62791728591E+03  0.45375492176E+03 0.  0.
      99925    2    3    3    0    0 -0.10192496907E+03 -0.15121388969E+02 -0.33419907273E+03  0.43756990880E+03  0.26298488388E+03 0.  0.
         25    1    4    4    0    0 -0.31711760408E+02 -0.10958448390E+02 -0.21508903669E+03  0.25107075724E+03  0.12509000000E+03 0.  0.
         25    1    3    3    0    0  0.10192496907E+03  0.15121388969E+02 -0.99836166529E+02  0.19034737711E+03  0.12509000000E+03 0.  0.
         25    1    4    4    0    0 -0.70213208666E+02 -0.41629405794E+01 -0.11911003604E+03  0.18649915156E+03  0.12509000000E+03 0.  0.
<mgrwt>
<rscale>  2 0.45375492E+03</rscale>
<asrwt>0</asrwt>
<pdfrwt beam="1">  1       21 0.14256033E-01 0.45375492E+03</pdfrwt>
<pdfrwt beam="2">  1       21 0.78084744E-01 0.45375492E+03</pdfrwt>
<totfact> 0.57555612E+04</totfact>
</mgrwt>
</event>
<event>
 7    0  0.4712189E-002  0.4253626E+03  0.7546771E-02  0.1035335E+00
         21   -1    0    0  502  501  0.00000000000E+00  0.00000000000E+00  0.81457784418E+02  0.81457784418E+02  0.00000000000E+00 0.  1.
         21   -1    0    0  501  502 -0.00000000000E+00 -0.00000000000E+00 -0.55529778638E+03  0.55529778638E+03  0.00000000000E+00 0.  1.
      99926    2    1    2    0    0  0.17763568394E-14  0.00000000000E+00 -0.47384000196E+03  0.63675557080E+03  0.42536256239E+03 0.  0.
      99925    2    3    3    0    0 -0.81966354525E+01 -0.78327822861E+02 -0.34721414229E+03  0.44211731889E+03  0.26212140392E+03 0.  0.
         25    1    4    4    0    0  0.36707969028E+01 -0.38152574718E+02 -0.23484227463E+03  0.26882614412E+03  0.12509000000E+03 0.  0.
         25    1    4    4    0    0 -0.11867432355E+02 -0.40175248143E+02 -0.11237186766E+03  0.17329117478E+03  0.12509000000E+03 0.  0.
         25    1    3    3    0    0  0.81966354525E+01  0.78327822861E+02 -0.12662585967E+03  0.19463825191E+03  0.12509000000E+03 0.  0.
<mgrwt>
<rscale>  2 0.42536256E+03</rscale>
<asrwt>0</asrwt>
<pdfrwt beam="1">  1       21 0.11979087E-01 0.42536256E+03</pdfrwt>
<pdfrwt beam="2">  1       21 0.81661435E-01 0.42536256E+03</pdfrwt>
<totfact> 0.71851889E+04</totfact>
</mgrwt>
</event>
<event>
 7    0  0.4712189E-002  0.4567180E+03  0.7546771E-02  0.1025737E+00
         21   -1    0    0  502  501  0.00000000000E+00  0.00000000000E+00  0.15071105764E+03  0.15071105764E+03  0.00000000000E+00 0. -1.
         21   -1    0    0  501  502 -0.00000000000E+00 -0.00000000000E+00 -0.34601199068E+03  0.34601199068E+03  0.00000000000E+00 0. -1.
      99926    2    1    2    0    0  0.00000000000E+00  0.00000000000E+00 -0.19530093303E+03  0.49672304832E+03  0.45671800083E+03 0.  0.
      99925    2    3    3    0    0 -0.10428446722E+03 -0.23304695520E+02 -0.16857296454E+03  0.33004896114E+03  0.26286329800E+03 0.  0.
         25    1    4    4    0    0 -0.49664468501E+02 -0.37339671635E+02 -0.12107980653E+03  0.18484760793E+03  0.12509000000E+03 0.  0.
         25    1    4    4    0    0 -0.54619998723E+02  0.14034976114E+02 -0.47493158017E+02  0.14520135321E+03  0.12509000000E+03 0.  0.
         25    1    3    3    0    0  0.10428446722E+03  0.23304695520E+02 -0.26727968490E+02  0.16667408718E+03  0.12509000000E+03 0.  0.
<mgrwt>
<rscale>  2 0.45671800E+03</rscale>
<asrwt>0</asrwt>
<pdfrwt beam="1">  1       21 0.22163391E-01 0.45671800E+03</pdfrwt>
<pdfrwt beam="2">  1       21 0.50884116E-01 0.45671800E+03</pdfrwt>
<totfact> 0.64615735E+04</totfact>
</mgrwt>
</event>
<event>
 7    0  0.4712189E-002  0.4598329E+03  0.7546771E-02  0.1024830E+00
         21   -1    0    0  502  501  0.00000000000E+00  0.00000000000E+00  0.57263225915E+03  0.57263225915E+03  0.00000000000E+00 0. -1.
         21   -1    0    0  501  502 -0.00000000000E+00 -0.00000000000E+00 -0.92313316034E+02  0.92313316034E+02  0.00000000000E+00 0. -1.
      99926    2    1    2    0    0  0.71054273576E-14  0.14210854715E-13  0.48031894312E+03  0.66494557519E+03  0.45983293797E+03 0.  0.
      99925    2    3    3    0    0 -0.52634204656E+02 -0.10470040301E+03  0.31807831621E+03  0.42893273018E+03  0.26282491869E+03 0.  0.
         25    1    4    4    0    0 -0.60908098747E+01 -0.67684488978E+02  0.20780291267E+03  0.25188855994E+03  0.12509000000E+03 0.  0.
         25    1    4    4    0    0 -0.46543394781E+02 -0.37015914035E+02  0.11027540354E+03  0.17704417024E+03  0.12509000000E+03 0.  0.
         25    1    3    3    0    0  0.52634204656E+02  0.10470040301E+03  0.16224062691E+03  0.23601284501E+03  0.12509000000E+03 0.  0.
<mgrwt>
<rscale>  2 0.45983294E+03</rscale>
<asrwt>0</asrwt>
<pdfrwt beam="1">  1       21 0.84210625E-01 0.45983294E+03</pdfrwt>
<pdfrwt beam="2">  1       21 0.13575488E-01 0.45983294E+03</pdfrwt>
<totfact> 0.52806447E+04</totfact>
</mgrwt>
</event>
<event>
 7    0  0.4712189E-002  0.4433579E+03  0.7546771E-02  0.1029722E+00
         21   -1    0    0  502  501  0.00000000000E+00  0.00000000000E+00  0.11025314245E+04  0.11025314245E+04  0.00000000000E+00 0.  1.
         21   -1    0    0  501  502 -0.00000000000E+00 -0.00000000000E+00 -0.44571563741E+02  0.44571563741E+02  0.00000000000E+00 0.  1.
      99926    2    1    2    0    0 -0.71054273576E-14  0.00000000000E+00  0.10579598608E+04  0.11471029883E+04  0.44335786749E+03 0.  0.
      99925    2    3    3    0    0  0.47635790082E+02 -0.11749285685E+02  0.44240826597E+03  0.51705657078E+03  0.26308783586E+03 0.  0.
         25    1    4    4    0    0  0.28688853974E+02 -0.56755150404E+01  0.14454255872E+03  0.19337869892E+03  0.12509000000E+03 0.  0.
         25    1    3    3    0    0 -0.47635790082E+02  0.11749285685E+02  0.61555159484E+03  0.63004641751E+03  0.12509000000E+03 0.  0.
         25    1    4    4    0    0  0.18946936108E+02 -0.60737706447E+01  0.29786570725E+03  0.32367787186E+03  0.12509000000E+03 0.  0.
<mgrwt>
<rscale>  2 0.44335787E+03</rscale>
<asrwt>0</asrwt>
<pdfrwt beam="1">  1       21 0.16213696E+00 0.44335787E+03</pdfrwt>
<pdfrwt beam="2">  1       21 0.65546424E-02 0.44335787E+03</pdfrwt>
<totfact> 0.37136181E+04</totfact>
</mgrwt>
</event>
<event>
 7    0  0.4712189E-002  0.4432726E+03  0.7546771E-02  0.1029747E+00
         21   -1    0    0  502  501  0.00000000000E+00  0.00000000000E+00  0.18934778987E+03  0.18934778987E+03  0.00000000000E+00 0. -1.
         21   -1    0    0  501  502 -0.00000000000E+00 -0.00000000000E+00 -0.25943075869E+03  0.25943075869E+03  0.00000000000E+00 0. -1.
      99926    2    1    2    0    0  0.00000000000E+00 -0.35527136788E-14 -0.70082968826E+02  0.44877854856E+03  0.44327256076E+03 0.  0.
      99925    2    3    3    0    0 -0.72707914437E+02 -0.85650313505E+01  0.27129316215E+02  0.27425767002E+03  0.26290962170E+03 0.  0.
         25    1    3    3    0    0  0.72707914437E+02  0.85650313505E+01 -0.97212285041E+02  0.17452087854E+03  0.12509000000E+03 0.  0.
         25    1    4    4    0    0 -0.15484779087E+02 -0.36042669199E+02  0.27654812697E+02  0.13398189860E+03  0.12509000000E+03 0.  0.
         25    1    4    4    0    0 -0.57223135350E+02  0.27477637848E+02 -0.52549648178E+00  0.14027577142E+03  0.12509000000E+03 0.  0.
<mgrwt>
<rscale>  2 0.44327256E+03</rscale>
<asrwt>0</asrwt>
<pdfrwt beam="1">  1       21 0.27845263E-01 0.44327256E+03</pdfrwt>
<pdfrwt beam="2">  1       21 0.38151582E-01 0.44327256E+03</pdfrwt>
<totfact> 0.75855921E+04</totfact>
</mgrwt>
</event>
<event>
 7    0  0.4712189E-002  0.4774498E+03  0.7546771E-02  0.1019838E+00
         21   -1    0    0  502  501  0.00000000000E+00  0.00000000000E+00  0.34701646614E+03  0.34701646614E+03  0.00000000000E+00 0.  1.
         21   -1    0    0  501  502 -0.00000000000E+00 -0.00000000000E+00 -0.16422730082E+03  0.16422730082E+03  0.00000000000E+00 0.  1.
      99926    2    1    2    0    0 -0.35527136788E-14 -0.17763568394E-14  0.18278916532E+03  0.51124376697E+03  0.47744979873E+03 0.  0.
      99925    2    3    3    0    0  0.21428696348E+01 -0.15308574204E+02 -0.28747164621E+02  0.26500390155E+03  0.26298616700E+03 0.  0.
         25    1    3    3    0    0 -0.21428696348E+01  0.15308574204E+02  0.21153632994E+03  0.24623986541E+03  0.12509000000E+03 0.  0.
         25    1    4    4    0    0 -0.31733588690E+02  0.15058240636E+02 -0.21552173285E+02  0.13170336190E+03  0.12509000000E+03 0.  0.
         25    1    4    4    0    0  0.33876458325E+02 -0.30366814839E+02 -0.71949913353E+01  0.13330053966E+03  0.12509000000E+03 0.  0.
<mgrwt>
<rscale>  2 0.47744980E+03</rscale>
<asrwt>0</asrwt>
<pdfrwt beam="1">  1       21 0.51031833E-01 0.47744980E+03</pdfrwt>
<pdfrwt beam="2">  1       21 0.24151074E-01 0.47744980E+03</pdfrwt>
<totfact> 0.54171107E+04</totfact>
</mgrwt>
</event>
<event>
 7    0  0.4712189E-002  0.4753408E+03  0.7546771E-02  0.1020424E+00
         21   -1    0    0  502  501  0.00000000000E+00  0.00000000000E+00  0.12938788287E+03  0.12938788287E+03  0.00000000000E+00 0. -1.
         21   -1    0    0  501  502 -0.00000000000E+00 -0.00000000000E+00 -0.43657263580E+03  0.43657263580E+03  0.00000000000E+00 0. -1.
      99926    2    1    2    0    0  0.00000000000E+00 -0.14210854715E-13 -0.30718475294E+03  0.56596051867E+03  0.47534075804E+03 0.  0.
      99925    2    3    3    0    0  0.11424827610E+03 -0.64741930182E+02 -0.19265435017E+03  0.35146364836E+03  0.26299583906E+03 0.  0.
         25    1    4    4    0    0  0.88431063359E+02 -0.46302113249E+02 -0.13799378929E+03  0.21131429824E+03  0.12509000000E+03 0.  0.
         25    1    3    3    0    0 -0.11424827610E+03  0.64741930182E+02 -0.11453040277E+03  0.21449687031E+03  0.12509000000E+03 0.  0.
         25    1    4    4    0    0  0.25817212744E+02 -0.18439816933E+02 -0.54660560874E+02  0.14014935011E+03  0.12509000000E+03 0.  0.
<mgrwt>
<rscale>  2 0.47534076E+03</rscale>
<asrwt>0</asrwt>
<pdfrwt beam="1">  1       21 0.19027630E-01 0.47534076E+03</pdfrwt>
<pdfrwt beam="2">  1       21 0.64201858E-01 0.47534076E+03</pdfrwt>
<totfact> 0.51947104E+04</totfact>
</mgrwt>
</event>
<event>
 7    0  0.4712189E-002  0.4534078E+03  0.7546771E-02  0.1026711E+00
         21   -1    0    0  502  501  0.00000000000E+00  0.00000000000E+00  0.15826261015E+03  0.15826261015E+03  0.00000000000E+00 0.  1.
         21   -1    0    0  501  502 -0.00000000000E+00 -0.00000000000E+00 -0.32474289004E+03  0.32474289004E+03  0.00000000000E+00 0.  1.
      99926    2    1    2    0    0 -0.14210854715E-13  0.00000000000E+00 -0.16648027990E+03  0.48300550019E+03  0.45340779616E+03 0.  0.
      99925    2    3    3    0    0  0.86408383508E+02  0.47039756893E+02 -0.48682842724E+02  0.28500829876E+03  0.26302198334E+03 0.  0.
         25    1    3    3    0    0 -0.86408383508E+02 -0.47039756893E+02 -0.11779743717E+03  0.19799720143E+03  0.12509000000E+03 0.  0.
         25    1    4    4    0    0  0.67548140079E+01  0.37708758255E+02 -0.86048696776E+01  0.13110732185E+03  0.12509000000E+03 0.  0.
         25    1    4    4    0    0  0.79653569500E+02  0.93309986387E+01 -0.40077973047E+02  0.15390097691E+03  0.12509000000E+03 0.  0.
<mgrwt>
<rscale>  2 0.45340780E+03</rscale>
<asrwt>0</asrwt>
<pdfrwt beam="1">  1       21 0.23273914E-01 0.45340780E+03</pdfrwt>
<pdfrwt beam="2">  1       21 0.47756307E-01 0.45340780E+03</pdfrwt>
<totfact> 0.67328940E+04</totfact>
</mgrwt>
</event>
<event>
 6    0  0.4992418E-002  0.4475942E+03  0.7546771E-02  0.1028442E+00
         21   -1    0    0  502  501  0.00000000000E+00  0.00000000000E+00  0.88448702467E+03  0.88448702467E+03  0.00000000000E+00 0. -1.
         21   -1    0    0  501  502 -0.00000000000E+00 -0.00000000000E+00 -0.56626200344E+02  0.56626200344E+02  0.00000000000E+00 0. -1.
      99926    2    1    2    0    0  0.00000000000E+00  0.00000000000E+00  0.82786082433E+03  0.94111322502E+03  0.44759418880E+03 0.  0.
         25    1    3    3    0    0  0.27860108370E+01  0.10104939785E+02  0.86390202581E+02  0.15238322370E+03  0.12509000000E+03 0.  0.
         25    1    3    3    0    0  0.10451993699E+02 -0.61482157467E+01  0.23099740364E+03  0.26297215312E+03  0.12509000000E+03 0.  0.
         25    1    3    3    0    0 -0.13238004536E+02 -0.39567240380E+01  0.51047321811E+03  0.52575784819E+03  0.12509000000E+03 0.  0.
<mgrwt>
<rscale>  2 0.44759419E+03</rscale>
<asrwt>0</asrwt>
<pdfrwt beam="1">  1       21 0.13007161E+00 0.44759419E+03</pdfrwt>
<pdfrwt beam="2">  1       21 0.83273829E-02 0.44759419E+03</pdfrwt>
<totfact> 0.43996142E+04</totfact>
</mgrwt>
</event>
<event>
 7    0  0.4712189E-002  0.4553968E+03  0.7546771E-02  0.1026125E+00
         21   -1    0    0  502  501  0.00000000000E+00  0.00000000000E+00  0.79220506230E+02  0.79220506230E+02  0.00000000000E+00 0.  1.
         21   -1    0    0  501  502 -0.00000000000E+00 -0.00000000000E+00 -0.65445898848E+03  0.65445898848E+03  0.00000000000E+00 0.  1.
      99926    2    1    2    0    0 -0.14210854715E-13 -0.35527136788E-14 -0.57523848225E+03  0.73367949471E+03  0.45539684836E+03 0.  0.
      99925    2    3    3    0    0  0.87688572389E+02  0.17446662951E+02 -0.24913644294E+03  0.37314694428E+03  0.26301331345E+03 0.  0.
         25    1    4    4    0    0  0.44133219332E+02 -0.31922920596E+02 -0.12156523333E+03  0.18273595148E+03  0.12509000000E+03 0.  0.
         25    1    4    4    0    0  0.43555353057E+02  0.49369583547E+02 -0.12757120961E+03  0.19041099280E+03  0.12509000000E+03 0.  0.
         25    1    3    3    0    0 -0.87688572389E+02 -0.17446662951E+02 -0.32610203930E+03  0.36053255042E+03  0.12509000000E+03 0.  0.
<mgrwt>
<rscale>  2 0.45539685E+03</rscale>
<asrwt>0</asrwt>
<pdfrwt beam="1">  1       21 0.11650075E-01 0.45539685E+03</pdfrwt>
<pdfrwt beam="2">  1       21 0.96243966E-01 0.45539685E+03</pdfrwt>
<totfact> 0.50953082E+04</totfact>
</mgrwt>
</event>
<event>
 7    0  0.4712189E-002  0.4489051E+03  0.7546771E-02  0.1028049E+00
         21   -1    0    0  502  501  0.00000000000E+00  0.00000000000E+00  0.83101045096E+02  0.83101045096E+02  0.00000000000E+00 0. -1.
         21   -1    0    0  501  502 -0.00000000000E+00 -0.00000000000E+00 -0.60623719321E+03  0.60623719321E+03  0.00000000000E+00 0. -1.
      99926    2    1    2    0    0  0.00000000000E+00  0.14210854715E-13 -0.52313614812E+03  0.68933823831E+03  0.44890508722E+03 0.  0.
      99925    2    3    3    0    0  0.17403519489E+02 -0.79140477146E+02 -0.43926054305E+03  0.51831565840E+03  0.26293573254E+03 0.  0.
         25    1    4    4    0    0  0.12997138009E+02 -0.74671343921E+02 -0.19434445468E+03  0.24323242046E+03  0.12509000000E+03 0.  0.
         25    1    3    3    0    0 -0.17403519489E+02  0.79140477146E+02 -0.83875605061E+02  0.17102257991E+03  0.12509000000E+03 0.  0.
         25    1    4    4    0    0  0.44063814798E+01 -0.44691332246E+01 -0.24491608838E+03  0.27508323794E+03  0.12509000000E+03 0.  0.
<mgrwt>
<rscale>  2 0.44890509E+03</rscale>
<asrwt>0</asrwt>
<pdfrwt beam="1">  1       21 0.12220742E-01 0.44890509E+03</pdfrwt>
<pdfrwt beam="2">  1       21 0.89152528E-01 0.44890509E+03</pdfrwt>
<totfact> 0.56130777E+04</totfact>
</mgrwt>
</event>
<event>
 7    0  0.4712189E-002  0.4435590E+03  0.7546771E-02  0.1029660E+00
         21   -1    0    0  502  501  0.00000000000E+00  0.00000000000E+00  0.13650292834E+03  0.13650292834E+03  0.00000000000E+00 0.  1.
         21   -1    0    0  501  502 -0.00000000000E+00 -0.00000000000E+00 -0.36033034511E+03  0.36033034511E+03  0.00000000000E+00 0.  1.
      99926    2    1    2    0    0 -0.71054273576E-14 -0.55511151231E-15 -0.22382741677E+03  0.49683327345E+03  0.44355900296E+03 0.  0.
      99925    2    3    3    0    0 -0.60590210340E+02  0.67405107070E+00 -0.50354284358E+02  0.27454502881E+03  0.26299770143E+03 0.  0.
         25    1    4    4    0    0 -0.85634489715E+01 -0.54739261048E+01  0.10417429736E+02  0.12593382178E+03  0.12509000000E+03 0.  0.
         25    1    4    4    0    0 -0.52026761369E+02  0.61479771755E+01 -0.60771714094E+02  0.14861120703E+03  0.12509000000E+03 0.  0.
         25    1    3    3    0    0  0.60590210340E+02 -0.67405107070E+00 -0.17347313241E+03  0.22228824463E+03  0.12509000000E+03 0.  0.
<mgrwt>
<rscale>  2 0.44355900E+03</rscale>
<asrwt>0</asrwt>
<pdfrwt beam="1">  1       21 0.20073961E-01 0.44355900E+03</pdfrwt>
<pdfrwt beam="2">  1       21 0.52989755E-01 0.44355900E+03</pdfrwt>
<totfact> 0.71795479E+04</totfact>
</mgrwt>
</event>
<event>
 7    0  0.4712189E-002  0.4536065E+03  0.7546771E-02  0.1026652E+00
         21   -1    0    0  502  501  0.00000000000E+00  0.00000000000E+00  0.74255480969E+02  0.74255480969E+02  0.00000000000E+00 0. -1.
         21   -1    0    0  501  502 -0.00000000000E+00 -0.00000000000E+00 -0.69273969045E+03  0.69273969045E+03  0.00000000000E+00 0. -1.
      99926    2    1    2    0    0  0.00000000000E+00 -0.14210854715E-13 -0.61848420949E+03  0.76699517142E+03  0.45360652068E+03 0.  0.
      99925    2    3    3    0    0 -0.15795267544E+02  0.98065022271E+02 -0.30266580022E+03  0.41308131919E+03  0.26298925942E+03 0.  0.
         25    1    3    3    0    0  0.15795267544E+02 -0.98065022271E+02 -0.31581840927E+03  0.35391385223E+03  0.12509000000E+03 0.  0.
         25    1    4    4    0    0 -0.17599146788E+02  0.20466383540E+02 -0.18331772927E+03  0.22356542842E+03  0.12509000000E+03 0.  0.
         25    1    4    4    0    0  0.18038792441E+01  0.77598638731E+02 -0.11934807095E+03  0.18951589077E+03  0.12509000000E+03 0.  0.
<mgrwt>
<rscale>  2 0.45360652E+03</rscale>
<asrwt>0</asrwt>
<pdfrwt beam="1">  1       21 0.10919924E-01 0.45360652E+03</pdfrwt>
<pdfrwt beam="2">  1       21 0.10187348E+00 0.45360652E+03</pdfrwt>
<totfact> 0.49946667E+04</totfact>
</mgrwt>
</event>
<event>
 7    0  0.4712189E-002  0.4558051E+03  0.7546771E-02  0.1026005E+00
         21   -1    0    0  502  501  0.00000000000E+00  0.00000000000E+00  0.14591367732E+03  0.14591367732E+03  0.00000000000E+00 0. -1.
         21   -1    0    0  501  502 -0.00000000000E+00 -0.00000000000E+00 -0.35596101888E+03  0.35596101888E+03  0.00000000000E+00 0. -1.
      99926    2    1    2    0    0  0.00000000000E+00  0.00000000000E+00 -0.21004734156E+03  0.50187469620E+03  0.45580513928E+03 0.  0.
      99925    2    3    3    0    0 -0.50841927843E+02 -0.55181781789E+02 -0.37933606073E+02  0.27626313464E+03  0.26315856517E+03 0.  0.
         25    1    4    4    0    0 -0.56573072561E+02 -0.37805676597E+02 -0.45840858331E+02  0.14959503372E+03  0.12509000000E+03 0.  0.
         25    1    3    3    0    0  0.50841927843E+02  0.55181781789E+02 -0.17211373548E+03  0.22561156156E+03  0.12509000000E+03 0.  0.
         25    1    4    4    0    0  0.57311447181E+01 -0.17376105192E+02  0.79072522584E+01  0.12666810092E+03  0.12509000000E+03 0.  0.
<mgrwt>
<rscale>  2 0.45580514E+03</rscale>
<asrwt>0</asrwt>
<pdfrwt beam="1">  1       21 0.21457894E-01 0.45580514E+03</pdfrwt>
<pdfrwt beam="2">  1       21 0.52347209E-01 0.45580514E+03</pdfrwt>
<totfact> 0.64724509E+04</totfact>
</mgrwt>
</event>
<event>
 7    0  0.4712189E-002  0.4514757E+03  0.7546771E-02  0.1027283E+00
         21   -1    0    0  502  501  0.00000000000E+00  0.00000000000E+00  0.60948084300E+03  0.60948084300E+03  0.00000000000E+00 0.  1.
         21   -1    0    0  501  502 -0.00000000000E+00 -0.00000000000E+00 -0.83608158144E+02  0.83608158144E+02  0.00000000000E+00 0.  1.
      99926    2    1    2    0    0  0.00000000000E+00 -0.14210854715E-13  0.52587268486E+03  0.69308900115E+03  0.45147567247E+03 0.  0.
      99925    2    3    3    0    0 -0.11451734988E+02  0.95637620075E+02  0.25098909047E+03  0.37609342520E+03  0.26300768874E+03 0.  0.
         25    1    3    3    0    0  0.11451734988E+02 -0.95637620075E+02  0.27488359439E+03  0.31699557595E+03  0.12509000000E+03 0.  0.
         25    1    4    4    0    0  0.62876462591E+01  0.46548989484E+02  0.17668222714E+03  0.22151853287E+03  0.12509000000E+03 0.  0.
         25    1    4    4    0    0 -0.17739381247E+02  0.49088630591E+02  0.74306863330E+02  0.15457489233E+03  0.12509000000E+03 0.  0.
<mgrwt>
<rscale>  2 0.45147567E+03</rscale>
<asrwt>0</asrwt>
<pdfrwt beam="1">  1       21 0.89629533E-01 0.45147567E+03</pdfrwt>
<pdfrwt beam="2">  1       21 0.12295318E-01 0.45147567E+03</pdfrwt>
<totfact> 0.54783840E+04</totfact>
</mgrwt>
</event>
<event>
 7    0  0.4712189E-002  0.4522531E+03  0.7546771E-02  0.1027052E+00
         21   -1    0    0  502  501  0.00000000000E+00  0.00000000000E+00  0.53210035645E+02  0.53210035645E+02  0.00000000000E+00 0. -1.
         21   -1    0    0  501  502 -0.00000000000E+00 -0.00000000000E+00 -0.96096923558E+03  0.96096923558E+03  0.00000000000E+00 0. -1.
      99926    2    1    2    0    0  0.00000000000E+00  0.00000000000E+00 -0.90775919993E+03  0.10141792712E+04  0.45225305871E+03 0.  0.
      99925    2    3    3    0    0 -0.78070204778E+02 -0.22499552306E+02 -0.40308298672E+03  0.48792194347E+03  0.26266088786E+03 0.  0.
         25    1    4    4    0    0 -0.23332895848E+02 -0.21389787931E+02 -0.25931415614E+03  0.28964337854E+03  0.12509000000E+03 0.  0.
         25    1    4    4    0    0 -0.54737308929E+02 -0.11097643756E+01 -0.14376883057E+03  0.19827856493E+03  0.12509000000E+03 0.  0.
         25    1    3    3    0    0  0.78070204778E+02  0.22499552306E+02 -0.50467621322E+03  0.52625732775E+03  0.12509000000E+03 0.  0.
<mgrwt>
<rscale>  2 0.45225306E+03</rscale>
<asrwt>0</asrwt>
<pdfrwt beam="1">  1       21 0.78250052E-02 0.45225306E+03</pdfrwt>
<pdfrwt beam="2">  1       21 0.14131901E+00 0.45225306E+03</pdfrwt>
<totfact> 0.39459352E+04</totfact>
</mgrwt>
</event>
<event>
 7    0  0.4712189E-002  0.4409464E+03  0.7546771E-02  0.1030457E+00
         21   -1    0    0  502  501  0.00000000000E+00  0.00000000000E+00  0.26134129909E+03  0.26134129909E+03  0.00000000000E+00 0. -1.
         21   -1    0    0  501  502 -0.00000000000E+00 -0.00000000000E+00 -0.18599600790E+03  0.18599600790E+03  0.00000000000E+00 0. -1.
      99926    2    1    2    0    0  0.00000000000E+00  0.00000000000E+00  0.75345291190E+02  0.44733730698E+03  0.44094642908E+03 0.  0.
      99925    2    3    3    0    0 -0.74093263689E+02  0.63463368369E+02  0.67413729911E+02  0.28850460061E+03  0.26300738154E+03 0.  0.
         25    1    3    3    0    0  0.74093263689E+02 -0.63463368369E+02  0.79315612788E+01  0.15883270637E+03  0.12509000000E+03 0.  0.
         25    1    4    4    0    0 -0.42417885699E+02  0.33617794070E+02 -0.72027656594E+01  0.13648743912E+03  0.12509000000E+03 0.  0.
         25    1    4    4    0    0 -0.31675377990E+02  0.29845574299E+02  0.74616495571E+02  0.15201716149E+03  0.12509000000E+03 0.  0.
<mgrwt>
<rscale>  2 0.44094643E+03</rscale>
<asrwt>0</asrwt>
<pdfrwt beam="1">  1       21 0.38432544E-01 0.44094643E+03</pdfrwt>
<pdfrwt beam="2">  1       21 0.27352354E-01 0.44094643E+03</pdfrwt>
<totfact> 0.77434106E+04</totfact>
</mgrwt>
</event>
<event>
 7    0  0.4712189E-002  0.4529635E+03  0.7546771E-02  0.1026842E+00
         21   -1    0    0  502  501  0.00000000000E+00  0.00000000000E+00  0.22411924571E+03  0.22411924571E+03  0.00000000000E+00 0. -1.
         21   -1    0    0  501  502 -0.00000000000E+00 -0.00000000000E+00 -0.22886914086E+03  0.22886914086E+03  0.00000000000E+00 0. -1.
      99926    2    1    2    0    0  0.71054273576E-14  0.00000000000E+00 -0.47498951519E+01  0.45298838657E+03  0.45296348292E+03 0.  0.
      99925    2    3    3    0    0  0.54052309170E+02  0.97188487657E+02 -0.58882436565E+01  0.28560840510E+03  0.26300234864E+03 0.  0.
         25    1    3    3    0    0 -0.54052309170E+02 -0.97188487657E+02  0.11383485046E+01  0.16737998147E+03  0.12509000000E+03 0.  0.
         25    1    4    4    0    0  0.34316872933E+02  0.36731143279E+02 -0.41084162249E+02  0.14093346353E+03  0.12509000000E+03 0.  0.
         25    1    4    4    0    0  0.19735436237E+02  0.60457344377E+02  0.35195918592E+02  0.14467494157E+03  0.12509000000E+03 0.  0.
<mgrwt>
<rscale>  2 0.45296348E+03</rscale>
<asrwt>0</asrwt>
<pdfrwt beam="1">  1       21 0.32958713E-01 0.45296348E+03</pdfrwt>
<pdfrwt beam="2">  1       21 0.33657227E-01 0.45296348E+03</pdfrwt>
<totfact> 0.69821076E+04</totfact>
</mgrwt>
</event>
<event>
 7    0  0.4712189E-002  0.4599481E+03  0.7546771E-02  0.1024796E+00
         21   -1    0    0  502  501  0.00000000000E+00  0.00000000000E+00  0.22885512469E+03  0.22885512469E+03  0.00000000000E+00 0. -1.
         21   -1    0    0  501  502 -0.00000000000E+00 -0.00000000000E+00 -0.23109840368E+03  0.23109840368E+03  0.00000000000E+00 0. -1.
      99926    2    1    2    0    0  0.00000000000E+00  0.00000000000E+00 -0.22432789841E+01  0.45995352837E+03  0.45994805789E+03 0.  0.
      99925    2    3    3    0    0  0.51746784622E+02 -0.10462302240E+03 -0.15078440873E+02  0.28838442854E+03  0.26327649479E+03 0.  0.
         25    1    4    4    0    0  0.34371427726E+02 -0.83101130325E+02 -0.36923501387E+02  0.15842362816E+03  0.12509000000E+03 0.  0.
         25    1    4    4    0    0  0.17375356896E+02 -0.21521892076E+02  0.21845060514E+02  0.12996080038E+03  0.12509000000E+03 0.  0.
         25    1    3    3    0    0 -0.51746784622E+02  0.10462302240E+03  0.12835161889E+02  0.17156909983E+03  0.12509000000E+03 0.  0.
<mgrwt>
<rscale>  2 0.45994806E+03</rscale>
<asrwt>0</asrwt>
<pdfrwt beam="1">  1       21 0.33655165E-01 0.45994806E+03</pdfrwt>
<pdfrwt beam="2">  1       21 0.33985059E-01 0.45994806E+03</pdfrwt>
<totfact> 0.65557688E+04</totfact>
</mgrwt>
</event>
<event>
 7    0  0.4712189E-002  0.4482169E+03  0.7546771E-02  0.1028255E+00
         21   -1    0    0  502  501  0.00000000000E+00  0.00000000000E+00  0.21933322436E+03  0.21933322436E+03  0.00000000000E+00 0. -1.
         21   -1    0    0  501  502 -0.00000000000E+00 -0.00000000000E+00 -0.22898759568E+03  0.22898759568E+03  0.00000000000E+00 0. -1.
      99926    2    1    2    0    0  0.00000000000E+00  0.00000000000E+00 -0.96543713208E+01  0.44832082004E+03  0.44821685689E+03 0.  0.
      99925    2    3    3    0    0  0.48975829363E+02  0.50463951099E+02 -0.86661353582E+02  0.28546252078E+03  0.26274211376E+03 0.  0.
         25    1    4    4    0    0  0.36535162193E+02  0.57531228369E+02 -0.22720519017E+02  0.14425113656E+03  0.12509000000E+03 0.  0.
         25    1    3    3    0    0 -0.48975829363E+02 -0.50463951099E+02  0.77006982261E+02  0.16285829926E+03  0.12509000000E+03 0.  0.
         25    1    4    4    0    0  0.12440667170E+02 -0.70672772702E+01 -0.63940834565E+02  0.14121138422E+03  0.12509000000E+03 0.  0.
<mgrwt>
<rscale>  2 0.44821686E+03</rscale>
<asrwt>0</asrwt>
<pdfrwt beam="1">  1       21 0.32254886E-01 0.44821686E+03</pdfrwt>
<pdfrwt beam="2">  1       21 0.33674646E-01 0.44821686E+03</pdfrwt>
<totfact> 0.72904485E+04</totfact>
</mgrwt>
</event>
<event>
 7    0  0.4712189E-002  0.4541477E+03  0.7546771E-02  0.1026492E+00
         21   -1    0    0  502  501  0.00000000000E+00  0.00000000000E+00  0.98589712369E+02  0.98589712369E+02  0.00000000000E+00 0. -1.
         21   -1    0    0  501  502 -0.00000000000E+00 -0.00000000000E+00 -0.52300121156E+03  0.52300121156E+03  0.00000000000E+00 0. -1.
      99926    2    1    2    0    0 -0.88817841970E-15  0.00000000000E+00 -0.42441149919E+03  0.62159092392E+03  0.45414772493E+03 0.  0.
      99925    2    3    3    0    0 -0.60866831322E+01  0.11220473310E+03 -0.26596607838E+03  0.39055108035E+03  0.26299285480E+03 0.  0.
         25    1    4    4    0    0 -0.95194144575E+01  0.36061254371E+02 -0.17427075871E+03  0.21773570851E+03  0.12509000000E+03 0.  0.
         25    1    4    4    0    0  0.34327313253E+01  0.76143478727E+02 -0.91695319663E+02  0.17281537184E+03  0.12509000000E+03 0.  0.
         25    1    3    3    0    0  0.60866831322E+01 -0.11220473310E+03 -0.15844542081E+03  0.23103984357E+03  0.12509000000E+03 0.  0.
<mgrwt>
<rscale>  2 0.45414772E+03</rscale>
<asrwt>0</asrwt>
<pdfrwt beam="1">  1       21 0.14498487E-01 0.45414772E+03</pdfrwt>
<pdfrwt beam="2">  1       21 0.76911944E-01 0.45414772E+03</pdfrwt>
<totfact> 0.57756289E+04</totfact>
</mgrwt>
</event>
<event>
 7    0  0.4712189E-002  0.4629366E+03  0.7546771E-02  0.1023933E+00
         21   -1    0    0  502  501  0.00000000000E+00  0.00000000000E+00  0.20445707807E+03  0.20445707807E+03  0.00000000000E+00 0.  1.
         21   -1    0    0  501  502 -0.00000000000E+00 -0.00000000000E+00 -0.26204799290E+03  0.26204799290E+03  0.00000000000E+00 0.  1.
      99926    2    1    2    0    0  0.00000000000E+00 -0.71054273576E-14 -0.57590914832E+02  0.46650507098E+03  0.46293656993E+03 0.  0.
      99925    2    3    3    0    0 -0.22388023220E+02  0.63797010794E+02  0.64518566521E+02  0.27907637598E+03  0.26296329789E+03 0.  0.
         25    1    4    4    0    0 -0.54170256974E+01  0.15439802070E+02  0.69055746478E+02  0.14381910818E+03  0.12509000000E+03 0.  0.
         25    1    3    3    0    0  0.22388023220E+02 -0.63797010794E+02 -0.12210948135E+03  0.18742869499E+03  0.12509000000E+03 0.  0.
         25    1    4    4    0    0 -0.16970997523E+02  0.48357208724E+02 -0.45371799569E+01  0.13525726781E+03  0.12509000000E+03 0.  0.
<mgrwt>
<rscale>  2 0.46293657E+03</rscale>
<asrwt>0</asrwt>
<pdfrwt beam="1">  1       21 0.30067218E-01 0.46293657E+03</pdfrwt>
<pdfrwt beam="2">  1       21 0.38536469E-01 0.46293657E+03</pdfrwt>
<totfact> 0.63588016E+04</totfact>
</mgrwt>
</event>
<event>
 7    0  0.4712189E-002  0.4455529E+03  0.7546771E-02  0.1029057E+00
         21   -1    0    0  502  501  0.00000000000E+00  0.00000000000E+00  0.21765753128E+03  0.21765753128E+03  0.00000000000E+00 0.  1.
         21   -1    0    0  501  502 -0.00000000000E+00 -0.00000000000E+00 -0.22801573426E+03  0.22801573426E+03  0.00000000000E+00 0.  1.
      99926    2    1    2    0    0  0.00000000000E+00  0.00000000000E+00 -0.10358202984E+02  0.44567326554E+03  0.44555287818E+03 0.  0.
      99925    2    3    3    0    0 -0.20514297865E+02  0.29553646946E+02  0.90654688203E+02  0.28091475514E+03  0.26343988441E+03 0.  0.
         25    1    4    4    0    0 -0.32486936053E+02  0.24039827970E+02  0.81782013115E+02  0.15481963736E+03  0.12509000000E+03 0.  0.
         25    1    4    4    0    0  0.11972638188E+02  0.55138189760E+01  0.88726750876E+01  0.12609511778E+03  0.12509000000E+03 0.  0.
         25    1    3    3    0    0  0.20514297865E+02 -0.29553646946E+02 -0.10101289119E+03  0.16475851040E+03  0.12509000000E+03 0.  0.
<mgrwt>
<rscale>  2 0.44555288E+03</rscale>
<asrwt>0</asrwt>
<pdfrwt beam="1">  1       21 0.32008460E-01 0.44555288E+03</pdfrwt>
<pdfrwt beam="2">  1       21 0.33531726E-01 0.44555288E+03</pdfrwt>
<totfact> 0.74709140E+04</totfact>
</mgrwt>
</event>
<event>
 7    0  0.4712189E-002  0.4611541E+03  0.7546771E-02  0.1024447E+00
         21   -1    0    0  502  501  0.00000000000E+00  0.00000000000E+00  0.49549377352E+02  0.49549377352E+02  0.00000000000E+00 0.  1.
         21   -1    0    0  501  502 -0.00000000000E+00 -0.00000000000E+00 -0.10729859698E+04  0.10729859698E+04  0.00000000000E+00 0.  1.
      99926    2    1    2    0    0  0.00000000000E+00  0.00000000000E+00 -0.10234365924E+04  0.11225353472E+04  0.46115414651E+03 0.  0.
      99925    2    3    3    0    0  0.50030159940E+02  0.39605526800E+02 -0.39577669182E+03  0.47935879782E+03  0.26281942965E+03 0.  0.
         25    1    3    3    0    0 -0.50030159940E+02 -0.39605526800E+02 -0.62765990063E+03  0.64317654934E+03  0.12509000000E+03 0.  0.
         25    1    4    4    0    0  0.15983946747E+02 -0.19041846907E+02 -0.17080766623E+03  0.21316858453E+03  0.12509000000E+03 0.  0.
         25    1    4    4    0    0  0.34046213192E+02  0.58647373706E+02 -0.22496902558E+03  0.26619021328E+03  0.12509000000E+03 0.  0.
<mgrwt>
<rscale>  2 0.46115415E+03</rscale>
<asrwt>0</asrwt>
<pdfrwt beam="1">  1       21 0.72866737E-02 0.46115415E+03</pdfrwt>
<pdfrwt beam="2">  1       21 0.15779204E+00 0.46115415E+03</pdfrwt>
<totfact> 0.33096078E+04</totfact>
</mgrwt>
</event>
<event>
 7    0  0.4712189E-002  0.4580696E+03  0.7546771E-02  0.1025343E+00
         21   -1    0    0  502  501  0.00000000000E+00  0.00000000000E+00  0.92192676625E+03  0.92192676625E+03  0.00000000000E+00 0.  1.
         21   -1    0    0  501  502 -0.00000000000E+00 -0.00000000000E+00 -0.56899238788E+02  0.56899238788E+02  0.00000000000E+00 0.  1.
      99926    2    1    2    0    0  0.00000000000E+00 -0.17763568394E-14  0.86502752746E+03  0.97882600503E+03  0.45806956335E+03 0.  0.
      99925    2    3    3    0    0  0.97141782332E+02  0.14695538445E+02  0.41083087814E+03  0.49758325020E+03  0.26297261402E+03 0.  0.
         25    1    4    4    0    0  0.28395725995E+02  0.31877774894E+02  0.15137500574E+03  0.20095872773E+03  0.12509000000E+03 0.  0.
         25    1    3    3    0    0 -0.97141782332E+02 -0.14695538445E+02  0.45419664932E+03  0.48124275483E+03  0.12509000000E+03 0.  0.
         25    1    4    4    0    0  0.68746056337E+02 -0.17182236449E+02  0.25945587240E+03  0.29662452248E+03  0.12509000000E+03 0.  0.
<mgrwt>
<rscale>  2 0.45806956E+03</rscale>
<asrwt>0</asrwt>
<pdfrwt beam="1">  1       21 0.13557746E+00 0.45806956E+03</pdfrwt>
<pdfrwt beam="2">  1       21 0.83675357E-02 0.45806956E+03</pdfrwt>
<totfact> 0.39049522E+04</totfact>
</mgrwt>
</event>
<event>
 7    0  0.4712189E-002  0.4005497E+03  0.7546771E-02  0.1043589E+00
         21   -1    0    0  502  501  0.00000000000E+00  0.00000000000E+00  0.41237186252E+03  0.41237186252E+03  0.00000000000E+00 0.  1.
         21   -1    0    0  501  502 -0.00000000000E+00 -0.00000000000E+00 -0.97266622206E+02  0.97266622206E+02  0.00000000000E+00 0.  1.
      99926    2    1    2    0    0  0.71054273576E-14  0.00000000000E+00  0.31510524031E+03  0.50963848472E+03  0.40054971307E+03 0.  0.
      99925    2    3    3    0    0 -0.37688984698E+02 -0.98058307949E+01  0.24182171582E+03  0.35952320586E+03  0.26317784753E+03 0.  0.
         25    1    3    3    0    0  0.37688984698E+02  0.98058307949E+01  0.73283524495E+02  0.15011527886E+03  0.12509000000E+03 0.  0.
         25    1    4    4    0    0 -0.39237719969E+02 -0.25283235064E+02  0.16362186523E+03  0.21118348308E+03  0.12509000000E+03 0.  0.
         25    1    4    4    0    0  0.15487352713E+01  0.15477404269E+02  0.78199850582E+02  0.14833972278E+03  0.12509000000E+03 0.  0.
<mgrwt>
<rscale>  2 0.40054971E+03</rscale>
<asrwt>0</asrwt>
<pdfrwt beam="1">  1       21 0.60642920E-01 0.40054971E+03</pdfrwt>
<pdfrwt beam="2">  1       21 0.14303915E-01 0.40054971E+03</pdfrwt>
<totfact> 0.10198264E+05</totfact>
</mgrwt>
</event>
<event>
 7    0  0.4712189E-002  0.4541124E+03  0.7546771E-02  0.1026503E+00
         21   -1    0    0  502  501  0.00000000000E+00  0.00000000000E+00  0.11310618004E+03  0.11310618004E+03  0.00000000000E+00 0. -1.
         21   -1    0    0  501  502 -0.00000000000E+00 -0.00000000000E+00 -0.45580642156E+03  0.45580642156E+03  0.00000000000E+00 0. -1.
      99926    2    1    2    0    0  0.00000000000E+00  0.00000000000E+00 -0.34270024152E+03  0.56891260160E+03  0.45411242299E+03 0.  0.
      99925    2    3    3    0    0 -0.31422322413E+02  0.72309649323E+02 -0.31604707635E+03  0.41866631364E+03  0.26302030336E+03 0.  0.
         25    1    3    3    0    0  0.31422322413E+02 -0.72309649323E+02 -0.26653165173E+02  0.15024628796E+03  0.12509000000E+03 0.  0.
         25    1    4    4    0    0 -0.24905791565E+02  0.73392814241E+02 -0.19667061169E+03  0.24562907246E+03  0.12509000000E+03 0.  0.
         25    1    4    4    0    0 -0.65165308477E+01 -0.10831649188E+01 -0.11937646466E+03  0.17303724118E+03  0.12509000000E+03 0.  0.
<mgrwt>
<rscale>  2 0.45411242E+03</rscale>
<asrwt>0</asrwt>
<pdfrwt beam="1">  1       21 0.16633261E-01 0.45411242E+03</pdfrwt>
<pdfrwt beam="2">  1       21 0.67030358E-01 0.45411242E+03</pdfrwt>
<totfact> 0.61061241E+04</totfact>
</mgrwt>
</event>
<event>
 7    0  0.4712189E-002  0.4519501E+03  0.7546771E-02  0.1027142E+00
         21   -1    0    0  502  501  0.00000000000E+00  0.00000000000E+00  0.62867459774E+03  0.62867459774E+03  0.00000000000E+00 0. -1.
         21   -1    0    0  501  502 -0.00000000000E+00 -0.00000000000E+00 -0.81225991186E+02  0.81225991186E+02  0.00000000000E+00 0. -1.
      99926    2    1    2    0    0 -0.71054273576E-14 -0.14210854715E-13  0.54744860655E+03  0.70990058892E+03  0.45195007395E+03 0.  0.
      99925    2    3    3    0    0 -0.49964260365E+02 -0.74533635117E+02  0.24467676030E+03  0.37023900873E+03  0.26298006859E+03 0.  0.
         25    1    4    4    0    0 -0.39762855177E+02 -0.76705294440E+02  0.14277817535E+03  0.20856150725E+03  0.12509000000E+03 0.  0.
         25    1    4    4    0    0 -0.10201405188E+02  0.21716593236E+01  0.10189858494E+03  0.16167750148E+03  0.12509000000E+03 0.  0.
         25    1    3    3    0    0  0.49964260365E+02  0.74533635117E+02  0.30277184626E+03  0.33966158020E+03  0.12509000000E+03 0.  0.
<mgrwt>
<rscale>  2 0.45195007E+03</rscale>
<asrwt>0</asrwt>
<pdfrwt beam="1">  1       21 0.92452144E-01 0.45195007E+03</pdfrwt>
<pdfrwt beam="2">  1       21 0.11944999E-01 0.45195007E+03</pdfrwt>
<totfact> 0.53644418E+04</totfact>
</mgrwt>
</event>
<event>
 7    0  0.4712189E-002  0.4677156E+03  0.7546771E-02  0.1022567E+00
         21   -1    0    0  502  501  0.00000000000E+00  0.00000000000E+00  0.38499878764E+03  0.38499878764E+03  0.00000000000E+00 0.  1.
         21   -1    0    0  501  502 -0.00000000000E+00 -0.00000000000E+00 -0.14205104487E+03  0.14205104487E+03  0.00000000000E+00 0.  1.
      99926    2    1    2    0    0  0.00000000000E+00  0.00000000000E+00  0.24294774277E+03  0.52704983251E+03  0.46771564035E+03 0.  0.
      99925    2    3    3    0    0  0.94317384694E+02  0.61531641743E+02  0.21151459534E+03  0.35582640290E+03  0.26304389932E+03 0.  0.
         25    1    3    3    0    0 -0.94317384694E+02 -0.61531641743E+02  0.31433147437E+02  0.17122342961E+03  0.12509000000E+03 0.  0.
         25    1    4    4    0    0  0.33871838131E+02  0.45399863111E+00  0.12998440163E+03  0.18355097466E+03  0.12509000000E+03 0.  0.
         25    1    4    4    0    0  0.60445546563E+02  0.61077643111E+02  0.81530193708E+02  0.17227542823E+03  0.12509000000E+03 0.  0.
<mgrwt>
<rscale>  2 0.46771564E+03</rscale>
<asrwt>0</asrwt>
<pdfrwt beam="1">  1       21 0.56617469E-01 0.46771564E+03</pdfrwt>
<pdfrwt beam="2">  1       21 0.20889860E-01 0.46771564E+03</pdfrwt>
<totfact> 0.57396682E+04</totfact>
</mgrwt>
</event>
<event>
 7    0  0.4712189E-002  0.4495557E+03  0.7546771E-02  0.1027855E+00
         21   -1    0    0  502  501  0.00000000000E+00  0.00000000000E+00  0.14424612311E+03  0.14424612311E+03  0.00000000000E+00 0. -1.
         21   -1    0    0  501  502 -0.00000000000E+00 -0.00000000000E+00 -0.35027001805E+03  0.35027001805E+03  0.00000000000E+00 0. -1.
      99926    2    1    2    0    0  0.00000000000E+00  0.14210854715E-13 -0.20602389494E+03  0.49451614116E+03  0.44955574579E+03 0.  0.
      99925    2    3    3    0    0  0.27737643212E+02 -0.10429768321E+03 -0.13535027063E+03  0.31482292245E+03  0.26295701772E+03 0.  0.
         25    1    4    4    0    0  0.43611538503E+02 -0.31280567054E+02 -0.85881395528E+02  0.16094583674E+03  0.12509000000E+03 0.  0.
         25    1    4    4    0    0 -0.15873895291E+02 -0.73017116158E+02 -0.49468875103E+02  0.15387708571E+03  0.12509000000E+03 0.  0.
         25    1    3    3    0    0 -0.27737643212E+02  0.10429768321E+03 -0.70673624312E+02  0.17969321870E+03  0.12509000000E+03 0.  0.
<mgrwt>
<rscale>  2 0.44955575E+03</rscale>
<asrwt>0</asrwt>
<pdfrwt beam="1">  1       21 0.21212666E-01 0.44955575E+03</pdfrwt>
<pdfrwt beam="2">  1       21 0.51510296E-01 0.44955575E+03</pdfrwt>
<totfact> 0.68573713E+04</totfact>
</mgrwt>
</event>
<event>
 7    0  0.4712189E-002  0.4620085E+03  0.7546771E-02  0.1024200E+00
         21   -1    0    0  502  501  0.00000000000E+00  0.00000000000E+00  0.62754148417E+02  0.62754148417E+02  0.00000000000E+00 0.  1.
         21   -1    0    0  501  502 -0.00000000000E+00 -0.00000000000E+00 -0.85034972128E+03  0.85034972128E+03  0.00000000000E+00 0.  1.
      99926    2    1    2    0    0  0.71054273576E-14  0.00000000000E+00 -0.78759557286E+03  0.91310386970E+03  0.46200853938E+03 0.  0.
      99925    2    3    3    0    0  0.38679792946E+02 -0.10408118515E+03 -0.58052283192E+03  0.64691662803E+03  0.26299305268E+03 0.  0.
         25    1    4    4    0    0 -0.98152090031E+00 -0.88649300135E+02 -0.30794514599E+03  0.34400200993E+03  0.12509000000E+03 0.  0.
         25    1    4    4    0    0  0.39661313847E+02 -0.15431885015E+02 -0.27257768593E+03  0.30291461809E+03  0.12509000000E+03 0.  0.
         25    1    3    3    0    0 -0.38679792946E+02  0.10408118515E+03 -0.20707274094E+03  0.26618724167E+03  0.12509000000E+03 0.  0.
<mgrwt>
<rscale>  2 0.46200854E+03</rscale>
<asrwt>0</asrwt>
<pdfrwt beam="1">  1       21 0.92285515E-02 0.46200854E+03</pdfrwt>
<pdfrwt beam="2">  1       21 0.12505143E+00 0.46200854E+03</pdfrwt>
<totfact> 0.40409013E+04</totfact>
</mgrwt>
</event>
<event>
 7    0  0.4712189E-002  0.4567727E+03  0.7546771E-02  0.1025721E+00
         21   -1    0    0  502  501  0.00000000000E+00  0.00000000000E+00  0.45845419094E+03  0.45845419094E+03  0.00000000000E+00 0. -1.
         21   -1    0    0  501  502 -0.00000000000E+00 -0.00000000000E+00 -0.11377433491E+03  0.11377433491E+03  0.00000000000E+00 0. -1.
      99926    2    1    2    0    0  0.00000000000E+00  0.00000000000E+00  0.34467985603E+03  0.57222852585E+03  0.45677268158E+03 0.  0.
      99925    2    3    3    0    0  0.25954848645E+02 -0.38566729506E+02  0.34809376712E+03  0.43873616771E+03  0.26298119201E+03 0.  0.
         25    1    4    4    0    0  0.37582637262E+02 -0.44021644317E+02  0.21707230934E+03  0.25713470278E+03  0.12509000000E+03 0.  0.
         25    1    4    4    0    0 -0.11627788617E+02  0.54549148111E+01  0.13102145778E+03  0.18160146493E+03  0.12509000000E+03 0.  0.
         25    1    3    3    0    0 -0.25954848645E+02  0.38566729506E+02 -0.34139110937E+01  0.13349235814E+03  0.12509000000E+03 0.  0.
<mgrwt>
<rscale>  2 0.45677268E+03</rscale>
<asrwt>0</asrwt>
<pdfrwt beam="1">  1       21 0.67419733E-01 0.45677268E+03</pdfrwt>
<pdfrwt beam="2">  1       21 0.16731520E-01 0.45677268E+03</pdfrwt>
<totfact> 0.59581515E+04</totfact>
</mgrwt>
</event>
<event>
 7    0  0.4712189E-002  0.4559000E+03  0.7546771E-02  0.1025977E+00
         21   -1    0    0  502  501  0.00000000000E+00  0.00000000000E+00  0.22608106907E+03  0.22608106907E+03  0.00000000000E+00 0. -1.
         21   -1    0    0  501  502 -0.00000000000E+00 -0.00000000000E+00 -0.22983438793E+03  0.22983438793E+03  0.00000000000E+00 0. -1.
      99926    2    1    2    0    0  0.00000000000E+00  0.00000000000E+00 -0.37533188666E+01  0.45591545700E+03  0.45590000716E+03 0.  0.
      99925    2    3    3    0    0 -0.59167251434E+02 -0.63829378513E+02 -0.75940669626E+02  0.28729317225E+03  0.26305023915E+03 0.  0.
         25    1    3    3    0    0  0.59167251434E+02  0.63829378513E+02  0.72187350759E+02  0.16862228475E+03  0.12509000000E+03 0.  0.
         25    1    4    4    0    0 -0.13464203741E+01 -0.49977913327E+02 -0.13559929172E+02  0.13539196596E+03  0.12509000000E+03 0.  0.
         25    1    4    4    0    0 -0.57820831060E+02 -0.13851465186E+02 -0.62380740454E+02  0.15190120629E+03  0.12509000000E+03 0.  0.
<mgrwt>
<rscale>  2 0.45590001E+03</rscale>
<asrwt>0</asrwt>
<pdfrwt beam="1">  1       21 0.33247216E-01 0.45590001E+03</pdfrwt>
<pdfrwt beam="2">  1       21 0.33799175E-01 0.45590001E+03</pdfrwt>
<totfact> 0.67989225E+04</totfact>
</mgrwt>
</event>
<event>
 7    0  0.4712189E-002  0.4319756E+03  0.7546771E-02  0.1033238E+00
         21   -1    0    0  502  501  0.00000000000E+00  0.00000000000E+00  0.22463028084E+04  0.22463028084E+04  0.00000000000E+00 0.  1.
         21   -1    0    0  501  502 -0.00000000000E+00 -0.00000000000E+00 -0.20767781474E+02  0.20767781474E+02  0.00000000000E+00 0.  1.
      99926    2    1    2    0    0  0.35527136788E-14  0.00000000000E+00  0.22255350269E+04  0.22670705898E+04  0.43197558194E+03 0.  0.
      99925    2    3    3    0    0  0.10287663082E+02 -0.88675119969E+02  0.14817458586E+04  0.15075714471E+04  0.26311929918E+03 0.  0.
         25    1    4    4    0    0 -0.27679023451E+02 -0.35428115594E+02  0.84297878919E+03  0.85339441458E+03  0.12509000000E+03 0.  0.
         25    1    4    4    0    0  0.37966686534E+02 -0.53247004375E+02  0.63876706940E+03  0.65417703247E+03  0.12509000000E+03 0.  0.
         25    1    3    3    0    0 -0.10287663082E+02  0.88675119969E+02  0.74378916831E+03  0.75949914280E+03  0.12509000000E+03 0.  0.
<mgrwt>
<rscale>  2 0.43197558E+03</rscale>
<asrwt>0</asrwt>
<pdfrwt beam="1">  1       21 0.33033848E+00 0.43197558E+03</pdfrwt>
<pdfrwt beam="2">  1       21 0.30540871E-02 0.43197558E+03</pdfrwt>
<totfact> 0.11791203E+04</totfact>
</mgrwt>
</event>
<event>
 7    0  0.4712189E-002  0.4046216E+03  0.7546771E-02  0.1042191E+00
         21   -1    0    0  502  501  0.00000000000E+00  0.00000000000E+00  0.71736253363E+02  0.71736253363E+02  0.00000000000E+00 0.  1.
         21   -1    0    0  501  502 -0.00000000000E+00 -0.00000000000E+00 -0.57055759658E+03  0.57055759658E+03  0.00000000000E+00 0.  1.
      99926    2    1    2    0    0  0.17763568394E-14  0.00000000000E+00 -0.49882134322E+03  0.64229384995E+03  0.40462162229E+03 0.  0.
      99925    2    3    3    0    0 -0.11659355000E+02 -0.32938810805E+02 -0.26579065364E+03  0.37551357293E+03  0.26295411402E+03 0.  0.
         25    1    3    3    0    0  0.11659355000E+02  0.32938810805E+02 -0.23303068958E+03  0.26678027702E+03  0.12509000000E+03 0.  0.
         25    1    4    4    0    0 -0.34085599305E+02 -0.24591728317E+02 -0.17467114915E+03  0.21891573637E+03  0.12509000000E+03 0.  0.
         25    1    4    4    0    0  0.22426244305E+02 -0.83470824887E+01 -0.91119504481E+02  0.15659783656E+03  0.12509000000E+03 0.  0.
<mgrwt>
<rscale>  2 0.40462162E+03</rscale>
<asrwt>0</asrwt>
<pdfrwt beam="1">  1       21 0.10549449E-01 0.40462162E+03</pdfrwt>
<pdfrwt beam="2">  1       21 0.83905531E-01 0.40462162E+03</pdfrwt>
<totfact> 0.85314211E+04</totfact>
</mgrwt>
</event>
<event>
 7    0  0.4712189E-002  0.4558498E+03  0.7546771E-02  0.1025992E+00
         21   -1    0    0  502  501  0.00000000000E+00  0.00000000000E+00  0.21593564771E+04  0.21593564771E+04  0.00000000000E+00 0. -1.
         21   -1    0    0  501  502 -0.00000000000E+00 -0.00000000000E+00 -0.24057981843E+02  0.24057981843E+02  0.00000000000E+00 0. -1.
      99926    2    1    2    0    0  0.35527136788E-14  0.00000000000E+00  0.21352984953E+04  0.21834144590E+04  0.45584979508E+03 0.  0.
      99925    2    3    3    0    0  0.25914329104E+02 -0.91517960565E+02  0.10428738070E+04  0.10797449898E+04  0.26309005314E+03 0.  0.
         25    1    4    4    0    0 -0.81268619744E-01 -0.16842637447E+02  0.37497450688E+03  0.39564765884E+03  0.12509000000E+03 0.  0.
         25    1    3    3    0    0 -0.25914329104E+02  0.91517960565E+02  0.10924246883E+04  0.11036694692E+04  0.12509000000E+03 0.  0.
         25    1    4    4    0    0  0.25995597723E+02 -0.74675323118E+02  0.66789930014E+03  0.68409733095E+03  0.12509000000E+03 0.  0.
<mgrwt>
<rscale>  2 0.45584980E+03</rscale>
<asrwt>0</asrwt>
<pdfrwt beam="1">  1       21 0.31755229E+00 0.45584980E+03</pdfrwt>
<pdfrwt beam="2">  1       21 0.35379400E-02 0.45584980E+03</pdfrwt>
<totfact> 0.10867967E+04</totfact>
</mgrwt>
</event>
<event>
 7    0  0.4712189E-002  0.4493087E+03  0.7546771E-02  0.1027928E+00
         21   -1    0    0  502  501  0.00000000000E+00  0.00000000000E+00  0.18971459170E+03  0.18971459170E+03  0.00000000000E+00 0.  1.
         21   -1    0    0  501  502 -0.00000000000E+00 -0.00000000000E+00 -0.26602900997E+03  0.26602900997E+03  0.00000000000E+00 0.  1.
      99926    2    1    2    0    0 -0.71054273576E-14  0.00000000000E+00 -0.76314418267E+02  0.45574360167E+03  0.44930873576E+03 0.  0.
      99925    2    3    3    0    0 -0.42030292665E+02 -0.79010213067E+02 -0.10960189537E+03  0.29837548704E+03  0.26269030536E+03 0.  0.
         25    1    4    4    0    0 -0.51732623409E+02 -0.49954535366E+02 -0.84356078463E+02  0.16713819432E+03  0.12509000000E+03 0.  0.
         25    1    4    4    0    0  0.97023307442E+01 -0.29055677701E+02 -0.25245816905E+02  0.13123729272E+03  0.12509000000E+03 0.  0.
         25    1    3    3    0    0  0.42030292665E+02  0.79010213067E+02  0.33287477101E+02  0.15736811463E+03  0.12509000000E+03 0.  0.
<mgrwt>
<rscale>  2 0.44930874E+03</rscale>
<asrwt>0</asrwt>
<pdfrwt beam="1">  1       21 0.27899205E-01 0.44930874E+03</pdfrwt>
<pdfrwt beam="2">  1       21 0.39121913E-01 0.44930874E+03</pdfrwt>
<totfact> 0.71690583E+04</totfact>
</mgrwt>
</event>
<event>
 7    0  0.4712189E-002  0.4586852E+03  0.7546771E-02  0.1025163E+00
         21   -1    0    0  502  501  0.00000000000E+00  0.00000000000E+00  0.41312176047E+03  0.41312176047E+03  0.00000000000E+00 0.  1.
         21   -1    0    0  501  502 -0.00000000000E+00 -0.00000000000E+00 -0.12731844567E+03  0.12731844567E+03  0.00000000000E+00 0.  1.
      99926    2    1    2    0    0  0.00000000000E+00 -0.35527136788E-14  0.28580331480E+03  0.54044020615E+03  0.45868516617E+03 0.  0.
      99925    2    3    3    0    0  0.77067153333E+02  0.22872654762E+02  0.27877678164E+03  0.39157992022E+03  0.26297497119E+03 0.  0.
         25    1    4    4    0    0  0.74369536296E+02  0.29598243459E+02  0.16916274850E+03  0.22510092742E+03  0.12509000000E+03 0.  0.
         25    1    4    4    0    0  0.26976170372E+01 -0.67255886972E+01  0.10961403314E+03  0.16647899280E+03  0.12509000000E+03 0.  0.
         25    1    3    3    0    0 -0.77067153333E+02 -0.22872654762E+02  0.70265331573E+01  0.14886028593E+03  0.12509000000E+03 0.  0.
<mgrwt>
<rscale>  2 0.45868517E+03</rscale>
<asrwt>0</asrwt>
<pdfrwt beam="1">  1       21 0.60753200E-01 0.45868517E+03</pdfrwt>
<pdfrwt beam="2">  1       21 0.18723301E-01 0.45868517E+03</pdfrwt>
<totfact> 0.60712588E+04</totfact>
</mgrwt>
</event>
<event>
 7    0  0.4712189E-002  0.4730319E+03  0.7546771E-02  0.1021068E+00
         21   -1    0    0  502  501  0.00000000000E+00  0.00000000000E+00  0.77719421957E+03  0.77719421957E+03  0.00000000000E+00 0. -1.
         21   -1    0    0  501  502 -0.00000000000E+00 -0.00000000000E+00 -0.71976595227E+02  0.71976595227E+02  0.00000000000E+00 0. -1.
      99926    2    1    2    0    0  0.00000000000E+00  0.00000000000E+00  0.70521762435E+03  0.84917081480E+03  0.47303189641E+03 0.  0.
      99925    2    3    3    0    0 -0.10651773150E+03  0.73198071751E+02  0.43367390843E+03  0.52346008027E+03  0.26312242769E+03 0.  0.
         25    1    4    4    0    0 -0.74195640351E+02  0.75486510141E+02  0.24814585329E+03  0.29736690950E+03  0.12509000000E+03 0.  0.
         25    1    4    4    0    0 -0.32322091149E+02 -0.22884383902E+01  0.18552805514E+03  0.22609317077E+03  0.12509000000E+03 0.  0.
         25    1    3    3    0    0  0.10651773150E+03 -0.73198071751E+02  0.27154371592E+03  0.32571073453E+03  0.12509000000E+03 0.  0.
<mgrwt>
<rscale>  2 0.47303190E+03</rscale>
<asrwt>0</asrwt>
<pdfrwt beam="1">  1       21 0.11429326E+00 0.47303190E+03</pdfrwt>
<pdfrwt beam="2">  1       21 0.10584794E-01 0.47303190E+03</pdfrwt>
<totfact> 0.39574179E+04</totfact>
</mgrwt>
</event>
<event>
 7    0  0.4712189E-002  0.4531829E+03  0.7546771E-02  0.1026777E+00
         21   -1    0    0  502  501  0.00000000000E+00  0.00000000000E+00  0.52842811674E+03  0.52842811674E+03  0.00000000000E+00 0.  1.
         21   -1    0    0  501  502 -0.00000000000E+00 -0.00000000000E+00 -0.97163034024E+02  0.97163034024E+02  0.00000000000E+00 0.  1.
      99926    2    1    2    0    0  0.00000000000E+00  0.00000000000E+00  0.43126508272E+03  0.62559115077E+03  0.45318287296E+03 0.  0.
      99925    2    3    3    0    0 -0.75977798636E+02 -0.54633502293E+02  0.18847285216E+03  0.33688191853E+03  0.26307786979E+03 0.  0.
         25    1    4    4    0    0 -0.68150322136E+02 -0.58082697377E+02  0.10511896322E+03  0.18632114928E+03  0.12509000000E+03 0.  0.
         25    1    4    4    0    0 -0.78274764996E+01  0.34491950838E+01  0.83353888944E+02  0.15056076925E+03  0.12509000000E+03 0.  0.
         25    1    3    3    0    0  0.75977798636E+02  0.54633502293E+02  0.24279223056E+03  0.28870923223E+03  0.12509000000E+03 0.  0.
<mgrwt>
<rscale>  2 0.45318287E+03</rscale>
<asrwt>0</asrwt>
<pdfrwt beam="1">  1       21 0.77710016E-01 0.45318287E+03</pdfrwt>
<pdfrwt beam="2">  1       21 0.14288682E-01 0.45318287E+03</pdfrwt>
<totfact> 0.57957086E+04</totfact>
</mgrwt>
</event>
<event>
 7    0  0.4712189E-002  0.4598340E+03  0.7546771E-02  0.1024829E+00
         21   -1    0    0  502  501  0.00000000000E+00  0.00000000000E+00  0.19309374632E+03  0.19309374632E+03  0.00000000000E+00 0.  1.
         21   -1    0    0  501  502 -0.00000000000E+00 -0.00000000000E+00 -0.27376251640E+03  0.27376251640E+03  0.00000000000E+00 0.  1.
      99926    2    1    2    0    0  0.00000000000E+00  0.00000000000E+00 -0.80668770077E+02  0.46685626272E+03  0.45983401306E+03 0.  0.
      99925    2    3    3    0    0 -0.41826910203E+02 -0.42594456057E+02  0.52538673463E+02  0.27461810517E+03  0.26285169463E+03 0.  0.
         25    1    4    4    0    0 -0.29245725180E+02 -0.19267149685E+02  0.66603946995E+02  0.14597989366E+03  0.12509000000E+03 0.  0.
         25    1    4    4    0    0 -0.12581185023E+02 -0.23327306373E+02 -0.14065273532E+02  0.12863821150E+03  0.12509000000E+03 0.  0.
         25    1    3    3    0    0  0.41826910203E+02  0.42594456057E+02 -0.13320744354E+03  0.19223815755E+03  0.12509000000E+03 0.  0.
<mgrwt>
<rscale>  2 0.45983401E+03</rscale>
<asrwt>0</asrwt>
<pdfrwt beam="1">  1       21 0.28396139E-01 0.45983401E+03</pdfrwt>
<pdfrwt beam="2">  1       21 0.40259193E-01 0.45983401E+03</pdfrwt>
<totfact> 0.65133438E+04</totfact>
</mgrwt>
</event>
<event>
 7    0  0.4712189E-002  0.4572599E+03  0.7546771E-02  0.1025579E+00
         21   -1    0    0  502  501  0.00000000000E+00  0.00000000000E+00  0.40839149439E+03  0.40839149439E+03  0.00000000000E+00 0. -1.
         21   -1    0    0  501  502 -0.00000000000E+00 -0.00000000000E+00 -0.12799395732E+03  0.12799395732E+03  0.00000000000E+00 0. -1.
      99926    2    1    2    0    0 -0.11102230246E-15 -0.71054273576E-14  0.28039753707E+03  0.53638545170E+03  0.45725985392E+03 0.  0.
      99925    2    3    3    0    0 -0.63555126668E+00 -0.45914288319E+02  0.30007647059E+03  0.40168840526E+03  0.26305733390E+03 0.  0.
         25    1    3    3    0    0  0.63555126668E+00  0.45914288319E+02 -0.19678933523E+02  0.13469704645E+03  0.12509000000E+03 0.  0.
         25    1    4    4    0    0  0.82657905116E+00 -0.29860730044E+01  0.19965555032E+03  0.23562564958E+03  0.12509000000E+03 0.  0.
         25    1    4    4    0    0 -0.14621303178E+01 -0.42928215314E+02  0.10042092027E+03  0.16606275568E+03  0.12509000000E+03 0.  0.
<mgrwt>
<rscale>  2 0.45725985E+03</rscale>
<asrwt>0</asrwt>
<pdfrwt beam="1">  1       21 0.60057573E-01 0.45725985E+03</pdfrwt>
<pdfrwt beam="2">  1       21 0.18822641E-01 0.45725985E+03</pdfrwt>
<totfact> 0.61664451E+04</totfact>
</mgrwt>
</event>
<event>
 7    0  0.4712189E-002  0.4517162E+03  0.7546771E-02  0.1027211E+00
         21   -1    0    0  502  501  0.00000000000E+00  0.00000000000E+00  0.41449769625E+02  0.41449769625E+02  0.00000000000E+00 0. -1.
         21   -1    0    0  501  502 -0.00000000000E+00 -0.00000000000E+00 -0.12306917078E+04  0.12306917078E+04  0.00000000000E+00 0. -1.
      99926    2    1    2    0    0  0.00000000000E+00  0.00000000000E+00 -0.11892419382E+04  0.12721414775E+04  0.45171622849E+03 0.  0.
      99925    2    3    3    0    0  0.75638086267E+02  0.79061025466E+02 -0.77984914022E+03  0.83030243778E+03  0.26318375869E+03 0.  0.
         25    1    4    4    0    0  0.60755057222E+01  0.48726580513E+02 -0.30183631494E+03  0.33039954681E+03  0.12509000000E+03 0.  0.
         25    1    4    4    0    0  0.69562580545E+02  0.30334444953E+02 -0.47801282528E+03  0.49990289097E+03  0.12509000000E+03 0.  0.
         25    1    3    3    0    0 -0.75638086267E+02 -0.79061025466E+02 -0.40939279800E+03  0.44183903969E+03  0.12509000000E+03 0.  0.
<mgrwt>
<rscale>  2 0.45171623E+03</rscale>
<asrwt>0</asrwt>
<pdfrwt beam="1">  1       21 0.60955548E-02 0.45171623E+03</pdfrwt>
<pdfrwt beam="2">  1       21 0.18098406E+00 0.45171623E+03</pdfrwt>
<totfact> 0.30711903E+04</totfact>
</mgrwt>
</event>
<event>
 7    0  0.4712189E-002  0.4433525E+03  0.7546771E-02  0.1029723E+00
         21   -1    0    0  502  501  0.00000000000E+00  0.00000000000E+00  0.16271380750E+03  0.16271380750E+03  0.00000000000E+00 0. -1.
         21   -1    0    0  501  502 -0.00000000000E+00 -0.00000000000E+00 -0.30200478997E+03  0.30200478997E+03  0.00000000000E+00 0. -1.
      99926    2    1    2    0    0  0.00000000000E+00  0.00000000000E+00 -0.13929098247E+03  0.46471859746E+03  0.44335245238E+03 0.  0.
      99925    2    3    3    0    0  0.62436720941E+02 -0.34327116585E+02 -0.16491878290E+03  0.31849620755E+03  0.26299227026E+03 0.  0.
         25    1    3    3    0    0 -0.62436720941E+02  0.34327116585E+02  0.25627800431E+02  0.14622238991E+03  0.12509000000E+03 0.  0.
         25    1    4    4    0    0 -0.55480810730E+01 -0.22536650265E+02 -0.56758126181E+02  0.13931143096E+03  0.12509000000E+03 0.  0.
         25    1    4    4    0    0  0.67984802014E+02 -0.11790466320E+02 -0.10816065672E+03  0.17918477659E+03  0.12509000000E+03 0.  0.
<mgrwt>
<rscale>  2 0.44335245E+03</rscale>
<asrwt>0</asrwt>
<pdfrwt beam="1">  1       21 0.23928501E-01 0.44335245E+03</pdfrwt>
<pdfrwt beam="2">  1       21 0.44412469E-01 0.44335245E+03</pdfrwt>
<totfact> 0.74479127E+04</totfact>
</mgrwt>
</event>
<event>
 7    0  0.4712189E-002  0.4577194E+03  0.7546771E-02  0.1025445E+00
         21   -1    0    0  502  501  0.00000000000E+00  0.00000000000E+00  0.15544063685E+04  0.15544063685E+04  0.00000000000E+00 0. -1.
         21   -1    0    0  501  502 -0.00000000000E+00 -0.00000000000E+00 -0.33695675768E+02  0.33695675768E+02  0.00000000000E+00 0. -1.
      99926    2    1    2    0    0 -0.35527136788E-14  0.00000000000E+00  0.15207106927E+04  0.15881020442E+04  0.45771944684E+03 0.  0.
      99925    2    3    3    0    0 -0.29212328537E+02 -0.23447065254E+02  0.57502391228E+03  0.63344288004E+03  0.26304801383E+03 0.  0.
         25    1    4    4    0    0  0.10540489884E+02  0.20480002906E+02  0.26676024986E+03  0.29553184507E+03  0.12509000000E+03 0.  0.
         25    1    4    4    0    0 -0.39752818422E+02 -0.43927068159E+02  0.30826366241E+03  0.33791103497E+03  0.12509000000E+03 0.  0.
         25    1    3    3    0    0  0.29212328537E+02  0.23447065254E+02  0.94568678043E+03  0.95465916420E+03  0.12509000000E+03 0.  0.
<mgrwt>
<rscale>  2 0.45771945E+03</rscale>
<asrwt>0</asrwt>
<pdfrwt beam="1">  1       21 0.22858912E+00 0.45771945E+03</pdfrwt>
<pdfrwt beam="2">  1       21 0.49552475E-02 0.45771945E+03</pdfrwt>
<totfact> 0.21247736E+04</totfact>
</mgrwt>
</event>
<event>
 7    0  0.4712189E-002  0.4537793E+03  0.7546771E-02  0.1026601E+00
         21   -1    0    0  502  501  0.00000000000E+00  0.00000000000E+00  0.14033219896E+03  0.14033219896E+03  0.00000000000E+00 0.  1.
         21   -1    0    0  501  502 -0.00000000000E+00 -0.00000000000E+00 -0.36683601557E+03  0.36683601557E+03  0.00000000000E+00 0.  1.
      99926    2    1    2    0    0  0.00000000000E+00  0.00000000000E+00 -0.22650381661E+03  0.50716821453E+03  0.45377926230E+03 0.  0.
      99925    2    3    3    0    0 -0.91159470676E+02 -0.65126240557E+02 -0.14146412257E+03  0.31893768044E+03  0.26297845867E+03 0.  0.
         25    1    4    4    0    0 -0.38665880883E+02 -0.64315955896E+02 -0.10080457813E+03  0.17731515333E+03  0.12509000000E+03 0.  0.
         25    1    3    3    0    0  0.91159470676E+02  0.65126240557E+02 -0.85039694038E+02  0.18823053409E+03  0.12509000000E+03 0.  0.
         25    1    4    4    0    0 -0.52493589792E+02 -0.81028466092E+00 -0.40659544438E+02  0.14162252711E+03  0.12509000000E+03 0.  0.
<mgrwt>
<rscale>  2 0.45377926E+03</rscale>
<asrwt>0</asrwt>
<pdfrwt beam="1">  1       21 0.20637088E-01 0.45377926E+03</pdfrwt>
<pdfrwt beam="2">  1       21 0.53946473E-01 0.45377926E+03</pdfrwt>
<totfact> 0.65401309E+04</totfact>
</mgrwt>
</event>
<event>
 7    0  0.4712189E-002  0.4366720E+03  0.7546771E-02  0.1031773E+00
         21   -1    0    0  502  501  0.00000000000E+00  0.00000000000E+00  0.15476610862E+03  0.15476610862E+03  0.00000000000E+00 0. -1.
         21   -1    0    0  501  502 -0.00000000000E+00 -0.00000000000E+00 -0.30801708598E+03  0.30801708598E+03  0.00000000000E+00 0. -1.
      99926    2    1    2    0    0 -0.22204460493E-15  0.00000000000E+00 -0.15325097736E+03  0.46278319461E+03  0.43667198576E+03 0.  0.
      99925    2    3    3    0    0  0.69066672762E+00 -0.72022905844E+02 -0.16375554737E+03  0.31805714278E+03  0.26297659742E+03 0.  0.
         25    1    4    4    0    0 -0.13812189610E+02  0.24048672618E+01 -0.66063940772E+02  0.14215664718E+03  0.12509000000E+03 0.  0.
         25    1    3    3    0    0 -0.69066672762E+00  0.72022905844E+02  0.10504570002E+02  0.14472605183E+03  0.12509000000E+03 0.  0.
         25    1    4    4    0    0  0.14502856338E+02 -0.74427773105E+02 -0.97691606594E+02  0.17590049559E+03  0.12509000000E+03 0.  0.
<mgrwt>
<rscale>  2 0.43667199E+03</rscale>
<asrwt>0</asrwt>
<pdfrwt beam="1">  1       21 0.22759722E-01 0.43667199E+03</pdfrwt>
<pdfrwt beam="2">  1       21 0.45296630E-01 0.43667199E+03</pdfrwt>
<totfact> 0.78832372E+04</totfact>
</mgrwt>
</event>
<event>
 7    0  0.4712189E-002  0.4499347E+03  0.7546771E-02  0.1027742E+00
         21   -1    0    0  502  501  0.00000000000E+00  0.00000000000E+00  0.94893066793E+02  0.94893066793E+02  0.00000000000E+00 0.  1.
         21   -1    0    0  501  502 -0.00000000000E+00 -0.00000000000E+00 -0.53334039576E+03  0.53334039576E+03  0.00000000000E+00 0.  1.
      99926    2    1    2    0    0  0.00000000000E+00  0.00000000000E+00 -0.43844732897E+03  0.62823346255E+03  0.44993468770E+03 0.  0.
      99925    2    3    3    0    0 -0.56836001494E+02 -0.55643801564E+02 -0.17438599508E+03  0.32540932238E+03  0.26297183897E+03 0.  0.
         25    1    4    4    0    0 -0.34141807568E+02 -0.45335548100E+02 -0.47099280661E+02  0.14521303414E+03  0.12509000000E+03 0.  0.
         25    1    3    3    0    0  0.56836001494E+02  0.55643801564E+02 -0.26406133389E+03  0.30282414018E+03  0.12509000000E+03 0.  0.
         25    1    4    4    0    0 -0.22694193926E+02 -0.10308253464E+02 -0.12728671442E+03  0.18019628824E+03  0.12509000000E+03 0.  0.
<mgrwt>
<rscale>  2 0.44993469E+03</rscale>
<asrwt>0</asrwt>
<pdfrwt beam="1">  1       21 0.13954863E-01 0.44993469E+03</pdfrwt>
<pdfrwt beam="2">  1       21 0.78432411E-01 0.44993469E+03</pdfrwt>
<totfact> 0.59309472E+04</totfact>
</mgrwt>
</event>
<event>
 6    0  0.4712189E-002  0.4566506E+03  0.7546771E-02  0.1025757E+00
         21   -1    0    0  502  501  0.00000000000E+00  0.00000000000E+00  0.73806293426E+02  0.73806293426E+02  0.00000000000E+00 0.  1.
         21   -1    0    0  501  502 -0.00000000000E+00 -0.00000000000E+00 -0.70634132489E+03  0.70634132489E+03  0.00000000000E+00 0.  1.
      99926    2    1    2    0    0  0.00000000000E+00  0.35527136788E-14 -0.63253503146E+03  0.78014761831E+03  0.45665056699E+03 0.  0.
         25    1    3    3    0    0 -0.26282662602E+02  0.14063360899E+02 -0.42971922256E+03  0.44854729384E+03  0.12509000000E+03 0.  0.
         25    1    3    3    0    0  0.51779324304E+01 -0.41202791423E+02 -0.11524978312E+03  0.17508427004E+03  0.12509000000E+03 0.  0.
         25    1    3    3    0    0  0.21104730172E+02  0.27139430524E+02 -0.87566025779E+02  0.15651605443E+03  0.12509000000E+03 0.  0.
<mgrwt>
<rscale>  2 0.45665057E+03</rscale>
<asrwt>0</asrwt>
<pdfrwt beam="1">  1       21 0.10853866E-01 0.45665057E+03</pdfrwt>
<pdfrwt beam="2">  1       21 0.10387373E+00 0.45665057E+03</pdfrwt>
<totfact> 0.48113697E+04</totfact>
</mgrwt>
</event>
<event>
 7    0  0.4712189E-002  0.4004892E+03  0.7546771E-02  0.1043610E+00
         21   -1    0    0  502  501  0.00000000000E+00  0.00000000000E+00  0.63708572048E+02  0.63708572048E+02  0.00000000000E+00 0. -1.
         21   -1    0    0  501  502 -0.00000000000E+00 -0.00000000000E+00 -0.62939578683E+03  0.62939578683E+03  0.00000000000E+00 0. -1.
      99926    2    1    2    0    0 -0.71054273576E-14  0.17763568394E-14 -0.56568721478E+03  0.69310435888E+03  0.40048923497E+03 0.  0.
      99925    2    3    3    0    0  0.39060435273E+02  0.97770324173E+01 -0.33812716273E+03  0.43032613802E+03  0.26311461176E+03 0.  0.
         25    1    4    4    0    0  0.56777441844E+02  0.17772645962E+02 -0.19585502313E+03  0.23988798017E+03  0.12509000000E+03 0.  0.
         25    1    4    4    0    0 -0.17717006571E+02 -0.79956135446E+01 -0.14227213960E+03  0.19043815784E+03  0.12509000000E+03 0.  0.
         25    1    3    3    0    0 -0.39060435273E+02 -0.97770324173E+01 -0.22756005205E+03  0.26277822086E+03  0.12509000000E+03 0.  0.
<mgrwt>
<rscale>  2 0.40048923E+03</rscale>
<asrwt>0</asrwt>
<pdfrwt beam="1">  1       21 0.93689079E-02 0.40048923E+03</pdfrwt>
<pdfrwt beam="2">  1       21 0.92558202E-01 0.40048923E+03</pdfrwt>
<totfact> 0.83885952E+04</totfact>
</mgrwt>
</event>
<event>
 7    0  0.4712189E-002  0.4546583E+03  0.7546771E-02  0.1026342E+00
         21   -1    0    0  502  501  0.00000000000E+00  0.00000000000E+00  0.45366293315E+03  0.45366293315E+03  0.00000000000E+00 0.  1.
         21   -1    0    0  501  502 -0.00000000000E+00 -0.00000000000E+00 -0.11391394855E+03  0.11391394855E+03  0.00000000000E+00 0.  1.
      99926    2    1    2    0    0  0.14210854715E-13  0.00000000000E+00  0.33974898461E+03  0.56757688170E+03  0.45465827179E+03 0.  0.
      99925    2    3    3    0    0 -0.96593241316E+02  0.57063657735E+02  0.19948139772E+03  0.34869559120E+03  0.26307655157E+03 0.  0.
         25    1    4    4    0    0 -0.24738700176E+02  0.40571339203E+02  0.13414569489E+03  0.18947456929E+03  0.12509000000E+03 0.  0.
         25    1    4    4    0    0 -0.71854541140E+02  0.16492318532E+02  0.65335702835E+02  0.15922102191E+03  0.12509000000E+03 0.  0.
         25    1    3    3    0    0  0.96593241316E+02 -0.57063657735E+02  0.14026758688E+03  0.21888129050E+03  0.12509000000E+03 0.  0.
<mgrwt>
<rscale>  2 0.45465827E+03</rscale>
<asrwt>0</asrwt>
<pdfrwt beam="1">  1       21 0.66715137E-01 0.45465827E+03</pdfrwt>
<pdfrwt beam="2">  1       21 0.16752051E-01 0.45465827E+03</pdfrwt>
<totfact> 0.60884115E+04</totfact>
</mgrwt>
</event>
<event>
 7    0  0.4712189E-002  0.4091254E+03  0.7546771E-02  0.1040665E+00
         21   -1    0    0  502  501  0.00000000000E+00  0.00000000000E+00  0.26472120371E+02  0.26472120371E+02  0.00000000000E+00 0.  1.
         21   -1    0    0  501  502 -0.00000000000E+00 -0.00000000000E+00 -0.15807538211E+04  0.15807538211E+04  0.00000000000E+00 0.  1.
      99926    2    1    2    0    0  0.00000000000E+00  0.00000000000E+00 -0.15542817007E+04  0.16072259415E+04  0.40912543519E+03 0.  0.
      99925    2    3    3    0    0  0.32347533590E+02 -0.42716234585E+02 -0.92760245078E+03  0.96594173767E+03  0.26405699055E+03 0.  0.
         25    1    4    4    0    0  0.43079053049E+02 -0.20578502765E+02 -0.59171925756E+03  0.60667822398E+03  0.12509000000E+03 0.  0.
         25    1    3    3    0    0 -0.32347533590E+02  0.42716234585E+02 -0.62667924997E+03  0.64128420382E+03  0.12509000000E+03 0.  0.
         25    1    4    4    0    0 -0.10731519459E+02 -0.22137731820E+02 -0.33588319321E+03  0.35926351368E+03  0.12509000000E+03 0.  0.
<mgrwt>
<rscale>  2 0.40912544E+03</rscale>
<asrwt>0</asrwt>
<pdfrwt beam="1">  1       21 0.38929579E-02 0.40912544E+03</pdfrwt>
<pdfrwt beam="2">  1       21 0.23246386E+00 0.40912544E+03</pdfrwt>
<totfact> 0.30890448E+04</totfact>
</mgrwt>
</event>
<event>
 7    0  0.4712189E-002  0.4364582E+03  0.7546771E-02  0.1031839E+00
         21   -1    0    0  502  501  0.00000000000E+00  0.00000000000E+00  0.12472773576E+03  0.12472773576E+03  0.00000000000E+00 0.  1.
         21   -1    0    0  501  502 -0.00000000000E+00 -0.00000000000E+00 -0.38182324958E+03  0.38182324958E+03  0.00000000000E+00 0.  1.
      99926    2    1    2    0    0  0.00000000000E+00  0.00000000000E+00 -0.25709551382E+03  0.50655098534E+03  0.43645824258E+03 0.  0.
      99925    2    3    3    0    0  0.87521072712E+02  0.32671613241E+02 -0.14850881448E+03  0.31637750702E+03  0.26327264668E+03 0.  0.
         25    1    4    4    0    0  0.54762188666E+02  0.17713124391E+02 -0.12105658595E+03  0.18334354961E+03  0.12509000000E+03 0.  0.
         25    1    3    3    0    0 -0.87521072712E+02 -0.32671613241E+02 -0.10858669935E+03  0.19017347832E+03  0.12509000000E+03 0.  0.
         25    1    4    4    0    0  0.32758884046E+02  0.14958488850E+02 -0.27452228531E+02  0.13303395741E+03  0.12509000000E+03 0.  0.
<mgrwt>
<rscale>  2 0.43645824E+03</rscale>
<asrwt>0</asrwt>
<pdfrwt beam="1">  1       21 0.18342314E-01 0.43645824E+03</pdfrwt>
<pdfrwt beam="2">  1       21 0.56150478E-01 0.43645824E+03</pdfrwt>
<totfact> 0.75292763E+04</totfact>
</mgrwt>
</event>
<event>
 7    0  0.4712189E-002  0.4524227E+03  0.7546771E-02  0.1027002E+00
         21   -1    0    0  502  501  0.00000000000E+00  0.00000000000E+00  0.24580398920E+02  0.24580398920E+02  0.00000000000E+00 0.  1.
         21   -1    0    0  501  502 -0.00000000000E+00 -0.00000000000E+00 -0.20818045075E+04  0.20818045075E+04  0.00000000000E+00 0.  1.
      99926    2    1    2    0    0  0.00000000000E+00  0.00000000000E+00 -0.20572241086E+04  0.21063849064E+04  0.45242274598E+03 0.  0.
      99925    2    3    3    0    0  0.34577621824E+02  0.83426360599E+01 -0.17856596025E+04  0.18052869148E+04  0.26308823076E+03 0.  0.
         25    1    3    3    0    0 -0.34577621824E+02 -0.83426360599E+01 -0.27156450607E+03  0.30109799163E+03  0.12509000000E+03 0.  0.
         25    1    4    4    0    0 -0.15830233919E+02  0.25456227823E+02 -0.94271618752E+03  0.95145148807E+03  0.12509000000E+03 0.  0.
         25    1    4    4    0    0  0.50407855743E+02 -0.17113591763E+02 -0.84294341502E+03  0.85383542675E+03  0.12509000000E+03 0.  0.
<mgrwt>
<rscale>  2 0.45242275E+03</rscale>
<asrwt>0</asrwt>
<pdfrwt beam="1">  1       21 0.36147649E-02 0.45242275E+03</pdfrwt>
<pdfrwt beam="2">  1       21 0.30614769E+00 0.45242275E+03</pdfrwt>
<totfact> 0.12293658E+04</totfact>
</mgrwt>
</event>
<event>
 7    0  0.4712189E-002  0.4233750E+03  0.7546771E-02  0.1035973E+00
         21   -1    0    0  502  501  0.00000000000E+00  0.00000000000E+00  0.23608792924E+03  0.23608792924E+03  0.00000000000E+00 0.  1.
         21   -1    0    0  501  502 -0.00000000000E+00 -0.00000000000E+00 -0.18980895687E+03  0.18980895687E+03  0.00000000000E+00 0.  1.
      99926    2    1    2    0    0  0.00000000000E+00 -0.71054273576E-14  0.46278972375E+02  0.42589688611E+03  0.42337502798E+03 0.  0.
      99925    2    3    3    0    0 -0.63807739248E+02 -0.47462655542E+02  0.38287050515E+02  0.27745325986E+03  0.26304045680E+03 0.  0.
         25    1    4    4    0    0 -0.94162963950E+01 -0.55755740844E+02  0.81770109973E+01  0.13751996540E+03  0.12509000000E+03 0.  0.
         25    1    4    4    0    0 -0.54391442853E+02  0.82930853025E+01  0.30110039518E+02  0.13993329446E+03  0.12509000000E+03 0.  0.
         25    1    3    3    0    0  0.63807739248E+02  0.47462655542E+02  0.79919218593E+01  0.14844362625E+03  0.12509000000E+03 0.  0.
<mgrwt>
<rscale>  2 0.42337503E+03</rscale>
<asrwt>0</asrwt>
<pdfrwt beam="1">  1       21 0.34718813E-01 0.42337503E+03</pdfrwt>
<pdfrwt beam="2">  1       21 0.27913082E-01 0.42337503E+03</pdfrwt>
<totfact> 0.91799224E+04</totfact>
</mgrwt>
</event>
<event>
 7    0  0.4712189E-002  0.4533424E+03  0.7546771E-02  0.1026730E+00
         21   -1    0    0  502  501  0.00000000000E+00  0.00000000000E+00  0.87201677135E+02  0.87201677135E+02  0.00000000000E+00 0. -1.
         21   -1    0    0  501  502 -0.00000000000E+00 -0.00000000000E+00 -0.58920701209E+03  0.58920701209E+03  0.00000000000E+00 0. -1.
      99926    2    1    2    0    0  0.00000000000E+00  0.00000000000E+00 -0.50200533496E+03  0.67640868923E+03  0.45334242967E+03 0.  0.
      99925    2    3    3    0    0  0.64857188938E+02 -0.90730711564E+02 -0.32476060200E+03  0.43247894434E+03  0.26292598143E+03 0.  0.
         25    1    4    4    0    0  0.18931027408E+02 -0.19893404526E+02 -0.19583489249E+03  0.23399347119E+03  0.12509000000E+03 0.  0.
         25    1    4    4    0    0  0.45926161530E+02 -0.70837307038E+02 -0.12892570951E+03  0.19848547316E+03  0.12509000000E+03 0.  0.
         25    1    3    3    0    0 -0.64857188938E+02  0.90730711564E+02 -0.17724473296E+03  0.24392974489E+03  0.12509000000E+03 0.  0.
<mgrwt>
<rscale>  2 0.45334243E+03</rscale>
<asrwt>0</asrwt>
<pdfrwt beam="1">  1       21 0.12823776E-01 0.45334243E+03</pdfrwt>
<pdfrwt beam="2">  1       21 0.86648091E-01 0.45334243E+03</pdfrwt>
<totfact> 0.54916570E+04</totfact>
</mgrwt>
</event>
<event>
 7    0  0.4712189E-002  0.4380743E+03  0.7546771E-02  0.1031339E+00
         21   -1    0    0  502  501  0.00000000000E+00  0.00000000000E+00  0.33587660218E+03  0.33587660218E+03  0.00000000000E+00 0. -1.
         21   -1    0    0  501  502 -0.00000000000E+00 -0.00000000000E+00 -0.14284199234E+03  0.14284199234E+03  0.00000000000E+00 0. -1.
      99926    2    1    2    0    0  0.00000000000E+00  0.14210854715E-13  0.19303460984E+03  0.47871859452E+03  0.43807434546E+03 0.  0.
      99925    2    3    3    0    0 -0.60174039254E+02  0.67084373740E+02  0.85957349173E+02  0.29101064037E+03  0.26301577658E+03 0.  0.
         25    1    4    4    0    0 -0.43318852756E+02  0.69725281517E+02  0.28526340464E+02  0.15231348623E+03  0.12509000000E+03 0.  0.
         25    1    3    3    0    0  0.60174039254E+02 -0.67084373740E+02  0.10707726067E+03  0.18770795415E+03  0.12509000000E+03 0.  0.
         25    1    4    4    0    0 -0.16855186499E+02 -0.26409077767E+01  0.57431008709E+02  0.13869715414E+03  0.12509000000E+03 0.  0.
<mgrwt>
<rscale>  2 0.43807435E+03</rscale>
<asrwt>0</asrwt>
<pdfrwt beam="1">  1       21 0.49393618E-01 0.43807435E+03</pdfrwt>
<pdfrwt beam="2">  1       21 0.21006175E-01 0.43807435E+03</pdfrwt>
<totfact> 0.76576893E+04</totfact>
</mgrwt>
</event>
<event>
 7    0  0.4712189E-002  0.4466323E+03  0.7546771E-02  0.1028731E+00
         21   -1    0    0  502  501  0.00000000000E+00  0.00000000000E+00  0.55478766353E+03  0.55478766353E+03  0.00000000000E+00 0. -1.
         21   -1    0    0  501  502 -0.00000000000E+00 -0.00000000000E+00 -0.89890426022E+02  0.89890426022E+02  0.00000000000E+00 0. -1.
      99926    2    1    2    0    0  0.00000000000E+00  0.00000000000E+00  0.46489723751E+03  0.64467808955E+03  0.44663228467E+03 0.  0.
      99925    2    3    3    0    0 -0.11775969181E+02 -0.71925455520E+02  0.40402852729E+03  0.48762888521E+03  0.26311771932E+03 0.  0.
         25    1    4    4    0    0  0.10991557990E+02 -0.74180851489E+02  0.21830997439E+03  0.26254593140E+03  0.12509000000E+03 0.  0.
         25    1    3    3    0    0  0.11775969181E+02  0.71925455520E+02  0.60868710217E+02  0.15704920434E+03  0.12509000000E+03 0.  0.
         25    1    4    4    0    0 -0.22767527170E+02  0.22553959692E+01  0.18571855290E+03  0.22508295381E+03  0.12509000000E+03 0.  0.
<mgrwt>
<rscale>  2 0.44663228E+03</rscale>
<asrwt>0</asrwt>
<pdfrwt beam="1">  1       21 0.81586420E-01 0.44663228E+03</pdfrwt>
<pdfrwt beam="2">  1       21 0.13219181E-01 0.44663228E+03</pdfrwt>
<totfact> 0.59864539E+04</totfact>
</mgrwt>
</event>
<event>
 7    0  0.4712189E-002  0.4379215E+03  0.7546771E-02  0.1031386E+00
         21   -1    0    0  502  501  0.00000000000E+00  0.00000000000E+00  0.26993142196E+03  0.26993142196E+03  0.00000000000E+00 0. -1.
         21   -1    0    0  501  502 -0.00000000000E+00 -0.00000000000E+00 -0.17761481230E+03  0.17761481230E+03  0.00000000000E+00 0. -1.
      99926    2    1    2    0    0  0.35527136788E-14  0.14210854715E-13  0.92316609660E+02  0.44754623426E+03  0.43792154021E+03 0.  0.
      99925    2    3    3    0    0  0.21560020632E+02  0.91591185049E+02  0.38300547033E+02  0.28195933022E+03  0.26302158148E+03 0.  0.
         25    1    3    3    0    0 -0.21560020632E+02 -0.91591185049E+02  0.54016062628E+02  0.16558690404E+03  0.12509000000E+03 0.  0.
         25    1    4    4    0    0  0.43665648916E+02  0.69010298998E+02  0.32059531796E+02  0.15278884757E+03  0.12509000000E+03 0.  0.
         25    1    4    4    0    0 -0.22105628284E+02  0.22580886051E+02  0.62410152373E+01  0.12917048265E+03  0.12509000000E+03 0.  0.
<mgrwt>
<rscale>  2 0.43792154E+03</rscale>
<asrwt>0</asrwt>
<pdfrwt beam="1">  1       21 0.39695798E-01 0.43792154E+03</pdfrwt>
<pdfrwt beam="2">  1       21 0.26119825E-01 0.43792154E+03</pdfrwt>
<totfact> 0.79360525E+04</totfact>
</mgrwt>
</event>
<event>
 7    0  0.4712189E-002  0.4504013E+03  0.7546771E-02  0.1027602E+00
         21   -1    0    0  502  501  0.00000000000E+00  0.00000000000E+00  0.95232406274E+02  0.95232406274E+02  0.00000000000E+00 0.  1.
         21   -1    0    0  501  502 -0.00000000000E+00 -0.00000000000E+00 -0.53254290803E+03  0.53254290803E+03  0.00000000000E+00 0.  1.
      99926    2    1    2    0    0  0.00000000000E+00  0.00000000000E+00 -0.43731050176E+03  0.62777531431E+03  0.45040134359E+03 0.  0.
      99925    2    3    3    0    0 -0.78126273006E+02 -0.73736974132E+02 -0.25250709974E+03  0.38010484497E+03  0.26301901425E+03 0.  0.
         25    1    3    3    0    0  0.78126273006E+02  0.73736974132E+02 -0.18480340202E+03  0.24767046934E+03  0.12509000000E+03 0.  0.
         25    1    4    4    0    0 -0.20488923519E+02 -0.54099735326E+02 -0.16811685229E+03  0.21738758353E+03  0.12509000000E+03 0.  0.
         25    1    4    4    0    0 -0.57637349487E+02 -0.19637238806E+02 -0.84390247458E+02  0.16271726144E+03  0.12509000000E+03 0.  0.
<mgrwt>
<rscale>  2 0.45040134E+03</rscale>
<asrwt>0</asrwt>
<pdfrwt beam="1">  1       21 0.14004766E-01 0.45040134E+03</pdfrwt>
<pdfrwt beam="2">  1       21 0.78315133E-01 0.45040134E+03</pdfrwt>
<totfact> 0.59117497E+04</totfact>
</mgrwt>
</event>
<event>
 7    0  0.4712189E-002  0.4517750E+03  0.7546771E-02  0.1027194E+00
         21   -1    0    0  502  501  0.00000000000E+00  0.00000000000E+00  0.25366008454E+03  0.25366008454E+03  0.00000000000E+00 0. -1.
         21   -1    0    0  501  502 -0.00000000000E+00 -0.00000000000E+00 -0.20115570619E+03  0.20115570619E+03  0.00000000000E+00 0. -1.
      99926    2    1    2    0    0  0.00000000000E+00  0.00000000000E+00  0.52504378348E+02  0.45481579073E+03  0.45177504773E+03 0.  0.
      99925    2    3    3    0    0  0.74550964190E+02 -0.46867126564E+02  0.99677579128E+02  0.29473083583E+03  0.26301382472E+03 0.  0.
         25    1    4    4    0    0  0.21252628254E+02 -0.30010879941E+02  0.87831316738E+02  0.15720742801E+03  0.12509000000E+03 0.  0.
         25    1    3    3    0    0 -0.74550964190E+02  0.46867126564E+02 -0.47173200780E+02  0.16008495490E+03  0.12509000000E+03 0.  0.
         25    1    4    4    0    0  0.53298335935E+02 -0.16856246623E+02  0.11846262390E+02  0.13752340781E+03  0.12509000000E+03 0.  0.
<mgrwt>
<rscale>  2 0.45177505E+03</rscale>
<asrwt>0</asrwt>
<pdfrwt beam="1">  1       21 0.37302954E-01 0.45177505E+03</pdfrwt>
<pdfrwt beam="2">  1       21 0.29581722E-01 0.45177505E+03</pdfrwt>
<totfact> 0.70352006E+04</totfact>
</mgrwt>
</event>
<event>
 7    0  0.4712189E-002  0.4348046E+03  0.7546771E-02  0.1032353E+00
         21   -1    0    0  502  501  0.00000000000E+00  0.00000000000E+00  0.33884326703E+04  0.33884326703E+04  0.00000000000E+00 0.  1.
         21   -1    0    0  501  502 -0.00000000000E+00 -0.00000000000E+00 -0.13948563441E+02  0.13948563441E+02  0.00000000000E+00 0.  1.
      99926    2    1    2    0    0  0.71054273576E-14  0.00000000000E+00  0.33744841069E+04  0.34023812338E+04  0.43480463690E+03 0.  0.
      99925    2    3    3    0    0  0.34011377135E+02 -0.50984662399E+02  0.16179056773E+04  0.16402883029E+04  0.26300328224E+03 0.  0.
         25    1    4    4    0    0 -0.74870925290E+01 -0.53451789538E+02  0.72259436275E+03  0.73532528281E+03  0.12509000000E+03 0.  0.
         25    1    3    3    0    0 -0.34011377135E+02  0.50984662399E+02  0.17565784295E+04  0.17620929308E+04  0.12509000000E+03 0.  0.
         25    1    4    4    0    0  0.41498469664E+02  0.24671271393E+01  0.89531131458E+03  0.90496302014E+03  0.12509000000E+03 0.  0.
<mgrwt>
<rscale>  2 0.43480464E+03</rscale>
<asrwt>0</asrwt>
<pdfrwt beam="1">  1       21 0.49829835E+00 0.43480464E+03</pdfrwt>
<pdfrwt beam="2">  1       21 0.20512617E-02 0.43480464E+03</pdfrwt>
<totfact> 0.18298295E+03</totfact>
</mgrwt>
</event>
<event>
 7    0  0.4712189E-002  0.4452858E+03  0.7546771E-02  0.1029137E+00
         21   -1    0    0  502  501  0.00000000000E+00  0.00000000000E+00  0.45063634282E+03  0.45063634282E+03  0.00000000000E+00 0. -1.
         21   -1    0    0  501  502 -0.00000000000E+00 -0.00000000000E+00 -0.10999968050E+03  0.10999968050E+03  0.00000000000E+00 0. -1.
      99926    2    1    2    0    0  0.88817841970E-15  0.00000000000E+00  0.34063666232E+03  0.56063602333E+03  0.44528576772E+03 0.  0.
      99925    2    3    3    0    0 -0.66205249292E+01  0.65164119407E+02  0.31772080280E+03  0.41758764505E+03  0.26295006933E+03 0.  0.
         25    1    3    3    0    0  0.66205249292E+01 -0.65164119407E+02  0.22915859525E+02  0.14304837827E+03  0.12509000000E+03 0.  0.
         25    1    4    4    0    0 -0.38116108573E+02  0.45744545000E+02  0.18887108123E+03  0.23423320549E+03  0.12509000000E+03 0.  0.
         25    1    4    4    0    0  0.31495583643E+02  0.19419574407E+02  0.12884972157E+03  0.18335443956E+03  0.12509000000E+03 0.  0.
<mgrwt>
<rscale>  2 0.44528577E+03</rscale>
<asrwt>0</asrwt>
<pdfrwt beam="1">  1       21 0.66270050E-01 0.44528577E+03</pdfrwt>
<pdfrwt beam="2">  1       21 0.16176424E-01 0.44528577E+03</pdfrwt>
<totfact> 0.66103689E+04</totfact>
</mgrwt>
</event>
<event>
 7    0  0.4712189E-002  0.4561734E+03  0.7546771E-02  0.1025897E+00
         21   -1    0    0  502  501  0.00000000000E+00  0.00000000000E+00  0.77427755860E+03  0.77427755860E+03  0.00000000000E+00 0. -1.
         21   -1    0    0  501  502 -0.00000000000E+00 -0.00000000000E+00 -0.67189773827E+02  0.67189773827E+02  0.00000000000E+00 0. -1.
      99926    2    1    2    0    0  0.71054273576E-14  0.00000000000E+00  0.70708778477E+03  0.84146733242E+03  0.45617336196E+03 0.  0.
      99925    2    3    3    0    0  0.40840213760E+02  0.88169480315E+02  0.55504468076E+03  0.62190778721E+03  0.26315949124E+03 0.  0.
         25    1    3    3    0    0 -0.40840213760E+02 -0.88169480315E+02  0.15204310401E+03  0.21955954522E+03  0.12509000000E+03 0.  0.
         25    1    4    4    0    0 -0.14688122340E+02  0.29850447295E+02  0.29836316185E+03  0.32523049456E+03  0.12509000000E+03 0.  0.
         25    1    4    4    0    0  0.55528336100E+02  0.58319033020E+02  0.25668151891E+03  0.29667729264E+03  0.12509000000E+03 0.  0.
<mgrwt>
<rscale>  2 0.45617336E+03</rscale>
<asrwt>0</asrwt>
<pdfrwt beam="1">  1       21 0.11386434E+00 0.45617336E+03</pdfrwt>
<pdfrwt beam="2">  1       21 0.98808495E-02 0.45617336E+03</pdfrwt>
<totfact> 0.45404114E+04</totfact>
</mgrwt>
</event>
<event>
 7    0  0.4712189E-002  0.4571683E+03  0.7546771E-02  0.1025606E+00
         21   -1    0    0  502  501  0.00000000000E+00  0.00000000000E+00  0.83200163410E+03  0.83200163410E+03  0.00000000000E+00 0. -1.
         21   -1    0    0  501  502 -0.00000000000E+00 -0.00000000000E+00 -0.62801226269E+02  0.62801226269E+02  0.00000000000E+00 0. -1.
      99926    2    1    2    0    0  0.00000000000E+00  0.00000000000E+00  0.76920040783E+03  0.89480286037E+03  0.45716834046E+03 0.  0.
      99925    2    3    3    0    0  0.32000741553E+02 -0.10823693281E+03  0.52998781704E+03  0.60221192958E+03  0.26274101476E+03 0.  0.
         25    1    3    3    0    0 -0.32000741553E+02  0.10823693281E+03  0.23921259079E+03  0.29259093078E+03  0.12509000000E+03 0.  0.
         25    1    4    4    0    0  0.13926363121E+02 -0.36617084812E+02  0.32958082980E+03  0.35469111346E+03  0.12509000000E+03 0.  0.
         25    1    4    4    0    0  0.18074378432E+02 -0.71619848003E+02  0.20040698723E+03  0.24752081612E+03  0.12509000000E+03 0.  0.
<mgrwt>
<rscale>  2 0.45716834E+03</rscale>
<asrwt>0</asrwt>
<pdfrwt beam="1">  1       21 0.12235317E+00 0.45716834E+03</pdfrwt>
<pdfrwt beam="2">  1       21 0.92354750E-02 0.45716834E+03</pdfrwt>
<totfact> 0.42729054E+04</totfact>
</mgrwt>
</event>
<event>
 7    0  0.4712189E-002  0.4544573E+03  0.7546771E-02  0.1026401E+00
         21   -1    0    0  502  501  0.00000000000E+00  0.00000000000E+00  0.14805353063E+03  0.14805353063E+03  0.00000000000E+00 0.  1.
         21   -1    0    0  501  502 -0.00000000000E+00 -0.00000000000E+00 -0.34874452304E+03  0.34874452304E+03  0.00000000000E+00 0.  1.
      99926    2    1    2    0    0  0.17763568394E-14  0.00000000000E+00 -0.20069099241E+03  0.49679805367E+03  0.45445729359E+03 0.  0.
      99925    2    3    3    0    0  0.15075959625E+02 -0.87625906233E+02 -0.20198959996E+03  0.34332239278E+03  0.26299217268E+03 0.  0.
         25    1    4    4    0    0 -0.30645627778E+02 -0.46006266603E+02 -0.83268411622E+02  0.16011516962E+03  0.12509000000E+03 0.  0.
         25    1    4    4    0    0  0.45721587402E+02 -0.41619639630E+02 -0.11872118834E+03  0.18320722316E+03  0.12509000000E+03 0.  0.
         25    1    3    3    0    0 -0.15075959625E+02  0.87625906233E+02  0.12986075575E+01  0.15347566088E+03  0.12509000000E+03 0.  0.
<mgrwt>
<rscale>  2 0.45445729E+03</rscale>
<asrwt>0</asrwt>
<pdfrwt beam="1">  1       21 0.21772578E-01 0.45445729E+03</pdfrwt>
<pdfrwt beam="2">  1       21 0.51285959E-01 0.45445729E+03</pdfrwt>
<totfact> 0.65779128E+04</totfact>
</mgrwt>
</event>
<event>
 7    0  0.4712189E-002  0.4564856E+03  0.7546771E-02  0.1025805E+00
         21   -1    0    0  502  501  0.00000000000E+00  0.00000000000E+00  0.92118953849E+02  0.92118953849E+02  0.00000000000E+00 0.  1.
         21   -1    0    0  501  502 -0.00000000000E+00 -0.00000000000E+00 -0.56551643969E+03  0.56551643969E+03  0.00000000000E+00 0.  1.
      99926    2    1    2    0    0  0.00000000000E+00  0.00000000000E+00 -0.47339748584E+03  0.65763539354E+03  0.45648563092E+03 0.  0.
      99925    2    3    3    0    0  0.87041932473E+02 -0.74504803996E+02 -0.29928253782E+03  0.41454942716E+03  0.26297134119E+03 0.  0.
         25    1    4    4    0    0  0.47294281524E+02 -0.20830306439E+02 -0.19981448821E+03  0.24133791358E+03  0.12509000000E+03 0.  0.
         25    1    4    4    0    0  0.39747650948E+02 -0.53674497557E+02 -0.99468049615E+02  0.17321151358E+03  0.12509000000E+03 0.  0.
         25    1    3    3    0    0 -0.87041932473E+02  0.74504803996E+02 -0.17411494802E+03  0.24308596638E+03  0.12509000000E+03 0.  0.
<mgrwt>
<rscale>  2 0.45648563E+03</rscale>
<asrwt>0</asrwt>
<pdfrwt beam="1">  1       21 0.13546905E-01 0.45648563E+03</pdfrwt>
<pdfrwt beam="2">  1       21 0.83164183E-01 0.45648563E+03</pdfrwt>
<totfact> 0.54620832E+04</totfact>
</mgrwt>
</event>
<event>
 7    0  0.4712189E-002  0.4565735E+03  0.7546771E-02  0.1025780E+00
         21   -1    0    0  502  501  0.00000000000E+00  0.00000000000E+00  0.15612476685E+04  0.15612476685E+04  0.00000000000E+00 0. -1.
         21   -1    0    0  501  502 -0.00000000000E+00 -0.00000000000E+00 -0.33380257165E+02  0.33380257165E+02  0.00000000000E+00 0. -1.
      99926    2    1    2    0    0  0.00000000000E+00  0.00000000000E+00  0.15278674114E+04  0.15946279257E+04  0.45657353701E+03 0.  0.
      99925    2    3    3    0    0 -0.77284529688E+02  0.64968075153E+02  0.77067086483E+03  0.82055566324E+03  0.26302901980E+03 0.  0.
         25    1    4    4    0    0 -0.46546190428E+02  0.61366233591E+02  0.32558523453E+03  0.35719128700E+03  0.12509000000E+03 0.  0.
         25    1    3    3    0    0  0.77284529688E+02 -0.64968075153E+02  0.75719654655E+03  0.77407226247E+03  0.12509000000E+03 0.  0.
         25    1    4    4    0    0 -0.30738339260E+02  0.36018415621E+01  0.44508563031E+03  0.46336437624E+03  0.12509000000E+03 0.  0.
<mgrwt>
<rscale>  2 0.45657354E+03</rscale>
<asrwt>0</asrwt>
<pdfrwt beam="1">  1       21 0.22959520E+00 0.45657354E+03</pdfrwt>
<pdfrwt beam="2">  1       21 0.49088624E-02 0.45657354E+03</pdfrwt>
<totfact> 0.21290130E+04</totfact>
</mgrwt>
</event>
<event>
 7    0  0.4712189E-002  0.4546198E+03  0.7546771E-02  0.1026353E+00
         21   -1    0    0  502  501  0.00000000000E+00  0.00000000000E+00  0.87368724938E+02  0.87368724938E+02  0.00000000000E+00 0.  1.
         21   -1    0    0  501  502 -0.00000000000E+00 -0.00000000000E+00 -0.59139921061E+03  0.59139921061E+03  0.00000000000E+00 0.  1.
      99926    2    1    2    0    0  0.00000000000E+00  0.35527136788E-14 -0.50403048567E+03  0.67876793555E+03  0.45461981901E+03 0.  0.
      99925    2    3    3    0    0  0.69084042679E+02  0.15579793421E+02 -0.44836389324E+03  0.52461991406E+03  0.26302193549E+03 0.  0.
         25    1    3    3    0    0 -0.69084042679E+02 -0.15579793421E+02 -0.55666592428E+02  0.15414802149E+03  0.12509000000E+03 0.  0.
         25    1    4    4    0    0  0.18566613247E+01 -0.18109752660E+02 -0.20425749381E+03  0.24020833085E+03  0.12509000000E+03 0.  0.
         25    1    4    4    0    0  0.67227381354E+02  0.33689546080E+02 -0.24410639944E+03  0.28441158321E+03  0.12509000000E+03 0.  0.
<mgrwt>
<rscale>  2 0.45461982E+03</rscale>
<asrwt>0</asrwt>
<pdfrwt beam="1">  1       21 0.12848341E-01 0.45461982E+03</pdfrwt>
<pdfrwt beam="2">  1       21 0.86970477E-01 0.45461982E+03</pdfrwt>
<totfact> 0.54233608E+04</totfact>
</mgrwt>
</event>
<event>
 7    0  0.4712189E-002  0.4526175E+03  0.7546771E-02  0.1026944E+00
         21   -1    0    0  502  501  0.00000000000E+00  0.00000000000E+00  0.13108200978E+03  0.13108200978E+03  0.00000000000E+00 0.  1.
         21   -1    0    0  501  502 -0.00000000000E+00 -0.00000000000E+00 -0.39071456681E+03  0.39071456681E+03  0.00000000000E+00 0.  1.
      99926    2    1    2    0    0 -0.14210854715E-13  0.00000000000E+00 -0.25963255703E+03  0.52179657660E+03  0.45261750152E+03 0.  0.
      99925    2    3    3    0    0 -0.95250006159E+02 -0.53363562357E+02 -0.14137162283E+03  0.31795008995E+03  0.26303248943E+03 0.  0.
         25    1    3    3    0    0  0.95250006159E+02  0.53363562357E+02 -0.11826093420E+03  0.20384648665E+03  0.12509000000E+03 0.  0.
         25    1    4    4    0    0 -0.73898209302E+02 -0.52017912243E+02 -0.10236857951E+03  0.18518542789E+03  0.12509000000E+03 0.  0.
         25    1    4    4    0    0 -0.21351796857E+02 -0.13456501138E+01 -0.39003043321E+02  0.13276466206E+03  0.12509000000E+03 0.  0.
<mgrwt>
<rscale>  2 0.45261750E+03</rscale>
<asrwt>0</asrwt>
<pdfrwt beam="1">  1       21 0.19276766E-01 0.45261750E+03</pdfrwt>
<pdfrwt beam="2">  1       21 0.57458024E-01 0.45261750E+03</pdfrwt>
<totfact> 0.64983974E+04</totfact>
</mgrwt>
</event>
<event>
 7    0  0.4712189E-002  0.4546262E+03  0.7546771E-02  0.1026351E+00
         21   -1    0    0  502  501  0.00000000000E+00  0.00000000000E+00  0.21989761689E+04  0.21989761689E+04  0.00000000000E+00 0. -1.
         21   -1    0    0  501  502 -0.00000000000E+00 -0.00000000000E+00 -0.23497861916E+02  0.23497861916E+02  0.00000000000E+00 0. -1.
      99926    2    1    2    0    0  0.00000000000E+00  0.00000000000E+00  0.21754783069E+04  0.22224740308E+04  0.45462616895E+03 0.  0.
      99925    2    3    3    0    0 -0.50068976647E+02 -0.67068769483E+02  0.17388587878E+04  0.17606415559E+04  0.26310393793E+03 0.  0.
         25    1    4    4    0    0 -0.41480557220E+02 -0.38928459324E+02  0.65980736742E+03  0.67396537876E+03  0.12509000000E+03 0.  0.
         25    1    4    4    0    0 -0.85884194271E+01 -0.28140310159E+02  0.10790514204E+04  0.10866761771E+04  0.12509000000E+03 0.  0.
         25    1    3    3    0    0  0.50068976647E+02  0.67068769483E+02  0.43661951913E+03  0.46183247488E+03  0.12509000000E+03 0.  0.
<mgrwt>
<rscale>  2 0.45462617E+03</rscale>
<asrwt>0</asrwt>
<pdfrwt beam="1">  1       21 0.32337871E+00 0.45462617E+03</pdfrwt>
<pdfrwt beam="2">  1       21 0.34555694E-02 0.45462617E+03</pdfrwt>
<totfact> 0.10436088E+04</totfact>
</mgrwt>
</event>
<event>
 7    0  0.4712189E-002  0.4531564E+03  0.7546771E-02  0.1026785E+00
         21   -1    0    0  502  501  0.00000000000E+00  0.00000000000E+00  0.34520511600E+02  0.34520511600E+02  0.00000000000E+00 0.  1.
         21   -1    0    0  501  502 -0.00000000000E+00 -0.00000000000E+00 -0.14871644216E+04  0.14871644216E+04  0.00000000000E+00 0.  1.
      99926    2    1    2    0    0  0.35527136788E-14  0.00000000000E+00 -0.14526439100E+04  0.15216849332E+04  0.45315638214E+03 0.  0.
      99925    2    3    3    0    0  0.18662647700E+02  0.10310481053E+03 -0.78517705957E+03  0.83456165395E+03  0.26269991052E+03 0.  0.
         25    1    4    4    0    0 -0.98625040978E+01  0.82078883901E+02 -0.36078235668E+03  0.39069889833E+03  0.12509000000E+03 0.  0.
         25    1    4    4    0    0  0.28525151798E+02  0.21025926625E+02 -0.42439470289E+03  0.44386275561E+03  0.12509000000E+03 0.  0.
         25    1    3    3    0    0 -0.18662647700E+02 -0.10310481053E+03 -0.66746685046E+03  0.68712327929E+03  0.12509000000E+03 0.  0.
<mgrwt>
<rscale>  2 0.45315638E+03</rscale>
<asrwt>0</asrwt>
<pdfrwt beam="1">  1       21 0.50765444E-02 0.45315638E+03</pdfrwt>
<pdfrwt beam="2">  1       21 0.21870071E+00 0.45315638E+03</pdfrwt>
<totfact> 0.23588580E+04</totfact>
</mgrwt>
</event>
<event>
 7    0  0.4712189E-002  0.4547657E+03  0.7546771E-02  0.1026310E+00
         21   -1    0    0  502  501  0.00000000000E+00  0.00000000000E+00  0.91052625353E+02  0.91052625353E+02  0.00000000000E+00 0.  1.
         21   -1    0    0  501  502 -0.00000000000E+00 -0.00000000000E+00 -0.56783596373E+03  0.56783596373E+03  0.00000000000E+00 0.  1.
      99926    2    1    2    0    0 -0.14210854715E-13  0.00000000000E+00 -0.47678333838E+03  0.65888858908E+03  0.45476567710E+03 0.  0.
      99925    2    3    3    0    0 -0.10190079499E+03  0.24067866127E+02 -0.24230544393E+03  0.37324821154E+03  0.26389252558E+03 0.  0.
         25    1    4    4    0    0 -0.39399092606E+02  0.50086284963E+02 -0.13809089154E+03  0.19692010275E+03  0.12509000000E+03 0.  0.
         25    1    4    4    0    0 -0.62501702385E+02 -0.26018418836E+02 -0.10421455238E+03  0.17632810878E+03  0.12509000000E+03 0.  0.
         25    1    3    3    0    0  0.10190079499E+03 -0.24067866127E+02 -0.23447789445E+03  0.28564037755E+03  0.12509000000E+03 0.  0.
<mgrwt>
<rscale>  2 0.45476568E+03</rscale>
<asrwt>0</asrwt>
<pdfrwt beam="1">  1       21 0.13390092E-01 0.45476568E+03</pdfrwt>
<pdfrwt beam="2">  1       21 0.83505289E-01 0.45476568E+03</pdfrwt>
<totfact> 0.55294108E+04</totfact>
</mgrwt>
</event>
<event>
 7    0  0.4712189E-002  0.4578157E+03  0.7546771E-02  0.1025417E+00
         21   -1    0    0  502  501  0.00000000000E+00  0.00000000000E+00  0.10763443214E+03  0.10763443214E+03  0.00000000000E+00 0. -1.
         21   -1    0    0  501  502 -0.00000000000E+00 -0.00000000000E+00 -0.48682200271E+03  0.48682200271E+03  0.00000000000E+00 0. -1.
      99926    2    1    2    0    0  0.00000000000E+00  0.11102230246E-15 -0.37918757057E+03  0.59445643485E+03  0.45781572632E+03 0.  0.
      99925    2    3    3    0    0 -0.11321943480E+03  0.66046020886E+00 -0.20629577057E+03  0.35288210006E+03  0.26296150853E+03 0.  0.
         25    1    4    4    0    0 -0.90798253181E+02 -0.23847057159E+02 -0.10271783819E+03  0.18711351447E+03  0.12509000000E+03 0.  0.
         25    1    4    4    0    0 -0.22421181617E+02  0.24507517368E+02 -0.10357793238E+03  0.16576858559E+03  0.12509000000E+03 0.  0.
         25    1    3    3    0    0  0.11321943480E+03 -0.66046020886E+00 -0.17289180000E+03  0.24157433479E+03  0.12509000000E+03 0.  0.
<mgrwt>
<rscale>  2 0.45781573E+03</rscale>
<asrwt>0</asrwt>
<pdfrwt beam="1">  1       21 0.15828593E-01 0.45781573E+03</pdfrwt>
<pdfrwt beam="2">  1       21 0.71591472E-01 0.45781573E+03</pdfrwt>
<totfact> 0.57725541E+04</totfact>
</mgrwt>
</event>
<event>
 7    0  0.4712189E-002  0.4558582E+03  0.7546771E-02  0.1025989E+00
         21   -1    0    0  502  501  0.00000000000E+00  0.00000000000E+00  0.46134746655E+03  0.46134746655E+03  0.00000000000E+00 0.  1.
         21   -1    0    0  501  502 -0.00000000000E+00 -0.00000000000E+00 -0.11260855323E+03  0.11260855323E+03  0.00000000000E+00 0.  1.
      99926    2    1    2    0    0  0.00000000000E+00  0.14210854715E-13  0.34873891332E+03  0.57395601978E+03  0.45585818296E+03 0.  0.
      99925    2    3    3    0    0  0.32729774247E+02  0.91696434736E+02  0.29307189886E+03  0.40595066610E+03  0.26348687091E+03 0.  0.
         25    1    4    4    0    0 -0.14645866693E+02  0.71381065399E+02  0.13579511287E+03  0.19848823312E+03  0.12509000000E+03 0.  0.
         25    1    3    3    0    0 -0.32729774247E+02 -0.91696434736E+02  0.55667014463E+02  0.16800535368E+03  0.12509000000E+03 0.  0.
         25    1    4    4    0    0  0.47375640940E+02  0.20315369337E+02  0.15727678599E+03  0.20746243298E+03  0.12509000000E+03 0.  0.
<mgrwt>
<rscale>  2 0.45585818E+03</rscale>
<asrwt>0</asrwt>
<pdfrwt beam="1">  1       21 0.67845215E-01 0.45585818E+03</pdfrwt>
<pdfrwt beam="2">  1       21 0.16560082E-01 0.45585818E+03</pdfrwt>
<totfact> 0.59903163E+04</totfact>
</mgrwt>
</event>
<event>
 7    0  0.4712189E-002  0.4617373E+03  0.7546771E-02  0.1024279E+00
         21   -1    0    0  502  501  0.00000000000E+00  0.00000000000E+00  0.60773002475E+03  0.60773002475E+03  0.00000000000E+00 0.  1.
         21   -1    0    0  501  502 -0.00000000000E+00 -0.00000000000E+00 -0.87703983174E+02  0.87703983174E+02  0.00000000000E+00 0.  1.
      99926    2    1    2    0    0  0.00000000000E+00  0.00000000000E+00  0.52002604158E+03  0.69543400793E+03  0.46173734467E+03 0.  0.
      99925    2    3    3    0    0 -0.79680752846E+02  0.87444093021E+02  0.31087132151E+03  0.42453052547E+03  0.26379859124E+03 0.  0.
         25    1    3    3    0    0  0.79680752846E+02 -0.87444093021E+02  0.20915472007E+03  0.27090348245E+03  0.12509000000E+03 0.  0.
         25    1    4    4    0    0 -0.15718523031E+02  0.73844458369E+02  0.18206660257E+03  0.23344342328E+03  0.12509000000E+03 0.  0.
         25    1    4    4    0    0 -0.63962229816E+02  0.13599634653E+02  0.12880471894E+03  0.19108710220E+03  0.12509000000E+03 0.  0.
<mgrwt>
<rscale>  2 0.46173734E+03</rscale>
<asrwt>0</asrwt>
<pdfrwt beam="1">  1       21 0.89372061E-01 0.46173734E+03</pdfrwt>
<pdfrwt beam="2">  1       21 0.12897645E-01 0.46173734E+03</pdfrwt>
<totfact> 0.50423953E+04</totfact>
</mgrwt>
</event>
<event>
 7    0  0.4712189E-002  0.4582690E+03  0.7546771E-02  0.1025284E+00
         21   -1    0    0  502  501  0.00000000000E+00  0.00000000000E+00  0.31073982512E+03  0.31073982512E+03  0.00000000000E+00 0.  1.
         21   -1    0    0  501  502 -0.00000000000E+00 -0.00000000000E+00 -0.16896002850E+03  0.16896002850E+03  0.00000000000E+00 0.  1.
      99926    2    1    2    0    0  0.00000000000E+00  0.35527136788E-14  0.14177979662E+03  0.47969985362E+03  0.45826895905E+03 0.  0.
      99925    2    3    3    0    0  0.10405515541E+03  0.18206073827E+02  0.37984835807E+02  0.28584465384E+03  0.26287902519E+03 0.  0.
         25    1    4    4    0    0  0.77949050585E+02  0.16025847916E+02 -0.11709322548E+02  0.14871953007E+03  0.12509000000E+03 0.  0.
         25    1    4    4    0    0  0.26106104824E+02  0.21802259113E+01  0.49694158355E+02  0.13712512377E+03  0.12509000000E+03 0.  0.
         25    1    3    3    0    0 -0.10405515541E+03 -0.18206073827E+02  0.10379496082E+03  0.19385519978E+03  0.12509000000E+03 0.  0.
<mgrwt>
<rscale>  2 0.45826896E+03</rscale>
<asrwt>0</asrwt>
<pdfrwt beam="1">  1       21 0.45697033E-01 0.45826896E+03</pdfrwt>
<pdfrwt beam="2">  1       21 0.24847063E-01 0.45826896E+03</pdfrwt>
<totfact> 0.65018589E+04</totfact>
</mgrwt>
</event>
<event>
 7    0  0.4712189E-002  0.4400719E+03  0.7546771E-02  0.1030725E+00
         21   -1    0    0  502  501  0.00000000000E+00  0.00000000000E+00  0.10837380826E+03  0.10837380826E+03  0.00000000000E+00 0.  1.
         21   -1    0    0  501  502 -0.00000000000E+00 -0.00000000000E+00 -0.44674840770E+03  0.44674840770E+03  0.00000000000E+00 0.  1.
      99926    2    1    2    0    0  0.00000000000E+00  0.00000000000E+00 -0.33837459944E+03  0.55512221595E+03  0.44007193173E+03 0.  0.
      99925    2    3    3    0    0 -0.53550264720E+02  0.73751401792E+02 -0.26302506632E+03  0.38298285276E+03  0.26303379988E+03 0.  0.
         25    1    4    4    0    0 -0.16777313417E+02  0.47852168184E+02 -0.80422904621E+02  0.15711989032E+03  0.12509000000E+03 0.  0.
         25    1    3    3    0    0  0.53550264720E+02 -0.73751401792E+02 -0.75349533119E+02  0.17213936319E+03  0.12509000000E+03 0.  0.
         25    1    4    4    0    0 -0.36772951303E+02  0.25899233608E+02 -0.18260216170E+03  0.22586296245E+03  0.12509000000E+03 0.  0.
<mgrwt>
<rscale>  2 0.44007193E+03</rscale>
<asrwt>0</asrwt>
<pdfrwt beam="1">  1       21 0.15937324E-01 0.44007193E+03</pdfrwt>
<pdfrwt beam="2">  1       21 0.65698297E-01 0.44007193E+03</pdfrwt>
<totfact> 0.69364911E+04</totfact>
</mgrwt>
</event>
<event>
 7    0  0.4712189E-002  0.4595386E+03  0.7546771E-02  0.1024915E+00
         21   -1    0    0  502  501  0.00000000000E+00  0.00000000000E+00  0.21715671143E+03  0.21715671143E+03  0.00000000000E+00 0. -1.
         21   -1    0    0  501  502 -0.00000000000E+00 -0.00000000000E+00 -0.24311444612E+03  0.24311444612E+03  0.00000000000E+00 0. -1.
      99926    2    1    2    0    0  0.00000000000E+00  0.71054273576E-14 -0.25957734685E+02  0.46027115755E+03  0.45953861044E+03 0.  0.
      99925    2    3    3    0    0  0.10081797903E+03 -0.34582840481E+02 -0.65545744771E+02  0.29122987148E+03  0.26297976279E+03 0.  0.
         25    1    4    4    0    0  0.56082305969E+02  0.21830681354E+02 -0.41706280712E+02  0.14494387066E+03  0.12509000000E+03 0.  0.
         25    1    3    3    0    0 -0.10081797903E+03  0.34582840481E+02  0.39588010086E+02  0.16904128607E+03  0.12509000000E+03 0.  0.
         25    1    4    4    0    0  0.44735673065E+02 -0.56413521835E+02 -0.23839464059E+02  0.14628600082E+03  0.12509000000E+03 0.  0.
<mgrwt>
<rscale>  2 0.45953861E+03</rscale>
<asrwt>0</asrwt>
<pdfrwt beam="1">  1       21 0.31934811E-01 0.45953861E+03</pdfrwt>
<pdfrwt beam="2">  1       21 0.35752124E-01 0.45953861E+03</pdfrwt>
<totfact> 0.65748003E+04</totfact>
</mgrwt>
</event>
<event>
 7    0  0.4712189E-002  0.4579943E+03  0.7546771E-02  0.1025365E+00
         21   -1    0    0  502  501  0.00000000000E+00  0.00000000000E+00  0.12736182306E+04  0.12736182306E+04  0.00000000000E+00 0.  1.
         21   -1    0    0  501  502 -0.00000000000E+00 -0.00000000000E+00 -0.41173802987E+02  0.41173802987E+02  0.00000000000E+00 0.  1.
      99926    2    1    2    0    0  0.00000000000E+00  0.00000000000E+00  0.12324444276E+04  0.13147920336E+04  0.45799434977E+03 0.  0.
      99925    2    3    3    0    0 -0.67662369106E+02  0.92641399471E+02  0.72674647330E+03  0.78137047967E+03  0.26309459316E+03 0.  0.
         25    1    3    3    0    0  0.67662369106E+02 -0.92641399471E+02  0.50569795428E+03  0.53342155389E+03  0.12509000000E+03 0.  0.
         25    1    4    4    0    0 -0.13500505756E+02  0.20938916871E+02  0.25503766388E+03  0.28515332716E+03  0.12509000000E+03 0.  0.
         25    1    4    4    0    0 -0.54161863350E+02  0.71702482600E+02  0.47170880943E+03  0.49621715251E+03  0.12509000000E+03 0.  0.
<mgrwt>
<rscale>  2 0.45799435E+03</rscale>
<asrwt>0</asrwt>
<pdfrwt beam="1">  1       21 0.18729677E+00 0.45799435E+03</pdfrwt>
<pdfrwt beam="2">  1       21 0.60549719E-02 0.45799435E+03</pdfrwt>
<totfact> 0.28029739E+04</totfact>
</mgrwt>
</event>
<event>
 7    0  0.4712189E-002  0.4500848E+03  0.7546771E-02  0.1027697E+00
         21   -1    0    0  502  501  0.00000000000E+00  0.00000000000E+00  0.26570232715E+03  0.26570232715E+03  0.00000000000E+00 0. -1.
         21   -1    0    0  501  502 -0.00000000000E+00 -0.00000000000E+00 -0.19060461653E+03  0.19060461653E+03  0.00000000000E+00 0. -1.
      99926    2    1    2    0    0  0.00000000000E+00  0.00000000000E+00  0.75097710619E+02  0.45630694368E+03  0.45008483723E+03 0.  0.
      99925    2    3    3    0    0 -0.97155727839E+02 -0.16874471244E+02  0.93319842434E+02  0.29598371573E+03  0.26300909443E+03 0.  0.
         25    1    4    4    0    0 -0.64236831481E+02 -0.28469411123E+02  0.14823615947E+02  0.14423635318E+03  0.12509000000E+03 0.  0.
         25    1    3    3    0    0  0.97155727839E+02  0.16874471244E+02 -0.18222131815E+02  0.16032322795E+03  0.12509000000E+03 0.  0.
         25    1    4    4    0    0 -0.32918896359E+02  0.11594939879E+02  0.78496226487E+02  0.15174736255E+03  0.12509000000E+03 0.  0.
<mgrwt>
<rscale>  2 0.45008484E+03</rscale>
<asrwt>0</asrwt>
<pdfrwt beam="1">  1       21 0.39073872E-01 0.45008484E+03</pdfrwt>
<pdfrwt beam="2">  1       21 0.28030091E-01 0.45008484E+03</pdfrwt>
<totfact> 0.71200565E+04</totfact>
</mgrwt>
</event>
<event>
 7    0  0.4712189E-002  0.4582522E+03  0.7546771E-02  0.1025289E+00
         21   -1    0    0  502  501  0.00000000000E+00  0.00000000000E+00  0.71078440863E+02  0.71078440863E+02  0.00000000000E+00 0. -1.
         21   -1    0    0  501  502 -0.00000000000E+00 -0.00000000000E+00 -0.73860327724E+03  0.73860327724E+03  0.00000000000E+00 0. -1.
      99926    2    1    2    0    0  0.00000000000E+00  0.00000000000E+00 -0.66752483638E+03  0.80968171810E+03  0.45825219852E+03 0.  0.
      99925    2    3    3    0    0 -0.68917788939E+02  0.90391539476E+02 -0.37458556283E+03  0.47147879362E+03  0.26278815977E+03 0.  0.
         25    1    4    4    0    0 -0.23030527285E+02  0.84363026082E+02 -0.21087461419E+03  0.26031353473E+03  0.12509000000E+03 0.  0.
         25    1    3    3    0    0  0.68917788939E+02 -0.90391539476E+02 -0.29293927354E+03  0.33820292448E+03  0.12509000000E+03 0.  0.
         25    1    4    4    0    0 -0.45887261654E+02  0.60285133946E+01 -0.16371094865E+03  0.21116525889E+03  0.12509000000E+03 0.  0.
<mgrwt>
<rscale>  2 0.45825220E+03</rscale>
<asrwt>0</asrwt>
<pdfrwt beam="1">  1       21 0.10452712E-01 0.45825220E+03</pdfrwt>
<pdfrwt beam="2">  1       21 0.10861813E+00 0.45825220E+03</pdfrwt>
<totfact> 0.46111955E+04</totfact>
</mgrwt>
</event>
<event>
 7    0  0.4712189E-002  0.4491615E+03  0.7546771E-02  0.1027972E+00
         21   -1    0    0  502  501  0.00000000000E+00  0.00000000000E+00  0.90203819530E+02  0.90203819530E+02  0.00000000000E+00 0. -1.
         21   -1    0    0  501  502 -0.00000000000E+00 -0.00000000000E+00 -0.55913932998E+03  0.55913932998E+03  0.00000000000E+00 0. -1.
      99926    2    1    2    0    0  0.35527136788E-14 -0.14210854715E-13 -0.46893551045E+03  0.64934314951E+03  0.44916145522E+03 0.  0.
      99925    2    3    3    0    0 -0.30173239044E+02  0.10212163386E+03 -0.31934542418E+03  0.42716314486E+03  0.26295931230E+03 0.  0.
         25    1    4    4    0    0  0.33072470138E+01  0.64933480703E+02 -0.11275090119E+03  0.18052027204E+03  0.12509000000E+03 0.  0.
         25    1    3    3    0    0  0.30173239044E+02 -0.10212163386E+03 -0.14959008627E+03  0.22218000465E+03  0.12509000000E+03 0.  0.
         25    1    4    4    0    0 -0.33480486058E+02  0.37188153153E+02 -0.20659452299E+03  0.24664287282E+03  0.12509000000E+03 0.  0.
<mgrwt>
<rscale>  2 0.44916146E+03</rscale>
<asrwt>0</asrwt>
<pdfrwt beam="1">  1       21 0.13265267E-01 0.44916146E+03</pdfrwt>
<pdfrwt beam="2">  1       21 0.82226373E-01 0.44916146E+03</pdfrwt>
<totfact> 0.58382248E+04</totfact>
</mgrwt>
</event>
<event>
 7    0  0.4712189E-002  0.4268928E+03  0.7546771E-02  0.1034846E+00
         21   -1    0    0  502  501  0.00000000000E+00  0.00000000000E+00  0.49121673229E+03  0.49121673229E+03  0.00000000000E+00 0.  1.
         21   -1    0    0  501  502 -0.00000000000E+00 -0.00000000000E+00 -0.92747982874E+02  0.92747982874E+02  0.00000000000E+00 0.  1.
      99926    2    1    2    0    0  0.00000000000E+00 -0.71054273576E-14  0.39846874942E+03  0.58396471517E+03  0.42689277846E+03 0.  0.
      99925    2    3    3    0    0 -0.70750682377E+02  0.40280720296E+02  0.28694623434E+03  0.39765053172E+03  0.26298214481E+03 0.  0.
         25    1    4    4    0    0 -0.77222359880E+02  0.20891606637E+02  0.15905677375E+03  0.21759208963E+03  0.12509000000E+03 0.  0.
         25    1    4    4    0    0  0.64716775032E+01  0.19389113659E+02  0.12788946059E+03  0.18005844209E+03  0.12509000000E+03 0.  0.
         25    1    3    3    0    0  0.70750682377E+02 -0.40280720296E+02  0.11152251508E+03  0.18631418345E+03  0.12509000000E+03 0.  0.
<mgrwt>
<rscale>  2 0.42689278E+03</rscale>
<asrwt>0</asrwt>
<pdfrwt beam="1">  1       21 0.72237754E-01 0.42689278E+03</pdfrwt>
<pdfrwt beam="2">  1       21 0.13639409E-01 0.42689278E+03</pdfrwt>
<totfact> 0.75000747E+04</totfact>
</mgrwt>
</event>
<event>
 7    0  0.4712189E-002  0.4499939E+03  0.7546771E-02  0.1027724E+00
         21   -1    0    0  502  501  0.00000000000E+00  0.00000000000E+00  0.88333802111E+02  0.88333802111E+02  0.00000000000E+00 0. -1.
         21   -1    0    0  501  502 -0.00000000000E+00 -0.00000000000E+00 -0.57309450541E+03  0.57309450541E+03  0.00000000000E+00 0. -1.
      99926    2    1    2    0    0  0.00000000000E+00  0.00000000000E+00 -0.48476070330E+03  0.66142830752E+03  0.44999385166E+03 0.  0.
      99925    2    3    3    0    0 -0.44480452140E+02 -0.76321623910E+02 -0.21400317175E+03  0.35036456825E+03  0.26297237929E+03 0.  0.
         25    1    3    3    0    0  0.44480452140E+02  0.76321623910E+02 -0.27075753155E+03  0.31106373927E+03  0.12509000000E+03 0.  0.
         25    1    4    4    0    0 -0.38338445618E+02 -0.71231146857E+02 -0.14203966301E+03  0.20583120916E+03  0.12509000000E+03 0.  0.
         25    1    4    4    0    0 -0.61420065226E+01 -0.50904770525E+01 -0.71963508741E+02  0.14453335909E+03  0.12509000000E+03 0.  0.
<mgrwt>
<rscale>  2 0.44999385E+03</rscale>
<asrwt>0</asrwt>
<pdfrwt beam="1">  1       21 0.12990265E-01 0.44999385E+03</pdfrwt>
<pdfrwt beam="2">  1       21 0.84278605E-01 0.44999385E+03</pdfrwt>
<totfact> 0.57274811E+04</totfact>
</mgrwt>
</event>
<event>
 7    0  0.4712189E-002  0.4561365E+03  0.7546771E-02  0.1025908E+00
         21   -1    0    0  502  501  0.00000000000E+00  0.00000000000E+00  0.37134772660E+03  0.37134772660E+03  0.00000000000E+00 0.  1.
         21   -1    0    0  501  502 -0.00000000000E+00 -0.00000000000E+00 -0.14007123063E+03  0.14007123063E+03  0.00000000000E+00 0.  1.
      99926    2    1    2    0    0  0.00000000000E+00  0.00000000000E+00  0.23127649597E+03  0.51141895723E+03  0.45613652805E+03 0.  0.
      99925    2    3    3    0    0 -0.97706178955E+02 -0.56518161431E+02  0.16636277220E+03  0.33085844213E+03  0.26277354657E+03 0.  0.
         25    1    3    3    0    0  0.97706178955E+02  0.56518161431E+02  0.64913723773E+02  0.18056051510E+03  0.12509000000E+03 0.  0.
         25    1    4    4    0    0 -0.44043404812E+02  0.96413666988E+01  0.95746601170E+02  0.16385266917E+03  0.12509000000E+03 0.  0.
         25    1    4    4    0    0 -0.53662774143E+02 -0.66159528130E+02  0.70616171025E+02  0.16700577296E+03  0.12509000000E+03 0.  0.
<mgrwt>
<rscale>  2 0.45613653E+03</rscale>
<asrwt>0</asrwt>
<pdfrwt beam="1">  1       21 0.54609960E-01 0.45613653E+03</pdfrwt>
<pdfrwt beam="2">  1       21 0.20598710E-01 0.45613653E+03</pdfrwt>
<totfact> 0.63897383E+04</totfact>
</mgrwt>
</event>
<event>
 7    0  0.4712189E-002  0.4601311E+03  0.7546771E-02  0.1024743E+00
         21   -1    0    0  502  501  0.00000000000E+00  0.00000000000E+00  0.18170302978E+03  0.18170302978E+03  0.00000000000E+00 0.  1.
         21   -1    0    0  501  502 -0.00000000000E+00 -0.00000000000E+00 -0.29130037965E+03  0.29130037965E+03  0.00000000000E+00 0.  1.
      99926    2    1    2    0    0  0.00000000000E+00  0.00000000000E+00 -0.10959734987E+03  0.47300340942E+03  0.46013111852E+03 0.  0.
      99925    2    3    3    0    0 -0.27486254711E+02  0.10185046338E+03 -0.14649972661E+02  0.28381693097E+03  0.26307492758E+03 0.  0.
         25    1    3    3    0    0  0.27486254711E+02 -0.10185046338E+03 -0.94947377207E+02  0.18918647845E+03  0.12509000000E+03 0.  0.
         25    1    4    4    0    0 -0.18359844722E+02  0.52697094867E+02 -0.47824535490E+02  0.14508191479E+03  0.12509000000E+03 0.  0.
         25    1    4    4    0    0 -0.91264099890E+01  0.49153368515E+02  0.33174562829E+02  0.13873501618E+03  0.12509000000E+03 0.  0.
<mgrwt>
<rscale>  2 0.46013112E+03</rscale>
<asrwt>0</asrwt>
<pdfrwt beam="1">  1       21 0.26721034E-01 0.46013112E+03</pdfrwt>
<pdfrwt beam="2">  1       21 0.42838290E-01 0.46013112E+03</pdfrwt>
<totfact> 0.64545507E+04</totfact>
</mgrwt>
</event>
<event>
 7    0  0.4712189E-002  0.4537722E+03  0.7546771E-02  0.1026603E+00
         21   -1    0    0  502  501  0.00000000000E+00  0.00000000000E+00  0.27489614157E+03  0.27489614157E+03  0.00000000000E+00 0. -1.
         21   -1    0    0  501  502 -0.00000000000E+00 -0.00000000000E+00 -0.18726091392E+03  0.18726091392E+03  0.00000000000E+00 0. -1.
      99926    2    1    2    0    0  0.00000000000E+00  0.00000000000E+00  0.87635227644E+02  0.46215705549E+03  0.45377220145E+03 0.  0.
      99925    2    3    3    0    0  0.10014718105E+03  0.27053538694E+02  0.12116472161E+02  0.28295900204E+03  0.26297839476E+03 0.  0.
         25    1    4    4    0    0  0.83095772492E+02  0.32584665554E+02 -0.12643268855E+02  0.15418828809E+03  0.12509000000E+03 0.  0.
         25    1    3    3    0    0 -0.10014718105E+03 -0.27053538694E+02  0.75518755483E+02  0.17919805344E+03  0.12509000000E+03 0.  0.
         25    1    4    4    0    0  0.17051408557E+02 -0.55311268601E+01  0.24759741015E+02  0.12877071396E+03  0.12509000000E+03 0.  0.
<mgrwt>
<rscale>  2 0.45377220E+03</rscale>
<asrwt>0</asrwt>
<pdfrwt beam="1">  1       21 0.40425903E-01 0.45377220E+03</pdfrwt>
<pdfrwt beam="2">  1       21 0.27538370E-01 0.45377220E+03</pdfrwt>
<totfact> 0.68689723E+04</totfact>
</mgrwt>
</event>
<event>
 7    0  0.4712189E-002  0.4536943E+03  0.7546771E-02  0.1026626E+00
         21   -1    0    0  502  501  0.00000000000E+00  0.00000000000E+00  0.20731827711E+03  0.20731827711E+03  0.00000000000E+00 0. -1.
         21   -1    0    0  501  502 -0.00000000000E+00 -0.00000000000E+00 -0.24821564380E+03  0.24821564380E+03  0.00000000000E+00 0. -1.
      99926    2    1    2    0    0  0.00000000000E+00  0.00000000000E+00 -0.40897366689E+02  0.45553392091E+03  0.45369434479E+03 0.  0.
      99925    2    3    3    0    0  0.71628719787E+02  0.23611681580E+02  0.57482017579E+02  0.27942544197E+03  0.26284255795E+03 0.  0.
         25    1    3    3    0    0 -0.71628719787E+02 -0.23611681580E+02 -0.98379384268E+02  0.17610847894E+03  0.12509000000E+03 0.  0.
         25    1    4    4    0    0  0.11011395275E+02  0.34750168658E+02  0.48782759887E+01  0.13038454941E+03  0.12509000000E+03 0.  0.
         25    1    4    4    0    0  0.60617324512E+02 -0.11138487078E+02  0.52603741590E+02  0.14904089256E+03  0.12509000000E+03 0.  0.
<mgrwt>
<rscale>  2 0.45369434E+03</rscale>
<asrwt>0</asrwt>
<pdfrwt beam="1">  1       21 0.30487982E-01 0.45369434E+03</pdfrwt>
<pdfrwt beam="2">  1       21 0.36502300E-01 0.45369434E+03</pdfrwt>
<totfact> 0.69225049E+04</totfact>
</mgrwt>
</event>
<event>
 7    0  0.4712189E-002  0.4500872E+03  0.7546771E-02  0.1027696E+00
         21   -1    0    0  502  501  0.00000000000E+00  0.00000000000E+00  0.12131105864E+03  0.12131105864E+03  0.00000000000E+00 0.  1.
         21   -1    0    0  501  502 -0.00000000000E+00 -0.00000000000E+00 -0.41747733341E+03  0.41747733341E+03  0.00000000000E+00 0.  1.
      99926    2    1    2    0    0 -0.71054273576E-14  0.00000000000E+00 -0.29616627477E+03  0.53878839205E+03  0.45008717944E+03 0.  0.
      99925    2    3    3    0    0  0.55206393906E+02  0.34253347953E+02 -0.29117309866E+03  0.39774415189E+03  0.26305436550E+03 0.  0.
         25    1    4    4    0    0  0.47974065341E+02  0.53197501678E+02 -0.14992886409E+03  0.20798475309E+03  0.12509000000E+03 0.  0.
         25    1    3    3    0    0 -0.55206393906E+02 -0.34253347953E+02 -0.49931761161E+01  0.14104424016E+03  0.12509000000E+03 0.  0.
         25    1    4    4    0    0  0.72323285649E+01 -0.18944153725E+02 -0.14124423456E+03  0.18975939880E+03  0.12509000000E+03 0.  0.
<mgrwt>
<rscale>  2 0.45008718E+03</rscale>
<asrwt>0</asrwt>
<pdfrwt beam="1">  1       21 0.17839862E-01 0.45008718E+03</pdfrwt>
<pdfrwt beam="2">  1       21 0.61393725E-01 0.45008718E+03</pdfrwt>
<totfact> 0.65108276E+04</totfact>
</mgrwt>
</event>
<event>
 7    0  0.4712189E-002  0.4084859E+03  0.7546771E-02  0.1040880E+00
         21   -1    0    0  502  501  0.00000000000E+00  0.00000000000E+00  0.20018832710E+03  0.20018832710E+03  0.00000000000E+00 0.  1.
         21   -1    0    0  501  502 -0.00000000000E+00 -0.00000000000E+00 -0.20837971227E+03  0.20837971227E+03  0.00000000000E+00 0.  1.
      99926    2    1    2    0    0  0.35527136788E-14  0.00000000000E+00 -0.81913851674E+01  0.40856803938E+03  0.40848591654E+03 0.  0.
      99925    2    3    3    0    0  0.30275074861E+02  0.51728994592E+02 -0.17698231063E+01  0.26971122968E+03  0.26296111139E+03 0.  0.
         25    1    4    4    0    0  0.49797553510E+02  0.33579383076E+02 -0.21110513150E+02  0.14035858780E+03  0.12509000000E+03 0.  0.
         25    1    4    4    0    0 -0.19522478649E+02  0.18149611516E+02  0.19340690044E+02  0.12935264188E+03  0.12509000000E+03 0.  0.
         25    1    3    3    0    0 -0.30275074861E+02 -0.51728994592E+02 -0.64215620611E+01  0.13885680969E+03  0.12509000000E+03 0.  0.
<mgrwt>
<rscale>  2 0.40848592E+03</rscale>
<asrwt>0</asrwt>
<pdfrwt beam="1">  1       21 0.29439460E-01 0.40848592E+03</pdfrwt>
<pdfrwt beam="2">  1       21 0.30644075E-01 0.40848592E+03</pdfrwt>
<totfact> 0.10644089E+05</totfact>
</mgrwt>
</event>
<event>
 7    0  0.4712189E-002  0.4598718E+03  0.7546771E-02  0.1024818E+00
         21   -1    0    0  502  501  0.00000000000E+00  0.00000000000E+00  0.20550337678E+03  0.20550337678E+03  0.00000000000E+00 0.  1.
         21   -1    0    0  501  502 -0.00000000000E+00 -0.00000000000E+00 -0.25727328023E+03  0.25727328023E+03  0.00000000000E+00 0.  1.
      99926    2    1    2    0    0  0.14210854715E-13  0.00000000000E+00 -0.51769903451E+02  0.46277665700E+03  0.45987184232E+03 0.  0.
      99925    2    3    3    0    0  0.81771767606E+02 -0.37030983737E+02 -0.10921883141E+03  0.29844223225E+03  0.26283283114E+03 0.  0.
         25    1    4    4    0    0  0.51105093080E+02 -0.18007970295E+02 -0.97751902133E+02  0.16774671384E+03  0.12509000000E+03 0.  0.
         25    1    3    3    0    0 -0.81771767606E+02  0.37030983737E+02  0.57448927958E+02  0.16433442475E+03  0.12509000000E+03 0.  0.
         25    1    4    4    0    0  0.30666674527E+02 -0.19023013442E+02 -0.11466929276E+02  0.13069551842E+03  0.12509000000E+03 0.  0.
<mgrwt>
<rscale>  2 0.45987184E+03</rscale>
<asrwt>0</asrwt>
<pdfrwt beam="1">  1       21 0.30221085E-01 0.45987184E+03</pdfrwt>
<pdfrwt beam="2">  1       21 0.37834306E-01 0.45987184E+03</pdfrwt>
<totfact> 0.65400414E+04</totfact>
</mgrwt>
</event>
<event>
 7    0  0.4712189E-002  0.3969116E+03  0.7546771E-02  0.1044854E+00
         21   -1    0    0  502  501  0.00000000000E+00  0.00000000000E+00  0.32047635251E+03  0.32047635251E+03  0.00000000000E+00 0.  1.
         21   -1    0    0  501  502 -0.00000000000E+00 -0.00000000000E+00 -0.12289425231E+03  0.12289425231E+03  0.00000000000E+00 0.  1.
      99926    2    1    2    0    0  0.00000000000E+00  0.00000000000E+00  0.19758210021E+03  0.44337060482E+03  0.39691158575E+03 0.  0.
      99925    2    3    3    0    0  0.10595095377E+02 -0.12484098624E+02  0.91630315058E+02  0.27862414009E+03  0.26261604681E+03 0.  0.
         25    1    4    4    0    0  0.32492209777E+02 -0.23222618469E+02  0.21195883601E+02  0.13301055329E+03  0.12509000000E+03 0.  0.
         25    1    4    4    0    0 -0.21897114400E+02  0.10738519844E+02  0.70434431457E+02  0.14561358680E+03  0.12509000000E+03 0.  0.
         25    1    3    3    0    0 -0.10595095377E+02  0.12484098624E+02  0.10595178515E+03  0.16474646473E+03  0.12509000000E+03 0.  0.
<mgrwt>
<rscale>  2 0.39691159E+03</rscale>
<asrwt>0</asrwt>
<pdfrwt beam="1">  1       21 0.47128875E-01 0.39691159E+03</pdfrwt>
<pdfrwt beam="2">  1       21 0.18072684E-01 0.39691159E+03</pdfrwt>
<totfact> 0.11340032E+05</totfact>
</mgrwt>
</event>
<event>
 7    0  0.4712189E-002  0.4462248E+03  0.7546771E-02  0.1028854E+00
         21   -1    0    0  502  501  0.00000000000E+00  0.00000000000E+00  0.14929962375E+03  0.14929962375E+03  0.00000000000E+00 0.  1.
         21   -1    0    0  501  502 -0.00000000000E+00 -0.00000000000E+00 -0.33341780014E+03  0.33341780014E+03  0.00000000000E+00 0.  1.
      99926    2    1    2    0    0  0.71054273576E-14  0.00000000000E+00 -0.18411817639E+03  0.48271742389E+03  0.44622484070E+03 0.  0.
      99925    2    3    3    0    0 -0.36738733466E+02 -0.97574675180E+02 -0.10541626878E+03  0.30185269507E+03  0.26292947347E+03 0.  0.
         25    1    4    4    0    0 -0.17429582734E+02 -0.72648767177E+02 -0.19840705517E+02  0.14704691572E+03  0.12509000000E+03 0.  0.
         25    1    4    4    0    0 -0.19309150732E+02 -0.24925908003E+02 -0.85575563263E+02  0.15480577935E+03  0.12509000000E+03 0.  0.
         25    1    3    3    0    0  0.36738733466E+02  0.97574675180E+02 -0.78701907610E+02  0.18086472883E+03  0.12509000000E+03 0.  0.
<mgrwt>
<rscale>  2 0.44622484E+03</rscale>
<asrwt>0</asrwt>
<pdfrwt beam="1">  1       21 0.21955827E-01 0.44622484E+03</pdfrwt>
<pdfrwt beam="2">  1       21 0.49032029E-01 0.44622484E+03</pdfrwt>
<totfact> 0.71344817E+04</totfact>
</mgrwt>
</event>
<event>
 7    0  0.4712189E-002  0.4541692E+03  0.7546771E-02  0.1026486E+00
         21   -1    0    0  502  501  0.00000000000E+00  0.00000000000E+00  0.15941775616E+03  0.15941775616E+03  0.00000000000E+00 0. -1.
         21   -1    0    0  501  502 -0.00000000000E+00 -0.00000000000E+00 -0.32347351791E+03  0.32347351791E+03  0.00000000000E+00 0. -1.
      99926    2    1    2    0    0  0.14210854715E-13 -0.71054273576E-14 -0.16405576175E+03  0.48289127407E+03  0.45416923015E+03 0.  0.
      99925    2    3    3    0    0 -0.10167788486E+03  0.46738209362E+02 -0.92326667522E+02  0.30036614281E+03  0.26300713626E+03 0.  0.
         25    1    3    3    0    0  0.10167788486E+03 -0.46738209362E+02 -0.71729094229E+02  0.18252513126E+03  0.12509000000E+03 0.  0.
         25    1    4    4    0    0 -0.64068717023E+02  0.37709418283E+02 -0.10337091648E+02  0.14588065085E+03  0.12509000000E+03 0.  0.
         25    1    4    4    0    0 -0.37609167838E+02  0.90287910794E+01 -0.81989575874E+02  0.15448549196E+03  0.12509000000E+03 0.  0.
<mgrwt>
<rscale>  2 0.45416923E+03</rscale>
<asrwt>0</asrwt>
<pdfrwt beam="1">  1       21 0.23443788E-01 0.45416923E+03</pdfrwt>
<pdfrwt beam="2">  1       21 0.47569635E-01 0.45416923E+03</pdfrwt>
<totfact> 0.66930538E+04</totfact>
</mgrwt>
</event>
<event>
 7    0  0.4712189E-002  0.4389462E+03  0.7546771E-02  0.1031071E+00
         21   -1    0    0  502  501  0.00000000000E+00  0.00000000000E+00  0.42400837183E+03  0.42400837183E+03  0.00000000000E+00 0. -1.
         21   -1    0    0  501  502 -0.00000000000E+00 -0.00000000000E+00 -0.11360256841E+03  0.11360256841E+03  0.00000000000E+00 0. -1.
      99926    2    1    2    0    0  0.00000000000E+00  0.00000000000E+00  0.31040580343E+03  0.53761094024E+03  0.43894619290E+03 0.  0.
      99925    2    3    3    0    0  0.61149630369E+02  0.41453920264E+02  0.12062602679E+03  0.29860973413E+03  0.26298180580E+03 0.  0.
         25    1    3    3    0    0 -0.61149630369E+02 -0.41453920264E+02  0.18977977664E+03  0.23900120611E+03  0.12509000000E+03 0.  0.
         25    1    4    4    0    0  0.53561617671E+02  0.11601916486E+02  0.26638569019E+02  0.13914227543E+03  0.12509000000E+03 0.  0.
         25    1    4    4    0    0  0.75880126980E+01  0.29852003778E+02  0.93987457771E+02  0.15946745870E+03  0.12509000000E+03 0.  0.
<mgrwt>
<rscale>  2 0.43894619E+03</rscale>
<asrwt>0</asrwt>
<pdfrwt beam="1">  1       21 0.62354172E-01 0.43894619E+03</pdfrwt>
<pdfrwt beam="2">  1       21 0.16706260E-01 0.43894619E+03</pdfrwt>
<totfact> 0.71332943E+04</totfact>
</mgrwt>
</event>
<event>
 7    0  0.4712189E-002  0.4555132E+03  0.7546771E-02  0.1026091E+00
         21   -1    0    0  502  501  0.00000000000E+00  0.00000000000E+00  0.27698305793E+03  0.27698305793E+03  0.00000000000E+00 0. -1.
         21   -1    0    0  501  502 -0.00000000000E+00 -0.00000000000E+00 -0.18727886492E+03  0.18727886492E+03  0.00000000000E+00 0. -1.
      99926    2    1    2    0    0  0.71054273576E-14 -0.88817841970E-15  0.89704193008E+02  0.46426192285E+03  0.45551321690E+03 0.  0.
      99925    2    3    3    0    0  0.46507927864E+02 -0.60816135709E+01  0.16114764409E+03  0.31276390907E+03  0.26391802941E+03 0.  0.
         25    1    3    3    0    0 -0.46507927864E+02  0.60816135709E+01 -0.71443451080E+02  0.15149801378E+03  0.12509000000E+03 0.  0.
         25    1    4    4    0    0 -0.11458569380E+02  0.19884667751E+02  0.86941641295E+02  0.15405536639E+03  0.12509000000E+03 0.  0.
         25    1    4    4    0    0  0.57966497244E+02 -0.25966281322E+02  0.74206002794E+02  0.15870854268E+03  0.12509000000E+03 0.  0.
<mgrwt>
<rscale>  2 0.45551322E+03</rscale>
<asrwt>0</asrwt>
<pdfrwt beam="1">  1       21 0.40732803E-01 0.45551322E+03</pdfrwt>
<pdfrwt beam="2">  1       21 0.27541009E-01 0.45551322E+03</pdfrwt>
<totfact> 0.67588877E+04</totfact>
</mgrwt>
</event>
<event>
 7    0  0.4712189E-002  0.4601216E+03  0.7546771E-02  0.1024746E+00
         21   -1    0    0  502  501  0.00000000000E+00  0.00000000000E+00  0.87911014869E+02  0.87911014869E+02  0.00000000000E+00 0.  1.
         21   -1    0    0  501  502 -0.00000000000E+00 -0.00000000000E+00 -0.60206302335E+03  0.60206302335E+03  0.00000000000E+00 0.  1.
      99926    2    1    2    0    0  0.00000000000E+00 -0.14210854715E-13 -0.51415200848E+03  0.68997403822E+03  0.46012159870E+03 0.  0.
      99925    2    3    3    0    0  0.74122341674E+02 -0.90215879256E+02 -0.34653524900E+03  0.45044134199E+03  0.26301653440E+03 0.  0.
         25    1    3    3    0    0 -0.74122341674E+02  0.90215879256E+02 -0.16761675949E+03  0.23953269624E+03  0.12509000000E+03 0.  0.
         25    1    4    4    0    0  0.73264132524E+02 -0.32817646252E+02 -0.15689724460E+03  0.21612238312E+03  0.12509000000E+03 0.  0.
         25    1    4    4    0    0  0.85820914948E+00 -0.57398233004E+02 -0.18963800439E+03  0.23431895887E+03  0.12509000000E+03 0.  0.
<mgrwt>
<rscale>  2 0.46012160E+03</rscale>
<asrwt>0</asrwt>
<pdfrwt beam="1">  1       21 0.12928091E-01 0.46012160E+03</pdfrwt>
<pdfrwt beam="2">  1       21 0.88538679E-01 0.46012160E+03</pdfrwt>
<totfact> 0.51348919E+04</totfact>
</mgrwt>
</event>
<event>
 7    0  0.4712189E-002  0.4524345E+03  0.7546771E-02  0.1026999E+00
         21   -1    0    0  502  501  0.00000000000E+00  0.00000000000E+00  0.28148577880E+03  0.28148577880E+03  0.00000000000E+00 0.  1.
         21   -1    0    0  501  502 -0.00000000000E+00 -0.00000000000E+00 -0.18180049908E+03  0.18180049908E+03  0.00000000000E+00 0.  1.
      99926    2    1    2    0    0 -0.71054273576E-14  0.00000000000E+00  0.99685279714E+02  0.46328627788E+03  0.45243454806E+03 0.  0.
      99925    2    3    3    0    0  0.58290377257E+02 -0.89956012055E+02  0.93330798728E+02  0.29842955307E+03  0.26241133354E+03 0.  0.
         25    1    4    4    0    0 -0.55664180517E-01 -0.56241122846E+02  0.20210723385E+02  0.13863278269E+03  0.12509000000E+03 0.  0.
         25    1    3    3    0    0 -0.58290377257E+02  0.89956012055E+02  0.63544809861E+01  0.16485672481E+03  0.12509000000E+03 0.  0.
         25    1    4    4    0    0  0.58346041438E+02 -0.33714889209E+02  0.73120075343E+02  0.15979677038E+03  0.12509000000E+03 0.  0.
<mgrwt>
<rscale>  2 0.45243455E+03</rscale>
<asrwt>0</asrwt>
<pdfrwt beam="1">  1       21 0.41394968E-01 0.45243455E+03</pdfrwt>
<pdfrwt beam="2">  1       21 0.26735367E-01 0.45243455E+03</pdfrwt>
<totfact> 0.69339093E+04</totfact>
</mgrwt>
</event>
<event>
 7    0  0.4712189E-002  0.4540716E+03  0.7546771E-02  0.1026515E+00
         21   -1    0    0  502  501  0.00000000000E+00  0.00000000000E+00  0.14252754212E+03  0.14252754212E+03  0.00000000000E+00 0.  1.
         21   -1    0    0  501  502 -0.00000000000E+00 -0.00000000000E+00 -0.36165110730E+03  0.36165110730E+03  0.00000000000E+00 0.  1.
      99926    2    1    2    0    0 -0.88817841970E-15  0.00000000000E+00 -0.21912356518E+03  0.50417864943E+03  0.45407155132E+03 0.  0.
      99925    2    3    3    0    0 -0.15665667487E+01  0.10092103083E+03 -0.19246337552E+03  0.34124988460E+03  0.26310040712E+03 0.  0.
         25    1    4    4    0    0 -0.14579785108E+02  0.12512378874E+02 -0.69446181987E+02  0.14435861613E+03  0.12509000000E+03 0.  0.
         25    1    3    3    0    0  0.15665667487E+01 -0.10092103083E+03 -0.26660189664E+02  0.16292876483E+03  0.12509000000E+03 0.  0.
         25    1    4    4    0    0  0.13013218360E+02  0.88408651959E+02 -0.12301719353E+03  0.19689126847E+03  0.12509000000E+03 0.  0.
<mgrwt>
<rscale>  2 0.45407155E+03</rscale>
<asrwt>0</asrwt>
<pdfrwt beam="1">  1       21 0.20959933E-01 0.45407155E+03</pdfrwt>
<pdfrwt beam="2">  1       21 0.53183985E-01 0.45407155E+03</pdfrwt>
<totfact> 0.65459153E+04</totfact>
</mgrwt>
</event>
<event>
 6    0  0.4712189E-002  0.4460177E+03  0.7546771E-02  0.1028916E+00
         21   -1    0    0  502  501  0.00000000000E+00  0.00000000000E+00  0.11564338021E+04  0.11564338021E+04  0.00000000000E+00 0.  1.
         21   -1    0    0  501  502 -0.00000000000E+00 -0.00000000000E+00 -0.43005442813E+02  0.43005442813E+02  0.00000000000E+00 0.  1.
      99926    2    1    2    0    0  0.00000000000E+00  0.35527136788E-14  0.11134283592E+04  0.11994392449E+04  0.44601770253E+03 0.  0.
         25    1    3    3    0    0  0.11787478037E+02 -0.65605744639E+02  0.31307236322E+03  0.34366389260E+03  0.12509000000E+03 0.  0.
         25    1    3    3    0    0 -0.47125205422E+02  0.71554938676E+02  0.26968270118E+03  0.30938190259E+03  0.12509000000E+03 0.  0.
         25    1    3    3    0    0  0.35337727385E+02 -0.59491940368E+01  0.53067329485E+03  0.54639344968E+03  0.12509000000E+03 0.  0.
<mgrwt>
<rscale>  2 0.44601770E+03</rscale>
<asrwt>0</asrwt>
<pdfrwt beam="1">  1       21 0.17006377E+00 0.44601770E+03</pdfrwt>
<pdfrwt beam="2">  1       21 0.63243306E-02 0.44601770E+03</pdfrwt>
<totfact> 0.34527108E+04</totfact>
</mgrwt>
</event>
<event>
 7    0  0.4712189E-002  0.4553246E+03  0.7546771E-02  0.1026146E+00
         21   -1    0    0  502  501  0.00000000000E+00  0.00000000000E+00  0.15566253770E+03  0.15566253770E+03  0.00000000000E+00 0. -1.
         21   -1    0    0  501  502 -0.00000000000E+00 -0.00000000000E+00 -0.33296459603E+03  0.33296459603E+03  0.00000000000E+00 0. -1.
      99926    2    1    2    0    0 -0.71054273576E-14 -0.71054273576E-14 -0.17730205833E+03  0.48862713374E+03  0.45532456109E+03 0.  0.
      99925    2    3    3    0    0  0.54900432894E+02  0.44812346366E+02 -0.20667479995E+03  0.34188767085E+03  0.26296483153E+03 0.  0.
         25    1    4    4    0    0  0.21964672798E+02  0.44422062782E+02 -0.63017417786E+02  0.14857479449E+03  0.12509000000E+03 0.  0.
         25    1    3    3    0    0 -0.54900432894E+02 -0.44812346366E+02  0.29372741625E+02  0.14673946289E+03  0.12509000000E+03 0.  0.
         25    1    4    4    0    0  0.32935760096E+02  0.39028358401E+00 -0.14365738217E+03  0.19331287636E+03  0.12509000000E+03 0.  0.
<mgrwt>
<rscale>  2 0.45532456E+03</rscale>
<asrwt>0</asrwt>
<pdfrwt beam="1">  1       21 0.22891550E-01 0.45532456E+03</pdfrwt>
<pdfrwt beam="2">  1       21 0.48965381E-01 0.45532456E+03</pdfrwt>
<totfact> 0.65907290E+04</totfact>
</mgrwt>
</event>
<event>
 7    0  0.4712189E-002  0.4585534E+03  0.7546771E-02  0.1025202E+00
         21   -1    0    0  502  501  0.00000000000E+00  0.00000000000E+00  0.56154089907E+02  0.56154089907E+02  0.00000000000E+00 0. -1.
         21   -1    0    0  501  502 -0.00000000000E+00 -0.00000000000E+00 -0.93613495592E+03  0.93613495592E+03  0.00000000000E+00 0. -1.
      99926    2    1    2    0    0  0.00000000000E+00  0.00000000000E+00 -0.87998086602E+03  0.99228904583E+03  0.45855340574E+03 0.  0.
      99925    2    3    3    0    0 -0.82668896940E+02  0.78063902375E+02 -0.49804801350E+03  0.57461892324E+03  0.26307216466E+03 0.  0.
         25    1    4    4    0    0 -0.81063574241E+02  0.28216123928E+02 -0.27504337686E+03  0.31410797502E+03  0.12509000000E+03 0.  0.
         25    1    3    3    0    0  0.82668896940E+02 -0.78063902375E+02 -0.38193285251E+03  0.41767012259E+03  0.12509000000E+03 0.  0.
         25    1    4    4    0    0 -0.16053226988E+01  0.49847778447E+02 -0.22300463664E+03  0.26051094822E+03  0.12509000000E+03 0.  0.
<mgrwt>
<rscale>  2 0.45855341E+03</rscale>
<asrwt>0</asrwt>
<pdfrwt beam="1">  1       21 0.82579544E-02 0.45855341E+03</pdfrwt>
<pdfrwt beam="2">  1       21 0.13766691E+00 0.45855341E+03</pdfrwt>
<totfact> 0.38391377E+04</totfact>
</mgrwt>
</event>
<event>
 7    0  0.4712189E-002  0.4519733E+03  0.7546771E-02  0.1027135E+00
         21   -1    0    0  502  501  0.00000000000E+00  0.00000000000E+00  0.48686836615E+03  0.48686836615E+03  0.00000000000E+00 0. -1.
         21   -1    0    0  501  502 -0.00000000000E+00 -0.00000000000E+00 -0.10489483291E+03  0.10489483291E+03  0.00000000000E+00 0. -1.
      99926    2    1    2    0    0  0.00000000000E+00  0.00000000000E+00  0.38197353324E+03  0.59176319906E+03  0.45197334398E+03 0.  0.
      99925    2    3    3    0    0  0.98452089570E+02  0.26291530949E+02  0.29673872905E+03  0.40928980789E+03  0.26283115299E+03 0.  0.
         25    1    4    4    0    0  0.63657722087E+02  0.28788407721E+02  0.20575421413E+03  0.25072571215E+03  0.12509000000E+03 0.  0.
         25    1    4    4    0    0  0.34794367483E+02 -0.24968767725E+01  0.90984514915E+02  0.15856409574E+03  0.12509000000E+03 0.  0.
         25    1    3    3    0    0 -0.98452089570E+02 -0.26291530949E+02  0.85234804191E+02  0.18247339117E+03  0.12509000000E+03 0.  0.
<mgrwt>
<rscale>  2 0.45197334E+03</rscale>
<asrwt>0</asrwt>
<pdfrwt beam="1">  1       21 0.71598289E-01 0.45197334E+03</pdfrwt>
<pdfrwt beam="2">  1       21 0.15425711E-01 0.45197334E+03</pdfrwt>
<totfact> 0.60625328E+04</totfact>
</mgrwt>
</event>
<event>
 7    0  0.4712189E-002  0.4592389E+03  0.7546771E-02  0.1025002E+00
         21   -1    0    0  502  501  0.00000000000E+00  0.00000000000E+00  0.20327228456E+03  0.20327228456E+03  0.00000000000E+00 0.  1.
         21   -1    0    0  501  502 -0.00000000000E+00 -0.00000000000E+00 -0.25938158403E+03  0.25938158403E+03  0.00000000000E+00 0.  1.
      99926    2    1    2    0    0  0.00000000000E+00  0.14210854715E-13 -0.56109299475E+02  0.46265386859E+03  0.45923887971E+03 0.  0.
      99925    2    3    3    0    0 -0.63701517764E+02 -0.77085370080E+02  0.26272080163E+02  0.28255878966E+03  0.26296237330E+03 0.  0.
         25    1    4    4    0    0 -0.17406978475E+02 -0.41757722815E+01  0.32313747462E+02  0.13043054224E+03  0.12509000000E+03 0.  0.
         25    1    3    3    0    0  0.63701517764E+02  0.77085370080E+02 -0.82381379638E+02  0.18009507894E+03  0.12509000000E+03 0.  0.
         25    1    4    4    0    0 -0.46294539289E+02 -0.72909597799E+02 -0.60416672986E+01  0.15212824742E+03  0.12509000000E+03 0.  0.
<mgrwt>
<rscale>  2 0.45923888E+03</rscale>
<asrwt>0</asrwt>
<pdfrwt beam="1">  1       21 0.29892983E-01 0.45923888E+03</pdfrwt>
<pdfrwt beam="2">  1       21 0.38144351E-01 0.45923888E+03</pdfrwt>
<totfact> 0.65737060E+04</totfact>
</mgrwt>
</event>
<event>
 7    0  0.4712189E-002  0.4534439E+03  0.7546771E-02  0.1026700E+00
         21   -1    0    0  502  501  0.00000000000E+00  0.00000000000E+00  0.80849574595E+02  0.80849574595E+02  0.00000000000E+00 0.  1.
         21   -1    0    0  501  502 -0.00000000000E+00 -0.00000000000E+00 -0.63578381959E+03  0.63578381959E+03  0.00000000000E+00 0.  1.
      99926    2    1    2    0    0  0.00000000000E+00  0.00000000000E+00 -0.55493424500E+03  0.71663339419E+03  0.45344393853E+03 0.  0.
      99925    2    3    3    0    0 -0.40579601629E+02 -0.48418235265E+02 -0.49524595813E+03  0.56431389687E+03  0.26304103402E+03 0.  0.
         25    1    4    4    0    0 -0.17448999453E+02  0.35656392336E+01 -0.30031458281E+03  0.32581212088E+03  0.12509000000E+03 0.  0.
         25    1    4    4    0    0 -0.23130602175E+02 -0.51983874499E+02 -0.19493137532E+03  0.23850177598E+03  0.12509000000E+03 0.  0.
         25    1    3    3    0    0  0.40579601629E+02  0.48418235265E+02 -0.59688286870E+02  0.15231949732E+03  0.12509000000E+03 0.  0.
<mgrwt>
<rscale>  2 0.45344394E+03</rscale>
<asrwt>0</asrwt>
<pdfrwt beam="1">  1       21 0.11889643E-01 0.45344394E+03</pdfrwt>
<pdfrwt beam="2">  1       21 0.93497625E-01 0.45344394E+03</pdfrwt>
<totfact> 0.52650701E+04</totfact>
</mgrwt>
</event>
<event>
 7    0  0.4712189E-002  0.4577133E+03  0.7546771E-02  0.1025447E+00
         21   -1    0    0  502  501  0.00000000000E+00  0.00000000000E+00  0.22529050484E+03  0.22529050484E+03  0.00000000000E+00 0.  1.
         21   -1    0    0  501  502 -0.00000000000E+00 -0.00000000000E+00 -0.23247921397E+03  0.23247921397E+03  0.00000000000E+00 0.  1.
      99926    2    1    2    0    0  0.00000000000E+00 -0.71054273576E-14 -0.71887091344E+01  0.45776971881E+03  0.45771327042E+03 0.  0.
      99925    2    3    3    0    0  0.94415675188E+02  0.45877139539E+02 -0.52899821742E+02  0.28819364275E+03  0.26313143660E+03 0.  0.
         25    1    3    3    0    0 -0.94415675188E+02 -0.45877139539E+02  0.45711112607E+02  0.16957607605E+03  0.12509000000E+03 0.  0.
         25    1    4    4    0    0  0.21626992192E+02  0.22682189631E+02 -0.58296716880E+02  0.14152110732E+03  0.12509000000E+03 0.  0.
         25    1    4    4    0    0  0.72788682996E+02  0.23194949909E+02  0.53968951385E+01  0.14667253543E+03  0.12509000000E+03 0.  0.
<mgrwt>
<rscale>  2 0.45771327E+03</rscale>
<asrwt>0</asrwt>
<pdfrwt beam="1">  1       21 0.33130957E-01 0.45771327E+03</pdfrwt>
<pdfrwt beam="2">  1       21 0.34188119E-01 0.45771327E+03</pdfrwt>
<totfact> 0.66883623E+04</totfact>
</mgrwt>
</event>
<event>
 7    0  0.4712189E-002  0.4550857E+03  0.7546771E-02  0.1026216E+00
         21   -1    0    0  502  501  0.00000000000E+00  0.00000000000E+00  0.15583230445E+03  0.15583230445E+03  0.00000000000E+00 0.  1.
         21   -1    0    0  501  502 -0.00000000000E+00 -0.00000000000E+00 -0.33225294818E+03  0.33225294818E+03  0.00000000000E+00 0.  1.
      99926    2    1    2    0    0  0.00000000000E+00 -0.14210854715E-13 -0.17642064373E+03  0.48808525264E+03  0.45508567359E+03 0.  0.
      99925    2    3    3    0    0  0.17150824396E+02 -0.94363560671E+02 -0.17559960106E+03  0.33045652882E+03  0.26299746232E+03 0.  0.
         25    1    4    4    0    0  0.13545590034E+02 -0.16671715194E+02 -0.11468584407E+03  0.17106074952E+03  0.12509000000E+03 0.  0.
         25    1    4    4    0    0  0.36052343626E+01 -0.77691845477E+02 -0.60913756990E+02  0.15939577930E+03  0.12509000000E+03 0.  0.
         25    1    3    3    0    0 -0.17150824396E+02  0.94363560671E+02 -0.82104266901E+00  0.15762872381E+03  0.12509000000E+03 0.  0.
<mgrwt>
<rscale>  2 0.45508567E+03</rscale>
<asrwt>0</asrwt>
<pdfrwt beam="1">  1       21 0.22916516E-01 0.45508567E+03</pdfrwt>
<pdfrwt beam="2">  1       21 0.48860727E-01 0.45508567E+03</pdfrwt>
<totfact> 0.66071149E+04</totfact>
</mgrwt>
</event>
<event>
 7    0  0.4712189E-002  0.4556126E+03  0.7546771E-02  0.1026061E+00
         21   -1    0    0  502  501  0.00000000000E+00  0.00000000000E+00  0.82900915482E+03  0.82900915482E+03  0.00000000000E+00 0. -1.
         21   -1    0    0  501  502 -0.00000000000E+00 -0.00000000000E+00 -0.62599672758E+02  0.62599672758E+02  0.00000000000E+00 0. -1.
      99926    2    1    2    0    0  0.00000000000E+00  0.00000000000E+00  0.76640948206E+03  0.89160882758E+03  0.45561256263E+03 0.  0.
      99925    2    3    3    0    0  0.57759142406E+02  0.46818917824E+02  0.65041414755E+03  0.70551596010E+03  0.26303246383E+03 0.  0.
         25    1    4    4    0    0  0.29408911209E+02 -0.74644976228E+01  0.38225973535E+03  0.40334924836E+03  0.12509000000E+03 0.  0.
         25    1    3    3    0    0 -0.57759142406E+02 -0.46818917824E+02  0.11599533451E+03  0.18609286748E+03  0.12509000000E+03 0.  0.
         25    1    4    4    0    0  0.28350231198E+02  0.54283415447E+02  0.26815441220E+03  0.30216671174E+03  0.12509000000E+03 0.  0.
<mgrwt>
<rscale>  2 0.45561256E+03</rscale>
<asrwt>0</asrwt>
<pdfrwt beam="1">  1       21 0.12191310E+00 0.45561256E+03</pdfrwt>
<pdfrwt beam="2">  1       21 0.92058348E-02 0.45561256E+03</pdfrwt>
<totfact> 0.43389981E+04</totfact>
</mgrwt>
</event>
<event>
 7    0  0.4712189E-002  0.4581136E+03  0.7546771E-02  0.1025330E+00
         21   -1    0    0  502  501  0.00000000000E+00  0.00000000000E+00  0.10741720763E+03  0.10741720763E+03  0.00000000000E+00 0. -1.
         21   -1    0    0  501  502 -0.00000000000E+00 -0.00000000000E+00 -0.48844141522E+03  0.48844141522E+03  0.00000000000E+00 0. -1.
      99926    2    1    2    0    0  0.00000000000E+00  0.00000000000E+00 -0.38102420760E+03  0.59585862285E+03  0.45811357942E+03 0.  0.
      99925    2    3    3    0    0  0.74218534421E+02 -0.89130917472E+02 -0.23490462126E+03  0.37124528195E+03  0.26304023832E+03 0.  0.
         25    1    4    4    0    0  0.23370751417E+02 -0.11254547229E+02 -0.13624002795E+03  0.18676645890E+03  0.12509000000E+03 0.  0.
         25    1    4    4    0    0  0.50847783004E+02 -0.77876370242E+02 -0.98664593311E+02  0.18447882304E+03  0.12509000000E+03 0.  0.
         25    1    3    3    0    0 -0.74218534421E+02  0.89130917472E+02 -0.14611958633E+03  0.22461334090E+03  0.12509000000E+03 0.  0.
<mgrwt>
<rscale>  2 0.45811358E+03</rscale>
<asrwt>0</asrwt>
<pdfrwt beam="1">  1       21 0.15796648E-01 0.45811358E+03</pdfrwt>
<pdfrwt beam="2">  1       21 0.71829620E-01 0.45811358E+03</pdfrwt>
<totfact> 0.57505888E+04</totfact>
</mgrwt>
</event>
<event>
 7    0  0.4712189E-002  0.4544098E+03  0.7546771E-02  0.1026415E+00
         21   -1    0    0  502  501  0.00000000000E+00  0.00000000000E+00  0.11080548488E+03  0.11080548488E+03  0.00000000000E+00 0. -1.
         21   -1    0    0  501  502 -0.00000000000E+00 -0.00000000000E+00 -0.46588008854E+03  0.46588008854E+03  0.00000000000E+00 0. -1.
      99926    2    1    2    0    0  0.00000000000E+00 -0.35527136788E-14 -0.35507460366E+03  0.57668557342E+03  0.45440981110E+03 0.  0.
      99925    2    3    3    0    0  0.21728811776E+02  0.31327400669E+02 -0.88923938949E+02  0.28014344872E+03  0.26290556793E+03 0.  0.
         25    1    4    4    0    0  0.42363787657E+02 -0.77926791341E+01 -0.54399887290E+02  0.14304639873E+03  0.12509000000E+03 0.  0.
         25    1    4    4    0    0 -0.20634975881E+02  0.39120079803E+02 -0.34524051660E+02  0.13709704999E+03  0.12509000000E+03 0.  0.
         25    1    3    3    0    0 -0.21728811776E+02 -0.31327400669E+02 -0.26615066472E+03  0.29654212470E+03  0.12509000000E+03 0.  0.
<mgrwt>
<rscale>  2 0.45440981E+03</rscale>
<asrwt>0</asrwt>
<pdfrwt beam="1">  1       21 0.16294924E-01 0.45440981E+03</pdfrwt>
<pdfrwt beam="2">  1       21 0.68511777E-01 0.45440981E+03</pdfrwt>
<totfact> 0.60418216E+04</totfact>
</mgrwt>
</event>
<event>
 7    0  0.4712189E-002  0.4463305E+03  0.7546771E-02  0.1028822E+00
         21   -1    0    0  502  501  0.00000000000E+00  0.00000000000E+00  0.65450181288E+03  0.65450181288E+03  0.00000000000E+00 0.  1.
         21   -1    0    0  501  502 -0.00000000000E+00 -0.00000000000E+00 -0.76092563612E+02  0.76092563612E+02  0.00000000000E+00 0.  1.
      99926    2    1    2    0    0  0.00000000000E+00  0.00000000000E+00  0.57840924927E+03  0.73059437649E+03  0.44633046426E+03 0.  0.
      99925    2    3    3    0    0  0.33181094539E+02 -0.69728617982E+02  0.25209759485E+03  0.37269792623E+03  0.26341503694E+03 0.  0.
         25    1    4    4    0    0 -0.13284349863E+02 -0.60817659641E+02  0.14497557811E+03  0.20134718281E+03  0.12509000000E+03 0.  0.
         25    1    4    4    0    0  0.46465444401E+02 -0.89109583411E+01  0.10712201674E+03  0.17135074342E+03  0.12509000000E+03 0.  0.
         25    1    3    3    0    0 -0.33181094539E+02  0.69728617982E+02  0.32631165441E+03  0.35789645026E+03  0.12509000000E+03 0.  0.
<mgrwt>
<rscale>  2 0.44633046E+03</rscale>
<asrwt>0</asrwt>
<pdfrwt beam="1">  1       21 0.96250264E-01 0.44633046E+03</pdfrwt>
<pdfrwt beam="2">  1       21 0.11190083E-01 0.44633046E+03</pdfrwt>
<totfact> 0.54922670E+04</totfact>
</mgrwt>
</event>
<event>
 7    0  0.4712189E-002  0.4498054E+03  0.7546771E-02  0.1027780E+00
         21   -1    0    0  502  501  0.00000000000E+00  0.00000000000E+00  0.25797343176E+02  0.25797343176E+02  0.00000000000E+00 0.  1.
         21   -1    0    0  501  502 -0.00000000000E+00 -0.00000000000E+00 -0.19607143772E+04  0.19607143772E+04  0.00000000000E+00 0.  1.
      99926    2    1    2    0    0  0.00000000000E+00  0.00000000000E+00 -0.19349170340E+04  0.19865117204E+04  0.44980538751E+03 0.  0.
      99925    2    3    3    0    0 -0.27837790213E+02  0.10012028347E+03 -0.13567693974E+04  0.13859276617E+04  0.26300812147E+03 0.  0.
         25    1    4    4    0    0 -0.28489217956E+02  0.26988724901E+02 -0.79685839253E+03  0.80757094590E+03  0.12509000000E+03 0.  0.
         25    1    3    3    0    0  0.27837790213E+02 -0.10012028347E+03 -0.57814763659E+03  0.60058405866E+03  0.12509000000E+03 0.  0.
         25    1    4    4    0    0  0.65142774298E+00  0.73131558566E+02 -0.55991100491E+03  0.57835671582E+03  0.12509000000E+03 0.  0.
<mgrwt>
<rscale>  2 0.44980539E+03</rscale>
<asrwt>0</asrwt>
<pdfrwt beam="1">  1       21 0.37937265E-02 0.44980539E+03</pdfrwt>
<pdfrwt beam="2">  1       21 0.28834038E+00 0.44980539E+03</pdfrwt>
<totfact> 0.14507378E+04</totfact>
</mgrwt>
</event>
<event>
 7    0  0.4712189E-002  0.4556495E+03  0.7546771E-02  0.1026051E+00
         21   -1    0    0  502  501  0.00000000000E+00  0.00000000000E+00  0.77818668196E+03  0.77818668196E+03  0.00000000000E+00 0. -1.
         21   -1    0    0  501  502 -0.00000000000E+00 -0.00000000000E+00 -0.66698784261E+02  0.66698784261E+02  0.00000000000E+00 0. -1.
      99926    2    1    2    0    0  0.00000000000E+00  0.00000000000E+00  0.71148789770E+03  0.84488546622E+03  0.45564945129E+03 0.  0.
      99925    2    3    3    0    0  0.93275585126E+02 -0.11032743649E+02  0.32902194995E+03  0.43166667974E+03  0.26317033008E+03 0.  0.
         25    1    4    4    0    0  0.86486389194E+02  0.99311469690E+01  0.18146601857E+03  0.23697246083E+03  0.12509000000E+03 0.  0.
         25    1    3    3    0    0 -0.93275585126E+02  0.11032743649E+02  0.38246594775E+03  0.41321878648E+03  0.12509000000E+03 0.  0.
         25    1    4    4    0    0  0.67891959313E+01 -0.20963890618E+02  0.14755593138E+03  0.19469421891E+03  0.12509000000E+03 0.  0.
<mgrwt>
<rscale>  2 0.45564945E+03</rscale>
<asrwt>0</asrwt>
<pdfrwt beam="1">  1       21 0.11443921E+00 0.45564945E+03</pdfrwt>
<pdfrwt beam="2">  1       21 0.98086452E-02 0.45564945E+03</pdfrwt>
<totfact> 0.45437101E+04</totfact>
</mgrwt>
</event>
<event>
 7    0  0.4712189E-002  0.4561820E+03  0.7546771E-02  0.1025894E+00
         21   -1    0    0  502  501  0.00000000000E+00  0.00000000000E+00  0.19936150156E+03  0.19936150156E+03  0.00000000000E+00 0. -1.
         21   -1    0    0  501  502 -0.00000000000E+00 -0.00000000000E+00 -0.26096068092E+03  0.26096068092E+03  0.00000000000E+00 0. -1.
      99926    2    1    2    0    0  0.71054273576E-14 -0.71054273576E-14 -0.61599179361E+02  0.46032218248E+03  0.45618203909E+03 0.  0.
      99925    2    3    3    0    0 -0.57851785636E+02  0.56006434328E+02 -0.12008181892E+03  0.30047451432E+03  0.26340413955E+03 0.  0.
         25    1    4    4    0    0  0.24483448943E+01  0.44018110780E+02 -0.34982338495E+02  0.13716727225E+03  0.12509000000E+03 0.  0.
         25    1    3    3    0    0  0.57851785636E+02 -0.56006434328E+02  0.58482639563E+02  0.15984766816E+03  0.12509000000E+03 0.  0.
         25    1    4    4    0    0 -0.60300130530E+02  0.11988323548E+02 -0.85099480429E+02  0.16330724207E+03  0.12509000000E+03 0.  0.
<mgrwt>
<rscale>  2 0.45618204E+03</rscale>
<asrwt>0</asrwt>
<pdfrwt beam="1">  1       21 0.29317868E-01 0.45618204E+03</pdfrwt>
<pdfrwt beam="2">  1       21 0.38376570E-01 0.45618204E+03</pdfrwt>
<totfact> 0.67518382E+04</totfact>
</mgrwt>
</event>
<event>
 7    0  0.4712189E-002  0.4439884E+03  0.7546771E-02  0.1029530E+00
         21   -1    0    0  502  501  0.00000000000E+00  0.00000000000E+00  0.16645719440E+03  0.16645719440E+03  0.00000000000E+00 0.  1.
         21   -1    0    0  501  502 -0.00000000000E+00 -0.00000000000E+00 -0.29606064527E+03  0.29606064527E+03  0.00000000000E+00 0.  1.
      99926    2    1    2    0    0  0.71054273576E-14  0.00000000000E+00 -0.12960345087E+03  0.46251783967E+03  0.44398839797E+03 0.  0.
      99925    2    3    3    0    0 -0.42973038390E+02  0.42752787536E+02 -0.16853394787E+03  0.31816558105E+03  0.26296608623E+03 0.  0.
         25    1    3    3    0    0  0.42973038390E+02 -0.42752787536E+02  0.38930497003E+02  0.14435225862E+03  0.12509000000E+03 0.  0.
         25    1    4    4    0    0 -0.62226740773E+02  0.18083593557E+02 -0.90698163201E+02  0.16754954053E+03  0.12509000000E+03 0.  0.
         25    1    4    4    0    0  0.19253702383E+02  0.24669193980E+02 -0.77835784671E+02  0.15061604052E+03  0.12509000000E+03 0.  0.
<mgrwt>
<rscale>  2 0.44398840E+03</rscale>
<asrwt>0</asrwt>
<pdfrwt beam="1">  1       21 0.24478999E-01 0.44398840E+03</pdfrwt>
<pdfrwt beam="2">  1       21 0.43538331E-01 0.44398840E+03</pdfrwt>
<totfact> 0.74275902E+04</totfact>
</mgrwt>
</event>
<event>
 7    0  0.4712189E-002  0.4593460E+03  0.7546771E-02  0.1024971E+00
         21   -1    0    0  502  501  0.00000000000E+00  0.00000000000E+00  0.86439709875E+02  0.86439709875E+02  0.00000000000E+00 0.  1.
         21   -1    0    0  501  502 -0.00000000000E+00 -0.00000000000E+00 -0.61024828765E+03  0.61024828765E+03  0.00000000000E+00 0.  1.
      99926    2    1    2    0    0  0.00000000000E+00 -0.17763568394E-14 -0.52380857778E+03  0.69668799753E+03  0.45934599133E+03 0.  0.
      99925    2    3    3    0    0  0.84789382764E+02 -0.12450618475E+02 -0.44973769833E+03  0.52793296616E+03  0.26287822681E+03 0.  0.
         25    1    4    4    0    0  0.67885126572E+01 -0.27500673196E+02 -0.20343389633E+03  0.24048956153E+03  0.12509000000E+03 0.  0.
         25    1    4    4    0    0  0.78000870107E+02  0.15050054721E+02 -0.24630380200E+03  0.28744340463E+03  0.12509000000E+03 0.  0.
         25    1    3    3    0    0 -0.84789382764E+02  0.12450618475E+02 -0.74070879449E+02  0.16875503137E+03  0.12509000000E+03 0.  0.
<mgrwt>
<rscale>  2 0.45934599E+03</rscale>
<asrwt>0</asrwt>
<pdfrwt beam="1">  1       21 0.12711722E-01 0.45934599E+03</pdfrwt>
<pdfrwt beam="2">  1       21 0.89742398E-01 0.45934599E+03</pdfrwt>
<totfact> 0.51305568E+04</totfact>
</mgrwt>
</event>
<event>
 7    0  0.4712189E-002  0.4541399E+03  0.7546771E-02  0.1026495E+00
         21   -1    0    0  502  501  0.00000000000E+00  0.00000000000E+00  0.48654439067E+03  0.48654439067E+03  0.00000000000E+00 0.  1.
         21   -1    0    0  501  502 -0.00000000000E+00 -0.00000000000E+00 -0.10597338043E+03  0.10597338043E+03  0.00000000000E+00 0.  1.
      99926    2    1    2    0    0  0.00000000000E+00  0.00000000000E+00  0.38057101024E+03  0.59251777110E+03  0.45413986307E+03 0.  0.
      99925    2    3    3    0    0  0.10710517238E+03 -0.31056979319E+02  0.22276900330E+03  0.36233298574E+03  0.26310285026E+03 0.  0.
         25    1    3    3    0    0 -0.10710517238E+03  0.31056979319E+02  0.15780200694E+03  0.23018478535E+03  0.12509000000E+03 0.  0.
         25    1    4    4    0    0  0.49224685326E+02  0.12854357921E+02  0.14481483780E+03  0.19800795315E+03  0.12509000000E+03 0.  0.
         25    1    4    4    0    0  0.57880487050E+02 -0.43911337240E+02  0.77954165504E+02  0.16432503260E+03  0.12509000000E+03 0.  0.
<mgrwt>
<rscale>  2 0.45413986E+03</rscale>
<asrwt>0</asrwt>
<pdfrwt beam="1">  1       21 0.71550645E-01 0.45413986E+03</pdfrwt>
<pdfrwt beam="2">  1       21 0.15584321E-01 0.45413986E+03</pdfrwt>
<totfact> 0.59544928E+04</totfact>
</mgrwt>
</event>
<event>
 7    0  0.4712189E-002  0.4726020E+03  0.7546771E-02  0.1021188E+00
         21   -1    0    0  502  501  0.00000000000E+00  0.00000000000E+00  0.14582565111E+04  0.14582565111E+04  0.00000000000E+00 0.  1.
         21   -1    0    0  501  502 -0.00000000000E+00 -0.00000000000E+00 -0.38291044060E+02  0.38291044060E+02  0.00000000000E+00 0.  1.
      99926    2    1    2    0    0  0.00000000000E+00  0.00000000000E+00  0.14199654670E+04  0.14965475551E+04  0.47260200726E+03 0.  0.
      99925    2    3    3    0    0 -0.71752495921E+02  0.48677704334E+02  0.11826652805E+04  0.12146312090E+04  0.26289516683E+03 0.  0.
         25    1    3    3    0    0  0.71752495921E+02 -0.48677704334E+02  0.23730018657E+03  0.28191634613E+03  0.12509000000E+03 0.  0.
         25    1    4    4    0    0  0.45546828896E+01  0.11905986651E+02  0.53079151019E+03  0.54548110237E+03  0.12509000000E+03 0.  0.
         25    1    4    4    0    0 -0.76307178811E+02  0.36771717683E+02  0.65187377027E+03  0.66915010664E+03  0.12509000000E+03 0.  0.
<mgrwt>
<rscale>  2 0.47260201E+03</rscale>
<asrwt>0</asrwt>
<pdfrwt beam="1">  1       21 0.21444945E+00 0.47260201E+03</pdfrwt>
<pdfrwt beam="2">  1       21 0.56310368E-02 0.47260201E+03</pdfrwt>
<totfact> 0.20862464E+04</totfact>
</mgrwt>
</event>
<event>
 7    0  0.4712189E-002  0.4405925E+03  0.7546771E-02  0.1030565E+00
         21   -1    0    0  502  501  0.00000000000E+00  0.00000000000E+00  0.98627632672E+03  0.98627632672E+03  0.00000000000E+00 0.  1.
         21   -1    0    0  501  502 -0.00000000000E+00 -0.00000000000E+00 -0.49205712243E+02  0.49205712243E+02  0.00000000000E+00 0.  1.
      99926    2    1    2    0    0  0.00000000000E+00  0.00000000000E+00  0.93707061447E+03  0.10354820390E+04  0.44059246078E+03 0.  0.
      99925    2    3    3    0    0  0.73357102032E+02 -0.31488931016E+02  0.73543152728E+03  0.78512500036E+03  0.26303786356E+03 0.  0.
         25    1    4    4    0    0  0.43743937688E+02 -0.29385370764E+02  0.48478322083E+03  0.50342756321E+03  0.12509000000E+03 0.  0.
         25    1    3    3    0    0 -0.73357102032E+02  0.31488931016E+02  0.20163908719E+03  0.25035703860E+03  0.12509000000E+03 0.  0.
         25    1    4    4    0    0  0.29613164345E+02 -0.21035602519E+01  0.25064830645E+03  0.28169743715E+03  0.12509000000E+03 0.  0.
<mgrwt>
<rscale>  2 0.44059246E+03</rscale>
<asrwt>0</asrwt>
<pdfrwt beam="1">  1       21 0.14504062E+00 0.44059246E+03</pdfrwt>
<pdfrwt beam="2">  1       21 0.72361348E-02 0.44059246E+03</pdfrwt>
<totfact> 0.42384790E+04</totfact>
</mgrwt>
</event>
<event>
 7    0  0.4712189E-002  0.4479732E+03  0.7546771E-02  0.1028328E+00
         21   -1    0    0  502  501  0.00000000000E+00  0.00000000000E+00  0.58193733595E+03  0.58193733595E+03  0.00000000000E+00 0.  1.
         21   -1    0    0  501  502 -0.00000000000E+00 -0.00000000000E+00 -0.86212026470E+02  0.86212026470E+02  0.00000000000E+00 0.  1.
      99926    2    1    2    0    0  0.00000000000E+00 -0.14210854715E-13  0.49572530948E+03  0.66814936242E+03  0.44797320014E+03 0.  0.
      99925    2    3    3    0    0  0.30755005595E+02  0.10202348259E+03  0.30936544872E+03  0.41968977381E+03  0.26282668055E+03 0.  0.
         25    1    4    4    0    0  0.40329074798E+00  0.89719235095E+02  0.15755668260E+03  0.22027555498E+03  0.12509000000E+03 0.  0.
         25    1    3    3    0    0 -0.30755005595E+02 -0.10202348259E+03  0.18635986076E+03  0.24845958861E+03  0.12509000000E+03 0.  0.
         25    1    4    4    0    0  0.30351714847E+02  0.12304247500E+02  0.15180876612E+03  0.19941421883E+03  0.12509000000E+03 0.  0.
<mgrwt>
<rscale>  2 0.44797320E+03</rscale>
<asrwt>0</asrwt>
<pdfrwt beam="1">  1       21 0.85579018E-01 0.44797320E+03</pdfrwt>
<pdfrwt beam="2">  1       21 0.12678239E-01 0.44797320E+03</pdfrwt>
<totfact> 0.57801139E+04</totfact>
</mgrwt>
</event>
<event>
 7    0  0.4712189E-002  0.4558523E+03  0.7546771E-02  0.1025991E+00
         21   -1    0    0  502  501  0.00000000000E+00  0.00000000000E+00  0.34740988164E+03  0.34740988164E+03  0.00000000000E+00 0.  1.
         21   -1    0    0  501  502 -0.00000000000E+00 -0.00000000000E+00 -0.14953613668E+03  0.14953613668E+03  0.00000000000E+00 0.  1.
      99926    2    1    2    0    0 -0.14210854715E-13  0.00000000000E+00  0.19787374496E+03  0.49694601833E+03  0.45585230743E+03 0.  0.
      99925    2    3    3    0    0  0.71016001663E+02  0.45193214950E+02  0.40640931187E+02  0.27910349494E+03  0.26298550612E+03 0.  0.
         25    1    4    4    0    0  0.54137417846E+01  0.11346876863E+02  0.45698872330E+02  0.13376828939E+03  0.12509000000E+03 0.  0.
         25    1    3    3    0    0 -0.71016001663E+02 -0.45193214950E+02  0.15723281377E+03  0.21784252339E+03  0.12509000000E+03 0.  0.
         25    1    4    4    0    0  0.65602259879E+02  0.33846338087E+02 -0.50579411427E+01  0.14533520555E+03  0.12509000000E+03 0.  0.
<mgrwt>
<rscale>  2 0.45585231E+03</rscale>
<asrwt>0</asrwt>
<pdfrwt beam="1">  1       21 0.51089688E-01 0.45585231E+03</pdfrwt>
<pdfrwt beam="2">  1       21 0.21990608E-01 0.45585231E+03</pdfrwt>
<totfact> 0.65044541E+04</totfact>
</mgrwt>
</event>
<event>
 7    0  0.4712189E-002  0.4587973E+03  0.7546771E-02  0.1025131E+00
         21   -1    0    0  502  501  0.00000000000E+00  0.00000000000E+00  0.16225239608E+03  0.16225239608E+03  0.00000000000E+00 0. -1.
         21   -1    0    0  501  502 -0.00000000000E+00 -0.00000000000E+00 -0.32433253145E+03  0.32433253145E+03  0.00000000000E+00 0. -1.
      99926    2    1    2    0    0  0.71054273576E-14  0.00000000000E+00 -0.16208013537E+03  0.48658492754E+03  0.45879725525E+03 0.  0.
      99925    2    3    3    0    0  0.54312383638E+02  0.36213894804E+02  0.85621140445E+00  0.27104596959E+03  0.26306634779E+03 0.  0.
         25    1    4    4    0    0  0.22868619074E+02 -0.22704638813E+02 -0.26478838625E+01  0.12920136900E+03  0.12509000000E+03 0.  0.
         25    1    4    4    0    0  0.31443764564E+02  0.58918533617E+02  0.35040952670E+01  0.14184460059E+03  0.12509000000E+03 0.  0.
         25    1    3    3    0    0 -0.54312383638E+02 -0.36213894804E+02 -0.16293634677E+03  0.21553895795E+03  0.12509000000E+03 0.  0.
<mgrwt>
<rscale>  2 0.45879726E+03</rscale>
<asrwt>0</asrwt>
<pdfrwt beam="1">  1       21 0.23860647E-01 0.45879726E+03</pdfrwt>
<pdfrwt beam="2">  1       21 0.47695960E-01 0.45879726E+03</pdfrwt>
<totfact> 0.64264676E+04</totfact>
</mgrwt>
</event>
<event>
 7    0  0.4712189E-002  0.4668323E+03  0.7546771E-02  0.1022818E+00
         21   -1    0    0  502  501  0.00000000000E+00  0.00000000000E+00  0.12480357108E+03  0.12480357108E+03  0.00000000000E+00 0.  1.
         21   -1    0    0  501  502 -0.00000000000E+00 -0.00000000000E+00 -0.43655078123E+03  0.43655078123E+03  0.00000000000E+00 0.  1.
      99926    2    1    2    0    0  0.00000000000E+00 -0.35527136788E-14 -0.31174721015E+03  0.56135435231E+03  0.46683228875E+03 0.  0.
      99925    2    3    3    0    0 -0.11722125081E+03 -0.26870109163E+02 -0.15767828028E+03  0.32930356549E+03  0.26289840959E+03 0.  0.
         25    1    4    4    0    0 -0.55758064133E+02  0.17265958720E+02 -0.46584545694E+02  0.14568700369E+03  0.12509000000E+03 0.  0.
         25    1    3    3    0    0  0.11722125081E+03  0.26870109163E+02 -0.15406892988E+03  0.23205078682E+03  0.12509000000E+03 0.  0.
         25    1    4    4    0    0 -0.61463186681E+02 -0.44136067883E+02 -0.11109373458E+03  0.18361656181E+03  0.12509000000E+03 0.  0.
<mgrwt>
<rscale>  2 0.46683229E+03</rscale>
<asrwt>0</asrwt>
<pdfrwt beam="1">  1       21 0.18353466E-01 0.46683229E+03</pdfrwt>
<pdfrwt beam="2">  1       21 0.64198645E-01 0.46683229E+03</pdfrwt>
<totfact> 0.55721299E+04</totfact>
</mgrwt>
</event>
<event>
 7    0  0.4712189E-002  0.4543939E+03  0.7546771E-02  0.1026420E+00
         21   -1    0    0  502  501  0.00000000000E+00  0.00000000000E+00  0.42578053808E+02  0.42578053808E+02  0.00000000000E+00 0. -1.
         21   -1    0    0  501  502 -0.00000000000E+00 -0.00000000000E+00 -0.12123253649E+04  0.12123253649E+04  0.00000000000E+00 0. -1.
      99926    2    1    2    0    0  0.71054273576E-14  0.00000000000E+00 -0.11697473111E+04  0.12549034187E+04  0.45439390233E+03 0.  0.
      99925    2    3    3    0    0  0.56521182999E+02  0.65247640529E+02 -0.93648697337E+03  0.97649761421E+03  0.26284565918E+03 0.  0.
         25    1    3    3    0    0 -0.56521182999E+02 -0.65247640529E+02 -0.23326033772E+03  0.27840580449E+03  0.12509000000E+03 0.  0.
         25    1    4    4    0    0  0.55107023666E+02  0.33496638584E+02 -0.37955846063E+03  0.40480976025E+03  0.12509000000E+03 0.  0.
         25    1    4    4    0    0  0.14141593325E+01  0.31751001945E+02 -0.55692851273E+03  0.57168785396E+03  0.12509000000E+03 0.  0.
<mgrwt>
<rscale>  2 0.45439390E+03</rscale>
<asrwt>0</asrwt>
<pdfrwt beam="1">  1       21 0.62614779E-02 0.45439390E+03</pdfrwt>
<pdfrwt beam="2">  1       21 0.17828316E+00 0.45439390E+03</pdfrwt>
<totfact> 0.30597111E+04</totfact>
</mgrwt>
</event>
<event>
 7    0  0.4712189E-002  0.4553303E+03  0.7546771E-02  0.1026144E+00
         21   -1    0    0  502  501  0.00000000000E+00  0.00000000000E+00  0.12905518768E+03  0.12905518768E+03  0.00000000000E+00 0.  1.
         21   -1    0    0  501  502 -0.00000000000E+00 -0.00000000000E+00 -0.40162217518E+03  0.40162217518E+03  0.00000000000E+00 0.  1.
      99926    2    1    2    0    0 -0.14210854715E-13 -0.71054273576E-14 -0.27256698750E+03  0.53067736287E+03  0.45533032052E+03 0.  0.
      99925    2    3    3    0    0 -0.10010728159E+03 -0.41790545195E+02 -0.21039801317E+03  0.35381468460E+03  0.26296309550E+03 0.  0.
         25    1    4    4    0    0 -0.73098476173E+02 -0.53550544906E+02 -0.13272993842E+03  0.20365606480E+03  0.12509000000E+03 0.  0.
         25    1    4    4    0    0 -0.27008805417E+02  0.11759999711E+02 -0.77668074756E+02  0.15015861980E+03  0.12509000000E+03 0.  0.
         25    1    3    3    0    0  0.10010728159E+03  0.41790545195E+02 -0.62168974324E+02  0.17686267827E+03  0.12509000000E+03 0.  0.
<mgrwt>
<rscale>  2 0.45533032E+03</rscale>
<asrwt>0</asrwt>
<pdfrwt beam="1">  1       21 0.18978704E-01 0.45533032E+03</pdfrwt>
<pdfrwt beam="2">  1       21 0.59062085E-01 0.45533032E+03</pdfrwt>
<totfact> 0.62995605E+04</totfact>
</mgrwt>
</event>
<event>
 7    0  0.4712189E-002  0.4582656E+03  0.7546771E-02  0.1025285E+00
         21   -1    0    0  502  501  0.00000000000E+00  0.00000000000E+00  0.61398508200E+03  0.61398508200E+03  0.00000000000E+00 0. -1.
         21   -1    0    0  501  502 -0.00000000000E+00 -0.00000000000E+00 -0.85509961039E+02  0.85509961039E+02  0.00000000000E+00 0. -1.
      99926    2    1    2    0    0 -0.71054273576E-14  0.00000000000E+00  0.52847512096E+03  0.69949504304E+03  0.45826560176E+03 0.  0.
      99925    2    3    3    0    0 -0.46605122340E+02  0.95800831408E+02  0.26067236804E+03  0.38530456053E+03  0.26298228872E+03 0.  0.
         25    1    3    3    0    0  0.46605122340E+02 -0.95800831408E+02  0.26780275292E+03  0.31419048251E+03  0.12509000000E+03 0.  0.
         25    1    4    4    0    0  0.10763953652E+02  0.65182498115E+02  0.14893977815E+03  0.20541466932E+03  0.12509000000E+03 0.  0.
         25    1    4    4    0    0 -0.57369075992E+02  0.30618333293E+02  0.11173258989E+03  0.17988989120E+03  0.12509000000E+03 0.  0.
<mgrwt>
<rscale>  2 0.45826560E+03</rscale>
<asrwt>0</asrwt>
<pdfrwt beam="1">  1       21 0.90291922E-01 0.45826560E+03</pdfrwt>
<pdfrwt beam="2">  1       21 0.12574995E-01 0.45826560E+03</pdfrwt>
<totfact> 0.51591626E+04</totfact>
</mgrwt>
</event>
<event>
 7    0  0.4712189E-002  0.4498386E+03  0.7546771E-02  0.1027770E+00
         21   -1    0    0  502  501  0.00000000000E+00  0.00000000000E+00  0.27798763416E+03  0.27798763416E+03  0.00000000000E+00 0.  1.
         21   -1    0    0  501  502 -0.00000000000E+00 -0.00000000000E+00 -0.18198177236E+03  0.18198177236E+03  0.00000000000E+00 0.  1.
      99926    2    1    2    0    0  0.00000000000E+00  0.00000000000E+00  0.96005861793E+02  0.45996940652E+03  0.44983855930E+03 0.  0.
      99925    2    3    3    0    0 -0.67791031223E+02 -0.72010223465E+02  0.15619136836E+02  0.28138992884E+03  0.26297383600E+03 0.  0.
         25    1    4    4    0    0 -0.56383908890E+02 -0.51498910173E+02 -0.23082423172E+02  0.14836303209E+03  0.12509000000E+03 0.  0.
         25    1    3    3    0    0  0.67791031223E+02  0.72010223465E+02  0.80386724957E+02  0.17857947768E+03  0.12509000000E+03 0.  0.
         25    1    4    4    0    0 -0.11407122333E+02 -0.20511313292E+02  0.38701560008E+02  0.13302689675E+03  0.12509000000E+03 0.  0.
<mgrwt>
<rscale>  2 0.44983856E+03</rscale>
<asrwt>0</asrwt>
<pdfrwt beam="1">  1       21 0.40880535E-01 0.44983856E+03</pdfrwt>
<pdfrwt beam="2">  1       21 0.26762025E-01 0.44983856E+03</pdfrwt>
<totfact> 0.71054389E+04</totfact>
</mgrwt>
</event>
<event>
 7    0  0.4712189E-002  0.4482077E+03  0.7546771E-02  0.1028258E+00
         21   -1    0    0  502  501  0.00000000000E+00  0.00000000000E+00  0.18472038728E+03  0.18472038728E+03  0.00000000000E+00 0.  1.
         21   -1    0    0  501  502 -0.00000000000E+00 -0.00000000000E+00 -0.27188412847E+03  0.27188412847E+03  0.00000000000E+00 0.  1.
      99926    2    1    2    0    0  0.17763568394E-14  0.00000000000E+00 -0.87163741194E+02  0.45660451575E+03  0.44820772642E+03 0.  0.
      99925    2    3    3    0    0  0.14293963304E+02 -0.83013678472E+02 -0.12193562088E+03  0.30183959751E+03  0.26295105778E+03 0.  0.
         25    1    4    4    0    0 -0.28090699117E+02 -0.31366025307E+02 -0.78295209450E+02  0.15346192636E+03  0.12509000000E+03 0.  0.
         25    1    4    4    0    0  0.42384662421E+02 -0.51647653165E+02 -0.43640411428E+02  0.14837767115E+03  0.12509000000E+03 0.  0.
         25    1    3    3    0    0 -0.14293963304E+02  0.83013678472E+02  0.34771879685E+02  0.15476491824E+03  0.12509000000E+03 0.  0.
<mgrwt>
<rscale>  2 0.44820773E+03</rscale>
<asrwt>0</asrwt>
<pdfrwt beam="1">  1       21 0.27164763E-01 0.44820773E+03</pdfrwt>
<pdfrwt beam="2">  1       21 0.39982960E-01 0.44820773E+03</pdfrwt>
<totfact> 0.72261463E+04</totfact>
</mgrwt>
</event>
<event>
 7    0  0.4712189E-002  0.4855516E+03  0.7546771E-02  0.1017620E+00
         21   -1    0    0  502  501  0.00000000000E+00  0.00000000000E+00  0.95292753536E+03  0.95292753536E+03  0.00000000000E+00 0. -1.
         21   -1    0    0  501  502 -0.00000000000E+00 -0.00000000000E+00 -0.61851603507E+02  0.61851603507E+02  0.00000000000E+00 0. -1.
      99926    2    1    2    0    0  0.00000000000E+00  0.28421709430E-13  0.89107593185E+03  0.10147791389E+04  0.48555162892E+03 0.  0.
      99925    2    3    3    0    0  0.28496916585E+02 -0.13662995204E+03  0.56631679092E+03  0.63981803986E+03  0.26300684099E+03 0.  0.
         25    1    4    4    0    0  0.14193724702E+02 -0.99756180772E+02  0.24738638082E+03  0.29495811048E+03  0.12509000000E+03 0.  0.
         25    1    4    4    0    0  0.14303191883E+02 -0.36873771263E+02  0.31893041011E+03  0.34485992938E+03  0.12509000000E+03 0.  0.
         25    1    3    3    0    0 -0.28496916585E+02  0.13662995204E+03  0.32475914093E+03  0.37496109900E+03  0.12509000000E+03 0.  0.
<mgrwt>
<rscale>  2 0.48555163E+03</rscale>
<asrwt>0</asrwt>
<pdfrwt beam="1">  1       21 0.14013639E+00 0.48555163E+03</pdfrwt>
<pdfrwt beam="2">  1       21 0.90958246E-02 0.48555163E+03</pdfrwt>
<totfact> 0.30613564E+04</totfact>
</mgrwt>
</event>
<event>
 7    0  0.4712189E-002  0.4596334E+03  0.7546771E-02  0.1024888E+00
         21   -1    0    0  502  501  0.00000000000E+00  0.00000000000E+00  0.28748059244E+03  0.28748059244E+03  0.00000000000E+00 0. -1.
         21   -1    0    0  501  502 -0.00000000000E+00 -0.00000000000E+00 -0.18371921285E+03  0.18371921285E+03  0.00000000000E+00 0. -1.
      99926    2    1    2    0    0 -0.14210854715E-13 -0.14210854715E-13  0.10376137959E+03  0.47119980529E+03  0.45963336760E+03 0.  0.
      99925    2    3    3    0    0  0.73660636199E+02  0.89603415242E+02  0.45852292356E+02  0.29104533870E+03  0.26296443698E+03 0.  0.
         25    1    4    4    0    0  0.59843974163E+02  0.77289939143E+02  0.76015834178E+01  0.15893498075E+03  0.12509000000E+03 0.  0.
         25    1    4    4    0    0  0.13816662036E+02  0.12313476099E+02  0.38250708938E+02  0.13211035795E+03  0.12509000000E+03 0.  0.
         25    1    3    3    0    0 -0.73660636199E+02 -0.89603415242E+02  0.57909087229E+02  0.18015446659E+03  0.12509000000E+03 0.  0.
<mgrwt>
<rscale>  2 0.45963337E+03</rscale>
<asrwt>0</asrwt>
<pdfrwt beam="1">  1       21 0.42276557E-01 0.45963337E+03</pdfrwt>
<pdfrwt beam="2">  1       21 0.27017531E-01 0.45963337E+03</pdfrwt>
<totfact> 0.64927484E+04</totfact>
</mgrwt>
</event>
<event>
 7    0  0.4712189E-002  0.4561819E+03  0.7546771E-02  0.1025894E+00
         21   -1    0    0  502  501  0.00000000000E+00  0.00000000000E+00  0.78176138097E+02  0.78176138097E+02  0.00000000000E+00 0. -1.
         21   -1    0    0  501  502 -0.00000000000E+00 -0.00000000000E+00 -0.66549055468E+03  0.66549055468E+03  0.00000000000E+00 0. -1.
      99926    2    1    2    0    0  0.71054273576E-14  0.00000000000E+00 -0.58731441658E+03  0.74366669277E+03  0.45618190014E+03 0.  0.
      99925    2    3    3    0    0  0.36728414776E+02  0.10090252173E+03 -0.30608110931E+03  0.41767593131E+03  0.26312970713E+03 0.  0.
         25    1    3    3    0    0 -0.36728414776E+02 -0.10090252173E+03 -0.28123330727E+03  0.32599076146E+03  0.12509000000E+03 0.  0.
         25    1    4    4    0    0 -0.96520807497E+01  0.80843929866E+02 -0.16390989184E+03  0.22168189913E+03  0.12509000000E+03 0.  0.
         25    1    4    4    0    0  0.46380495526E+02  0.20058591862E+02 -0.14217121748E+03  0.19599403218E+03  0.12509000000E+03 0.  0.
<mgrwt>
<rscale>  2 0.45618190E+03</rscale>
<asrwt>0</asrwt>
<pdfrwt beam="1">  1       21 0.11496491E-01 0.45618190E+03</pdfrwt>
<pdfrwt beam="2">  1       21 0.97866253E-01 0.45618190E+03</pdfrwt>
<totfact> 0.50128080E+04</totfact>
</mgrwt>
</event>
<event>
 7    0  0.4712189E-002  0.4575954E+03  0.7546771E-02  0.1025481E+00
         21   -1    0    0  502  501  0.00000000000E+00  0.00000000000E+00  0.10855780903E+03  0.10855780903E+03  0.00000000000E+00 0. -1.
         21   -1    0    0  501  502 -0.00000000000E+00 -0.00000000000E+00 -0.48221679128E+03  0.48221679128E+03  0.00000000000E+00 0. -1.
      99926    2    1    2    0    0  0.00000000000E+00  0.00000000000E+00 -0.37365898225E+03  0.59077460031E+03  0.45759544726E+03 0.  0.
      99925    2    3    3    0    0 -0.79353959830E+02  0.79565857003E+02 -0.19614815287E+03  0.34626411139E+03  0.26229174677E+03 0.  0.
         25    1    4    4    0    0 -0.44417334350E+02 -0.50193204189E+00 -0.88630785250E+02  0.15961226682E+03  0.12509000000E+03 0.  0.
         25    1    3    3    0    0  0.79353959830E+02 -0.79565857003E+02 -0.17751082938E+03  0.24451048892E+03  0.12509000000E+03 0.  0.
         25    1    4    4    0    0 -0.34936625480E+02  0.80067789045E+02 -0.10751736762E+03  0.18665184457E+03  0.12509000000E+03 0.  0.
<mgrwt>
<rscale>  2 0.45759545E+03</rscale>
<asrwt>0</asrwt>
<pdfrwt beam="1">  1       21 0.15964384E-01 0.45759545E+03</pdfrwt>
<pdfrwt beam="2">  1       21 0.70914234E-01 0.45759545E+03</pdfrwt>
<totfact> 0.58049769E+04</totfact>
</mgrwt>
</event>
<event>
 7    0  0.4712189E-002  0.4566542E+03  0.7546771E-02  0.1025756E+00
         21   -1    0    0  502  501  0.00000000000E+00  0.00000000000E+00  0.25570041626E+03  0.25570041626E+03  0.00000000000E+00 0.  1.
         21   -1    0    0  501  502 -0.00000000000E+00 -0.00000000000E+00 -0.20388413326E+03  0.20388413326E+03  0.00000000000E+00 0.  1.
      99926    2    1    2    0    0  0.00000000000E+00 -0.88817841970E-15  0.51816282995E+02  0.45958454952E+03  0.45665416999E+03 0.  0.
      99925    2    3    3    0    0 -0.56291103112E+02  0.30497283166E+01 -0.68016788336E+02  0.27741577553E+03  0.26297383878E+03 0.  0.
         25    1    4    4    0    0 -0.35148625770E+02 -0.32713020735E+02 -0.55449866586E+02  0.14500952873E+03  0.12509000000E+03 0.  0.
         25    1    4    4    0    0 -0.21142477343E+02  0.35762749051E+02 -0.12566921749E+02  0.13240624679E+03  0.12509000000E+03 0.  0.
         25    1    3    3    0    0  0.56291103112E+02 -0.30497283166E+01  0.11983307133E+03  0.18216877399E+03  0.12509000000E+03 0.  0.
<mgrwt>
<rscale>  2 0.45665417E+03</rscale>
<asrwt>0</asrwt>
<pdfrwt beam="1">  1       21 0.37603003E-01 0.45665417E+03</pdfrwt>
<pdfrwt beam="2">  1       21 0.29982961E-01 0.45665417E+03</pdfrwt>
<totfact> 0.67318310E+04</totfact>
</mgrwt>
</event>
<event>
 7    0  0.4712189E-002  0.4497230E+03  0.7546771E-02  0.1027805E+00
         21   -1    0    0  502  501  0.00000000000E+00  0.00000000000E+00  0.41718893456E+02  0.41718893456E+02  0.00000000000E+00 0.  1.
         21   -1    0    0  501  502 -0.00000000000E+00 -0.00000000000E+00 -0.12119855166E+04  0.12119855166E+04  0.00000000000E+00 0.  1.
      99926    2    1    2    0    0 -0.35527136788E-14  0.00000000000E+00 -0.11702666231E+04  0.12537044100E+04  0.44972300202E+03 0.  0.
      99925    2    3    3    0    0 -0.31181023573E+02  0.10361653992E+02 -0.10254500797E+04  0.10595422112E+04  0.26457931002E+03 0.  0.
         25    1    4    4    0    0 -0.42983411392E+02 -0.43743307065E+01 -0.65050378189E+03  0.66382933558E+03  0.12509000000E+03 0.  0.
         25    1    3    3    0    0  0.31181023573E+02 -0.10361653992E+02 -0.14481654347E+03  0.19416219886E+03  0.12509000000E+03 0.  0.
         25    1    4    4    0    0  0.11802387819E+02  0.14735984699E+02 -0.37494629777E+03  0.39571287560E+03  0.12509000000E+03 0.  0.
<mgrwt>
<rscale>  2 0.44972300E+03</rscale>
<asrwt>0</asrwt>
<pdfrwt beam="1">  1       21 0.61351323E-02 0.44972300E+03</pdfrwt>
<pdfrwt beam="2">  1       21 0.17823314E+00 0.44972300E+03</pdfrwt>
<totfact> 0.31774663E+04</totfact>
</mgrwt>
</event>
<event>
 7    0  0.4712189E-002  0.4555206E+03  0.7546771E-02  0.1026088E+00
         21   -1    0    0  502  501  0.00000000000E+00  0.00000000000E+00  0.61544513131E+03  0.61544513131E+03  0.00000000000E+00 0. -1.
         21   -1    0    0  501  502 -0.00000000000E+00 -0.00000000000E+00 -0.84288199425E+02  0.84288199425E+02  0.00000000000E+00 0. -1.
      99926    2    1    2    0    0  0.00000000000E+00  0.35527136788E-14  0.53115693188E+03  0.69973333073E+03  0.45552063384E+03 0.  0.
      99925    2    3    3    0    0  0.50273461954E+02  0.29965978216E+02  0.18449540746E+03  0.32657505139E+03  0.26303484178E+03 0.  0.
         25    1    4    4    0    0  0.23953765444E+02 -0.18379410870E+02  0.61125818782E+02  0.14246213337E+03  0.12509000000E+03 0.  0.
         25    1    4    4    0    0  0.26319696509E+02  0.48345389085E+02  0.12336958867E+03  0.18411291801E+03  0.12509000000E+03 0.  0.
         25    1    3    3    0    0 -0.50273461954E+02 -0.29965978216E+02  0.34666152442E+03  0.37315827934E+03  0.12509000000E+03 0.  0.
<mgrwt>
<rscale>  2 0.45552063E+03</rscale>
<asrwt>0</asrwt>
<pdfrwt beam="1">  1       21 0.90506635E-01 0.45552063E+03</pdfrwt>
<pdfrwt beam="2">  1       21 0.12395324E-01 0.45552063E+03</pdfrwt>
<totfact> 0.52701173E+04</totfact>
</mgrwt>
</event>
<event>
 7    0  0.4712189E-002  0.4543446E+03  0.7546771E-02  0.1026434E+00
         21   -1    0    0  502  501  0.00000000000E+00  0.00000000000E+00  0.69907543751E+02  0.69907543751E+02  0.00000000000E+00 0.  1.
         21   -1    0    0  501  502 -0.00000000000E+00 -0.00000000000E+00 -0.73822144467E+03  0.73822144467E+03  0.00000000000E+00 0.  1.
      99926    2    1    2    0    0 -0.71054273576E-14  0.00000000000E+00 -0.66831390092E+03  0.80812898842E+03  0.45434457383E+03 0.  0.
      99925    2    3    3    0    0  0.45010756829E+02 -0.73594923133E+02 -0.29223405277E+03  0.40251126048E+03  0.26300644910E+03 0.  0.
         25    1    4    4    0    0 -0.15468488339E+02 -0.33622443522E+02 -0.11604846064E+03  0.17459809895E+03  0.12509000000E+03 0.  0.
         25    1    4    4    0    0  0.60479245168E+02 -0.39972479611E+02 -0.17618559213E+03  0.22791316152E+03  0.12509000000E+03 0.  0.
         25    1    3    3    0    0 -0.45010756829E+02  0.73594923133E+02 -0.37607984815E+03  0.40561772794E+03  0.12509000000E+03 0.  0.
<mgrwt>
<rscale>  2 0.45434457E+03</rscale>
<asrwt>0</asrwt>
<pdfrwt beam="1">  1       21 0.10280521E-01 0.45434457E+03</pdfrwt>
<pdfrwt beam="2">  1       21 0.10856198E+00 0.45434457E+03</pdfrwt>
<totfact> 0.47618577E+04</totfact>
</mgrwt>
</event>
<event>
 7    0  0.4712189E-002  0.4549414E+03  0.7546771E-02  0.1026259E+00
         21   -1    0    0  502  501  0.00000000000E+00  0.00000000000E+00  0.86147078387E+03  0.86147078387E+03  0.00000000000E+00 0. -1.
         21   -1    0    0  501  502 -0.00000000000E+00 -0.00000000000E+00 -0.60063472816E+02  0.60063472816E+02  0.00000000000E+00 0. -1.
      99926    2    1    2    0    0 -0.14210854715E-13  0.00000000000E+00  0.80140731106E+03  0.92153425669E+03  0.45494143363E+03 0.  0.
      99925    2    3    3    0    0  0.91822889458E+02 -0.65383248873E+02  0.52357493655E+03  0.59665774371E+03  0.26298923302E+03 0.  0.
         25    1    3    3    0    0 -0.91822889458E+02  0.65383248873E+02  0.27783237450E+03  0.32487651298E+03  0.12509000000E+03 0.  0.
         25    1    4    4    0    0  0.22539755924E+02 -0.43277469012E+02  0.31878833329E+03  0.34591110052E+03  0.12509000000E+03 0.  0.
         25    1    4    4    0    0  0.69283133534E+02 -0.22105779860E+02  0.20478660326E+03  0.25074664319E+03  0.12509000000E+03 0.  0.
<mgrwt>
<rscale>  2 0.45494143E+03</rscale>
<asrwt>0</asrwt>
<pdfrwt beam="1">  1       21 0.12668687E+00 0.45494143E+03</pdfrwt>
<pdfrwt beam="2">  1       21 0.88328641E-02 0.45494143E+03</pdfrwt>
<totfact> 0.42334948E+04</totfact>
</mgrwt>
</event>
<event>
 7    0  0.4712189E-002  0.4580832E+03  0.7546771E-02  0.1025339E+00
         21   -1    0    0  502  501  0.00000000000E+00  0.00000000000E+00  0.43664878470E+03  0.43664878470E+03  0.00000000000E+00 0.  1.
         21   -1    0    0  501  502 -0.00000000000E+00 -0.00000000000E+00 -0.12014243749E+03  0.12014243749E+03  0.00000000000E+00 0.  1.
      99926    2    1    2    0    0  0.35527136788E-14  0.00000000000E+00  0.31650634721E+03  0.55679122219E+03  0.45808317726E+03 0.  0.
      99925    2    3    3    0    0  0.25171474899E+02  0.94039301182E+02  0.27515370915E+03  0.39297870103E+03  0.26314578182E+03 0.  0.
         25    1    4    4    0    0  0.34244971406E+02  0.42550048427E+02  0.18602434270E+03  0.23072882105E+03  0.12509000000E+03 0.  0.
         25    1    3    3    0    0 -0.25171474899E+02 -0.94039301182E+02  0.41352638059E+02  0.16381252116E+03  0.12509000000E+03 0.  0.
         25    1    4    4    0    0 -0.90734965077E+01  0.51489252755E+02  0.89129366446E+02  0.16224987997E+03  0.12509000000E+03 0.  0.
<mgrwt>
<rscale>  2 0.45808318E+03</rscale>
<asrwt>0</asrwt>
<pdfrwt beam="1">  1       21 0.64213056E-01 0.45808318E+03</pdfrwt>
<pdfrwt beam="2">  1       21 0.17668006E-01 0.45808318E+03</pdfrwt>
<totfact> 0.59944497E+04</totfact>
</mgrwt>
</event>
<event>
 7    0  0.4712189E-002  0.4550326E+03  0.7546771E-02  0.1026232E+00
         21   -1    0    0  502  501  0.00000000000E+00  0.00000000000E+00  0.32587196694E+02  0.32587196694E+02  0.00000000000E+00 0. -1.
         21   -1    0    0  501  502 -0.00000000000E+00 -0.00000000000E+00 -0.15884661756E+04  0.15884661756E+04  0.00000000000E+00 0. -1.
      99926    2    1    2    0    0  0.00000000000E+00  0.17763568394E-14 -0.15558789790E+04  0.16210533723E+04  0.45503256898E+03 0.  0.
      99925    2    3    3    0    0 -0.10989436451E+03 -0.14681202744E+02 -0.89825638722E+03  0.94252018205E+03  0.26303506863E+03 0.  0.
         25    1    4    4    0    0 -0.45843104356E+02 -0.29163690252E+02 -0.33232282575E+03  0.35921870728E+03  0.12509000000E+03 0.  0.
         25    1    3    3    0    0  0.10989436451E+03  0.14681202744E+02 -0.65762259173E+03  0.67853319028E+03  0.12509000000E+03 0.  0.
         25    1    4    4    0    0 -0.64051260158E+02  0.14482487507E+02 -0.56593356147E+03  0.58330147477E+03  0.12509000000E+03 0.  0.
<mgrwt>
<rscale>  2 0.45503257E+03</rscale>
<asrwt>0</asrwt>
<pdfrwt beam="1">  1       21 0.47922355E-02 0.45503257E+03</pdfrwt>
<pdfrwt beam="2">  1       21 0.23359794E+00 0.45503257E+03</pdfrwt>
<totfact> 0.20952884E+04</totfact>
</mgrwt>
</event>
<event>
 7    0  0.4712189E-002  0.4497340E+03  0.7546771E-02  0.1027801E+00
         21   -1    0    0  502  501  0.00000000000E+00  0.00000000000E+00  0.57673146726E+03  0.57673146726E+03  0.00000000000E+00 0.  1.
         21   -1    0    0  501  502 -0.00000000000E+00 -0.00000000000E+00 -0.87675416146E+02  0.87675416146E+02  0.00000000000E+00 0.  1.
      99926    2    1    2    0    0  0.13322676296E-14  0.00000000000E+00  0.48905605111E+03  0.66440688340E+03  0.44973401649E+03 0.  0.
      99925    2    3    3    0    0 -0.29368960710E+01  0.59575480673E+02  0.44249717583E+03  0.51821146548E+03  0.26302378044E+03 0.  0.
         25    1    4    4    0    0 -0.13244598273E+02 -0.34494613843E+01  0.25046678559E+03  0.28030061889E+03  0.12509000000E+03 0.  0.
         25    1    3    3    0    0  0.29368960710E+01 -0.59575480673E+02  0.46558875280E+02  0.14619541793E+03  0.12509000000E+03 0.  0.
         25    1    4    4    0    0  0.10307702202E+02  0.63024942057E+02  0.19203039024E+03  0.23791084658E+03  0.12509000000E+03 0.  0.
<mgrwt>
<rscale>  2 0.44973402E+03</rscale>
<asrwt>0</asrwt>
<pdfrwt beam="1">  1       21 0.84813449E-01 0.44973402E+03</pdfrwt>
<pdfrwt beam="2">  1       21 0.12893444E-01 0.44973402E+03</pdfrwt>
<totfact> 0.57216781E+04</totfact>
</mgrwt>
</event>
<event>
 7    0  0.4712189E-002  0.4555953E+03  0.7546771E-02  0.1026066E+00
         21   -1    0    0  502  501  0.00000000000E+00  0.00000000000E+00  0.13899851252E+03  0.13899851252E+03  0.00000000000E+00 0.  1.
         21   -1    0    0  501  502 -0.00000000000E+00 -0.00000000000E+00 -0.37332610245E+03  0.37332610245E+03  0.00000000000E+00 0.  1.
      99926    2    1    2    0    0  0.00000000000E+00 -0.11102230246E-15 -0.23432758993E+03  0.51232461498E+03  0.45559531572E+03 0.  0.
      99925    2    3    3    0    0  0.61294288037E+02  0.17133794750E+00 -0.39297035142E+02  0.27265516656E+03  0.26275380830E+03 0.  0.
         25    1    4    4    0    0  0.37976760481E+01  0.19132364223E+01  0.11980056391E+02  0.12573429392E+03  0.12509000000E+03 0.  0.
         25    1    4    4    0    0  0.57496611989E+02 -0.17418984748E+01 -0.51277091533E+02  0.14692087264E+03  0.12509000000E+03 0.  0.
         25    1    3    3    0    0 -0.61294288037E+02 -0.17133794750E+00 -0.19503055479E+03  0.23966944842E+03  0.12509000000E+03 0.  0.
<mgrwt>
<rscale>  2 0.45559532E+03</rscale>
<asrwt>0</asrwt>
<pdfrwt beam="1">  1       21 0.20440958E-01 0.45559532E+03</pdfrwt>
<pdfrwt beam="2">  1       21 0.54900898E-01 0.45559532E+03</pdfrwt>
<totfact> 0.64109794E+04</totfact>
</mgrwt>
</event>
<event>
 7    0  0.4712189E-002  0.4548283E+03  0.7546771E-02  0.1026292E+00
         21   -1    0    0  502  501  0.00000000000E+00  0.00000000000E+00  0.52869369150E+02  0.52869369150E+02  0.00000000000E+00 0.  1.
         21   -1    0    0  501  502 -0.00000000000E+00 -0.00000000000E+00 -0.97820710935E+03  0.97820710935E+03  0.00000000000E+00 0.  1.
      99926    2    1    2    0    0  0.00000000000E+00  0.71054273576E-14 -0.92533774020E+03  0.10310764785E+04  0.45482828746E+03 0.  0.
      99925    2    3    3    0    0  0.96850180220E+02  0.55349444569E+02 -0.62663239561E+03  0.68856237746E+03  0.26269082589E+03 0.  0.
         25    1    3    3    0    0 -0.96850180220E+02 -0.55349444569E+02 -0.29870534458E+03  0.34251410103E+03  0.12509000000E+03 0.  0.
         25    1    4    4    0    0  0.89538336933E+02  0.36050820766E+02 -0.36992727338E+03  0.40225672294E+03  0.12509000000E+03 0.  0.
         25    1    4    4    0    0  0.73118432871E+01  0.19298623803E+02 -0.25670512223E+03  0.28630565452E+03  0.12509000000E+03 0.  0.
<mgrwt>
<rscale>  2 0.45482829E+03</rscale>
<asrwt>0</asrwt>
<pdfrwt beam="1">  1       21 0.77749074E-02 0.45482829E+03</pdfrwt>
<pdfrwt beam="2">  1       21 0.14385398E+00 0.45482829E+03</pdfrwt>
<totfact> 0.38030467E+04</totfact>
</mgrwt>
</event>
<event>
 7    0  0.4712189E-002  0.4541140E+03  0.7546771E-02  0.1026502E+00
         21   -1    0    0  502  501  0.00000000000E+00  0.00000000000E+00  0.12936888112E+03  0.12936888112E+03  0.00000000000E+00 0.  1.
         21   -1    0    0  501  502 -0.00000000000E+00 -0.00000000000E+00 -0.39851072998E+03  0.39851072998E+03  0.00000000000E+00 0.  1.
      99926    2    1    2    0    0  0.12212453271E-14  0.00000000000E+00 -0.26914184886E+03  0.52787961109E+03  0.45411402643E+03 0.  0.
      99925    2    3    3    0    0  0.50897433463E+00 -0.36229021861E+02 -0.45925273518E+02  0.26944983594E+03  0.26302334927E+03 0.  0.
         25    1    4    4    0    0 -0.34469585203E+02 -0.23236926669E+02 -0.43776245850E+02  0.13889555380E+03  0.12509000000E+03 0.  0.
         25    1    4    4    0    0  0.34978559538E+02 -0.12992095193E+02 -0.21490276680E+01  0.13055428214E+03  0.12509000000E+03 0.  0.
         25    1    3    3    0    0 -0.50897433463E+00  0.36229021861E+02 -0.22321657534E+03  0.25842977515E+03  0.12509000000E+03 0.  0.
<mgrwt>
<rscale>  2 0.45411403E+03</rscale>
<asrwt>0</asrwt>
<pdfrwt beam="1">  1       21 0.19024836E-01 0.45411403E+03</pdfrwt>
<pdfrwt beam="2">  1       21 0.58604518E-01 0.45411403E+03</pdfrwt>
<totfact> 0.63797149E+04</totfact>
</mgrwt>
</event>
<event>
 7    0  0.4712189E-002  0.4523811E+03  0.7546771E-02  0.1027014E+00
         21   -1    0    0  502  501  0.00000000000E+00  0.00000000000E+00  0.77057275569E+02  0.77057275569E+02  0.00000000000E+00 0. -1.
         21   -1    0    0  501  502 -0.00000000000E+00 -0.00000000000E+00 -0.66394991035E+03  0.66394991035E+03  0.00000000000E+00 0. -1.
      99926    2    1    2    0    0  0.00000000000E+00  0.00000000000E+00 -0.58689263478E+03  0.74100718591E+03  0.45238112784E+03 0.  0.
      99925    2    3    3    0    0  0.33384432871E+02 -0.68054508062E+02 -0.23789390262E+03  0.36259793712E+03  0.26294071323E+03 0.  0.
         25    1    3    3    0    0 -0.33384432871E+02  0.68054508062E+02 -0.34899873215E+03  0.37840924879E+03  0.12509000000E+03 0.  0.
         25    1    4    4    0    0 -0.32913591736E+01 -0.52432833328E+02 -0.16063358539E+03  0.21026338699E+03  0.12509000000E+03 0.  0.
         25    1    4    4    0    0  0.36675792045E+02 -0.15621674734E+02 -0.77260317236E+02  0.15233455013E+03  0.12509000000E+03 0.  0.
<mgrwt>
<rscale>  2 0.45238113E+03</rscale>
<asrwt>0</asrwt>
<pdfrwt beam="1">  1       21 0.11331952E-01 0.45238113E+03</pdfrwt>
<pdfrwt beam="2">  1       21 0.97639694E-01 0.45238113E+03</pdfrwt>
<totfact> 0.51790473E+04</totfact>
</mgrwt>
</event>
<event>
 7    0  0.4712189E-002  0.4617655E+03  0.7546771E-02  0.1024270E+00
         21   -1    0    0  502  501  0.00000000000E+00  0.00000000000E+00  0.98427410948E+02  0.98427410948E+02  0.00000000000E+00 0.  1.
         21   -1    0    0  501  502 -0.00000000000E+00 -0.00000000000E+00 -0.54158530948E+03  0.54158530948E+03  0.00000000000E+00 0.  1.
      99926    2    1    2    0    0  0.00000000000E+00  0.00000000000E+00 -0.44315789853E+03  0.64001272043E+03  0.46176548082E+03 0.  0.
      99925    2    3    3    0    0  0.56559798289E+02  0.10007422114E+03 -0.32201235975E+03  0.43135604024E+03  0.26298709684E+03 0.  0.
         25    1    4    4    0    0 -0.32668949843E+00  0.65563319387E+02 -0.12444500268E+03  0.18823581585E+03  0.12509000000E+03 0.  0.
         25    1    4    4    0    0  0.56886487787E+02  0.34510901752E+02 -0.19756735707E+03  0.24312022440E+03  0.12509000000E+03 0.  0.
         25    1    3    3    0    0 -0.56559798289E+02 -0.10007422114E+03 -0.12114553879E+03  0.20865668019E+03  0.12509000000E+03 0.  0.
<mgrwt>
<rscale>  2 0.46176548E+03</rscale>
<asrwt>0</asrwt>
<pdfrwt beam="1">  1       21 0.14474619E-01 0.46176548E+03</pdfrwt>
<pdfrwt beam="2">  1       21 0.79644899E-01 0.46176548E+03</pdfrwt>
<totfact> 0.53373205E+04</totfact>
</mgrwt>
</event>
<event>
 7    0  0.4712189E-002  0.4566110E+03  0.7546771E-02  0.1025769E+00
         21   -1    0    0  502  501  0.00000000000E+00  0.00000000000E+00  0.15539697834E+04  0.15539697834E+04  0.00000000000E+00 0. -1.
         21   -1    0    0  501  502 -0.00000000000E+00 -0.00000000000E+00 -0.33542088688E+02  0.33542088688E+02  0.00000000000E+00 0. -1.
      99926    2    1    2    0    0  0.00000000000E+00  0.00000000000E+00  0.15204276947E+04  0.15875118720E+04  0.45661096041E+03 0.  0.
      99925    2    3    3    0    0  0.42028258719E+02  0.84824133089E+02  0.11795306149E+04  0.12122521817E+04  0.26325153850E+03 0.  0.
         25    1    4    4    0    0 -0.42423037926E+01  0.13763211338E+02  0.45323281965E+03  0.47039868201E+03  0.12509000000E+03 0.  0.
         25    1    4    4    0    0  0.46270562512E+02  0.71060921752E+02  0.72629779523E+03  0.74185349969E+03  0.12509000000E+03 0.  0.
         25    1    3    3    0    0 -0.42028258719E+02 -0.84824133089E+02  0.34089707978E+03  0.37525969033E+03  0.12509000000E+03 0.  0.
<mgrwt>
<rscale>  2 0.45661096E+03</rscale>
<asrwt>0</asrwt>
<pdfrwt beam="1">  1       21 0.22852492E+00 0.45661096E+03</pdfrwt>
<pdfrwt beam="2">  1       21 0.49326611E-02 0.45661096E+03</pdfrwt>
<totfact> 0.21443908E+04</totfact>
</mgrwt>
</event>
<event>
 7    0  0.4712189E-002  0.4524726E+03  0.7546771E-02  0.1026987E+00
         21   -1    0    0  502  501  0.00000000000E+00  0.00000000000E+00  0.12133637076E+03  0.12133637076E+03  0.00000000000E+00 0. -1.
         21   -1    0    0  501  502 -0.00000000000E+00 -0.00000000000E+00 -0.42182629927E+03  0.42182629927E+03  0.00000000000E+00 0. -1.
      99926    2    1    2    0    0  0.35527136788E-14  0.00000000000E+00 -0.30048992851E+03  0.54316267002E+03  0.45247263892E+03 0.  0.
      99925    2    3    3    0    0 -0.16992629096E+02 -0.69951734730E+02 -0.88097962776E+02  0.28637511222E+03  0.26280688579E+03 0.  0.
         25    1    4    4    0    0 -0.14602950281E+02 -0.16354659029E+01 -0.65767497917E+02  0.14208727173E+03  0.12509000000E+03 0.  0.
         25    1    4    4    0    0 -0.23896788146E+01 -0.68316268827E+02 -0.22330464859E+02  0.14428784049E+03  0.12509000000E+03 0.  0.
         25    1    3    3    0    0  0.16992629096E+02  0.69951734730E+02 -0.21239196574E+03  0.25678755781E+03  0.12509000000E+03 0.  0.
<mgrwt>
<rscale>  2 0.45247264E+03</rscale>
<asrwt>0</asrwt>
<pdfrwt beam="1">  1       21 0.17843584E-01 0.45247264E+03</pdfrwt>
<pdfrwt beam="2">  1       21 0.62033280E-01 0.45247264E+03</pdfrwt>
<totfact> 0.63582722E+04</totfact>
</mgrwt>
</event>
<event>
 7    0  0.4712189E-002  0.4551506E+03  0.7546771E-02  0.1026197E+00
         21   -1    0    0  502  501  0.00000000000E+00  0.00000000000E+00  0.13953021749E+04  0.13953021749E+04  0.00000000000E+00 0. -1.
         21   -1    0    0  501  502 -0.00000000000E+00 -0.00000000000E+00 -0.37117771692E+02  0.37117771692E+02  0.00000000000E+00 0. -1.
      99926    2    1    2    0    0  0.00000000000E+00  0.00000000000E+00  0.13581844032E+04  0.14324199466E+04  0.45515055781E+03 0.  0.
      99925    2    3    3    0    0 -0.90201318686E+02 -0.61697006438E+02  0.76083249416E+03  0.81240413241E+03  0.26304294647E+03 0.  0.
         25    1    3    3    0    0  0.90201318686E+02  0.61697006438E+02  0.59735190905E+03  0.62001581419E+03  0.12509000000E+03 0.  0.
         25    1    4    4    0    0 -0.75107479408E+01 -0.15515922477E+02  0.29611179843E+03  0.32191126177E+03  0.12509000000E+03 0.  0.
         25    1    4    4    0    0 -0.82690570745E+02 -0.46181083961E+02  0.46472069573E+03  0.49049287064E+03  0.12509000000E+03 0.  0.
<mgrwt>
<rscale>  2 0.45515056E+03</rscale>
<asrwt>0</asrwt>
<pdfrwt beam="1">  1       21 0.20519146E+00 0.45515056E+03</pdfrwt>
<pdfrwt beam="2">  1       21 0.54584968E-02 0.45515056E+03</pdfrwt>
<totfact> 0.25450971E+04</totfact>
</mgrwt>
</event>
<event>
 7    0  0.4712189E-002  0.4591251E+03  0.7546771E-02  0.1025035E+00
         21   -1    0    0  502  501  0.00000000000E+00  0.00000000000E+00  0.41041170817E+03  0.41041170817E+03  0.00000000000E+00 0.  1.
         21   -1    0    0  501  502 -0.00000000000E+00 -0.00000000000E+00 -0.12840514587E+03  0.12840514587E+03  0.00000000000E+00 0.  1.
      99926    2    1    2    0    0 -0.14210854715E-13  0.14210854715E-13  0.28200656229E+03  0.53881685404E+03  0.45912514745E+03 0.  0.
      99925    2    3    3    0    0  0.10152766808E+03 -0.49672292407E+02  0.21204921883E+03  0.35628811104E+03  0.26306110096E+03 0.  0.
         25    1    3    3    0    0 -0.10152766808E+03  0.49672292407E+02  0.69957343464E+02  0.18252874300E+03  0.12509000000E+03 0.  0.
         25    1    4    4    0    0  0.45843045695E+02  0.82991268351E+01  0.70331511111E+02  0.15087905719E+03  0.12509000000E+03 0.  0.
         25    1    4    4    0    0  0.55684622382E+02 -0.57971419242E+02  0.14171770772E+03  0.20540905384E+03  0.12509000000E+03 0.  0.
<mgrwt>
<rscale>  2 0.45912515E+03</rscale>
<asrwt>0</asrwt>
<pdfrwt beam="1">  1       21 0.60354663E-01 0.45912515E+03</pdfrwt>
<pdfrwt beam="2">  1       21 0.18883110E-01 0.45912515E+03</pdfrwt>
<totfact> 0.60607816E+04</totfact>
</mgrwt>
</event>
<event>
 7    0  0.4712189E-002  0.4455571E+03  0.7546771E-02  0.1029055E+00
         21   -1    0    0  502  501  0.00000000000E+00  0.00000000000E+00  0.44527913865E+02  0.44527913865E+02  0.00000000000E+00 0. -1.
         21   -1    0    0  501  502 -0.00000000000E+00 -0.00000000000E+00 -0.11145880797E+04  0.11145880797E+04  0.00000000000E+00 0. -1.
      99926    2    1    2    0    0  0.00000000000E+00  0.00000000000E+00 -0.10700601659E+04  0.11591159936E+04  0.44555709851E+03 0.  0.
      99925    2    3    3    0    0  0.64613242450E+02  0.80621616732E+02 -0.71087727402E+03  0.76499091944E+03  0.26303971548E+03 0.  0.
         25    1    3    3    0    0 -0.64613242450E+02 -0.80621616732E+02 -0.35918289185E+03  0.39412507416E+03  0.12509000000E+03 0.  0.
         25    1    4    4    0    0  0.51986516952E+02  0.24440217324E+02 -0.26930634182E+03  0.30244559183E+03  0.12509000000E+03 0.  0.
         25    1    4    4    0    0  0.12626725498E+02  0.56181399408E+02 -0.44157093219E+03  0.46254532761E+03  0.12509000000E+03 0.  0.
<mgrwt>
<rscale>  2 0.44555710E+03</rscale>
<asrwt>0</asrwt>
<pdfrwt beam="1">  1       21 0.65482234E-02 0.44555710E+03</pdfrwt>
<pdfrwt beam="2">  1       21 0.16390999E+00 0.44555710E+03</pdfrwt>
<totfact> 0.36060924E+04</totfact>
</mgrwt>
</event>
<event>
 7    0  0.4712189E-002  0.4582158E+03  0.7546771E-02  0.1025300E+00
         21   -1    0    0  502  501  0.00000000000E+00  0.00000000000E+00  0.14309136861E+04  0.14309136861E+04  0.00000000000E+00 0.  1.
         21   -1    0    0  501  502 -0.00000000000E+00 -0.00000000000E+00 -0.36683160182E+02  0.36683160182E+02  0.00000000000E+00 0.  1.
      99926    2    1    2    0    0  0.00000000000E+00  0.00000000000E+00  0.13942305260E+04  0.14675968463E+04  0.45821582668E+03 0.  0.
      99925    2    3    3    0    0 -0.67289301995E+01  0.11444007697E+03  0.81555962757E+03  0.86456340906E+03  0.26304100905E+03 0.  0.
         25    1    3    3    0    0  0.67289301995E+01 -0.11444007697E+03  0.57867089839E+03  0.60303343727E+03  0.12509000000E+03 0.  0.
         25    1    4    4    0    0 -0.17272279422E+02  0.98979583057E+02  0.45936399310E+03  0.48657792362E+03  0.12509000000E+03 0.  0.
         25    1    4    4    0    0  0.10543349222E+02  0.15460493915E+02  0.35619563447E+03  0.37798548544E+03  0.12509000000E+03 0.  0.
<mgrwt>
<rscale>  2 0.45821583E+03</rscale>
<asrwt>0</asrwt>
<pdfrwt beam="1">  1       21 0.21042845E+00 0.45821583E+03</pdfrwt>
<pdfrwt beam="2">  1       21 0.53945833E-02 0.45821583E+03</pdfrwt>
<totfact> 0.23979883E+04</totfact>
</mgrwt>
</event>
<event>
 7    0  0.4712189E-002  0.4459638E+03  0.7546771E-02  0.1028933E+00
         21   -1    0    0  502  501  0.00000000000E+00  0.00000000000E+00  0.21479859334E+03  0.21479859334E+03  0.00000000000E+00 0. -1.
         21   -1    0    0  501  502 -0.00000000000E+00 -0.00000000000E+00 -0.23147697195E+03  0.23147697195E+03  0.00000000000E+00 0. -1.
      99926    2    1    2    0    0  0.00000000000E+00  0.00000000000E+00 -0.16678378608E+02  0.44627556530E+03  0.44596380107E+03 0.  0.
      99925    2    3    3    0    0  0.22154674731E+02  0.96239538869E+02  0.23683920121E+02  0.28186905170E+03  0.26293793142E+03 0.  0.
         25    1    3    3    0    0 -0.22154674731E+02 -0.96239538869E+02 -0.40362298729E+02  0.16440651360E+03  0.12509000000E+03 0.  0.
         25    1    4    4    0    0  0.41511130991E+02  0.37036279803E+02 -0.12641085796E+02  0.13748514526E+03  0.12509000000E+03 0.  0.
         25    1    4    4    0    0 -0.19356456260E+02  0.59203259065E+02  0.36325005918E+02  0.14438390644E+03  0.12509000000E+03 0.  0.
<mgrwt>
<rscale>  2 0.44596380E+03</rscale>
<asrwt>0</asrwt>
<pdfrwt beam="1">  1       21 0.31588029E-01 0.44596380E+03</pdfrwt>
<pdfrwt beam="2">  1       21 0.34040731E-01 0.44596380E+03</pdfrwt>
<totfact> 0.74411763E+04</totfact>
</mgrwt>
</event>
<event>
 7    0  0.4712189E-002  0.4561472E+03  0.7546771E-02  0.1025905E+00
         21   -1    0    0  502  501  0.00000000000E+00  0.00000000000E+00  0.31478755600E+02  0.31478755600E+02  0.00000000000E+00 0. -1.
         21   -1    0    0  501  502 -0.00000000000E+00 -0.00000000000E+00 -0.16524655915E+04  0.16524655915E+04  0.00000000000E+00 0. -1.
      99926    2    1    2    0    0 -0.14210854715E-13  0.00000000000E+00 -0.16209868359E+04  0.16839443471E+04  0.45614717139E+03 0.  0.
      99925    2    3    3    0    0  0.86034604770E+02  0.40583328388E+02 -0.12497761603E+04  0.12808391083E+04  0.26374118140E+03 0.  0.
         25    1    4    4    0    0  0.86750263557E+02  0.19084281620E+02 -0.69277215723E+03  0.70955661365E+03  0.12509000000E+03 0.  0.
         25    1    3    3    0    0 -0.86034604770E+02 -0.40583328388E+02 -0.37121067566E+03  0.40310523885E+03  0.12509000000E+03 0.  0.
         25    1    4    4    0    0 -0.71565878703E+00  0.21499046768E+02 -0.55700400302E+03  0.57128249462E+03  0.12509000000E+03 0.  0.
<mgrwt>
<rscale>  2 0.45614717E+03</rscale>
<asrwt>0</asrwt>
<pdfrwt beam="1">  1       21 0.46292281E-02 0.45614717E+03</pdfrwt>
<pdfrwt beam="2">  1       21 0.24300968E+00 0.45614717E+03</pdfrwt>
<totfact> 0.19424125E+04</totfact>
</mgrwt>
</event>
<event>
 6    0  0.4712189E-002  0.4608936E+03  0.7546771E-02  0.1024522E+00
         21   -1    0    0  502  501  0.00000000000E+00  0.00000000000E+00  0.11393548392E+03  0.11393548392E+03  0.00000000000E+00 0.  1.
         21   -1    0    0  501  502 -0.00000000000E+00 -0.00000000000E+00 -0.46610340760E+03  0.46610340760E+03  0.00000000000E+00 0.  1.
      99926    2    1    2    0    0 -0.14210854715E-13  0.00000000000E+00 -0.35216792368E+03  0.58003889152E+03  0.46089355519E+03 0.  0.
         25    1    3    3    0    0  0.13111078415E+02  0.24587853294E+02 -0.65779478782E+02  0.14405176443E+03  0.12509000000E+03 0.  0.
         25    1    3    3    0    0 -0.10117485837E+03  0.54448250001E+00 -0.20591729646E+03  0.26131607204E+03  0.12509000000E+03 0.  0.
         25    1    3    3    0    0  0.88063779951E+02 -0.25132335794E+02 -0.80471148433E+02  0.17467105505E+03  0.12509000000E+03 0.  0.
<mgrwt>
<rscale>  2 0.46089356E+03</rscale>
<asrwt>0</asrwt>
<pdfrwt beam="1">  1       21 0.16755218E-01 0.46089356E+03</pdfrwt>
<pdfrwt beam="2">  1       21 0.68544619E-01 0.46089356E+03</pdfrwt>
<totfact> 0.57211410E+04</totfact>
</mgrwt>
</event>
<event>
 7    0  0.4712189E-002  0.4638988E+03  0.7546771E-02  0.1023656E+00
         21   -1    0    0  502  501  0.00000000000E+00  0.00000000000E+00  0.20676908098E+03  0.20676908098E+03  0.00000000000E+00 0. -1.
         21   -1    0    0  501  502 -0.00000000000E+00 -0.00000000000E+00 -0.26019618612E+03  0.26019618612E+03  0.00000000000E+00 0. -1.
      99926    2    1    2    0    0  0.00000000000E+00 -0.14210854715E-13 -0.53427105139E+02  0.46696526709E+03  0.46389880913E+03 0.  0.
      99925    2    3    3    0    0  0.64428760779E+02  0.70141524370E+02 -0.10997992900E+03  0.29988256708E+03  0.26222713552E+03 0.  0.
         25    1    4    4    0    0  0.44528468348E+01  0.51332679573E+02 -0.29716553003E+02  0.13851156435E+03  0.12509000000E+03 0.  0.
         25    1    4    4    0    0  0.59975913944E+02  0.18808844797E+02 -0.80263375995E+02  0.16137100273E+03  0.12509000000E+03 0.  0.
         25    1    3    3    0    0 -0.64428760779E+02 -0.70141524370E+02  0.56552823859E+02  0.16708270001E+03  0.12509000000E+03 0.  0.
<mgrwt>
<rscale>  2 0.46389881E+03</rscale>
<asrwt>0</asrwt>
<pdfrwt beam="1">  1       21 0.30407218E-01 0.46389881E+03</pdfrwt>
<pdfrwt beam="2">  1       21 0.38264145E-01 0.46389881E+03</pdfrwt>
<totfact> 0.63078973E+04</totfact>
</mgrwt>
</event>
<event>
 7    0  0.4712189E-002  0.4569009E+03  0.7546771E-02  0.1025684E+00
         21   -1    0    0  502  501  0.00000000000E+00  0.00000000000E+00  0.12308844467E+04  0.12308844467E+04  0.00000000000E+00 0.  1.
         21   -1    0    0  501  502 -0.00000000000E+00 -0.00000000000E+00 -0.42400084055E+02  0.42400084055E+02  0.00000000000E+00 0.  1.
      99926    2    1    2    0    0  0.00000000000E+00  0.00000000000E+00  0.11884843626E+04  0.12732845308E+04  0.45690088204E+03 0.  0.
      99925    2    3    3    0    0  0.89289423654E+02  0.72053413608E+02  0.73062327606E+03  0.78497256255E+03  0.26307272157E+03 0.  0.
         25    1    3    3    0    0 -0.89289423654E+02 -0.72053413608E+02  0.45786108658E+03  0.48831196821E+03  0.12509000000E+03 0.  0.
         25    1    4    4    0    0  0.33511121159E+02  0.74586226725E+02  0.40592872289E+03  0.43256414163E+03  0.12509000000E+03 0.  0.
         25    1    4    4    0    0  0.55778302495E+02 -0.25328131173E+01  0.32469455317E+03  0.35240842092E+03  0.12509000000E+03 0.  0.
<mgrwt>
<rscale>  2 0.45690088E+03</rscale>
<asrwt>0</asrwt>
<pdfrwt beam="1">  1       21 0.18101240E+00 0.45690088E+03</pdfrwt>
<pdfrwt beam="2">  1       21 0.62353072E-02 0.45690088E+03</pdfrwt>
<totfact> 0.29462298E+04</totfact>
</mgrwt>
</event>
<event>
 7    0  0.4712189E-002  0.4528857E+03  0.7546771E-02  0.1026865E+00
         21   -1    0    0  502  501  0.00000000000E+00  0.00000000000E+00  0.14077300641E+04  0.14077300641E+04  0.00000000000E+00 0. -1.
         21   -1    0    0  501  502 -0.00000000000E+00 -0.00000000000E+00 -0.36424850446E+02  0.36424850446E+02  0.00000000000E+00 0. -1.
      99926    2    1    2    0    0 -0.66613381478E-15  0.00000000000E+00  0.13713052136E+04  0.14441549145E+04  0.45288566792E+03 0.  0.
      99925    2    3    3    0    0 -0.64094964064E+00  0.11102200135E+03  0.90240081507E+03  0.94631443938E+03  0.26240711031E+03 0.  0.
         25    1    4    4    0    0  0.23184827486E+02  0.69916247560E+02  0.37267909211E+03  0.39995378695E+03  0.12509000000E+03 0.  0.
         25    1    3    3    0    0  0.64094964064E+00 -0.11102200135E+03  0.46890439853E+03  0.49784047511E+03  0.12509000000E+03 0.  0.
         25    1    4    4    0    0 -0.23825777126E+02  0.41105753786E+02  0.52972172296E+03  0.54636065243E+03  0.12509000000E+03 0.  0.
<mgrwt>
<rscale>  2 0.45288567E+03</rscale>
<asrwt>0</asrwt>
<pdfrwt beam="1">  1       21 0.20701909E+00 0.45288567E+03</pdfrwt>
<pdfrwt beam="2">  1       21 0.53565966E-02 0.45288567E+03</pdfrwt>
<totfact> 0.25596674E+04</totfact>
</mgrwt>
</event>
<event>
 7    0  0.4712189E-002  0.4617608E+03  0.7546771E-02  0.1024272E+00
         21   -1    0    0  502  501  0.00000000000E+00  0.00000000000E+00  0.44529062131E+03  0.44529062131E+03  0.00000000000E+00 0. -1.
         21   -1    0    0  501  502 -0.00000000000E+00 -0.00000000000E+00 -0.11971002740E+03  0.11971002740E+03  0.00000000000E+00 0. -1.
      99926    2    1    2    0    0  0.00000000000E+00  0.71054273576E-14  0.32558059391E+03  0.56500064871E+03  0.46176077130E+03 0.  0.
      99925    2    3    3    0    0 -0.11286824336E+03 -0.39039117821E+02  0.19434433127E+03  0.34789754460E+03  0.26267791945E+03 0.  0.
         25    1    4    4    0    0 -0.59382611981E+02 -0.56638550301E+02  0.82114872859E+02  0.17065925240E+03  0.12509000000E+03 0.  0.
         25    1    4    4    0    0 -0.53485631380E+02  0.17599432480E+02  0.11222945841E+03  0.17723829220E+03  0.12509000000E+03 0.  0.
         25    1    3    3    0    0  0.11286824336E+03  0.39039117821E+02  0.13123626264E+03  0.21710310410E+03  0.12509000000E+03 0.  0.
<mgrwt>
<rscale>  2 0.46176077E+03</rscale>
<asrwt>0</asrwt>
<pdfrwt beam="1">  1       21 0.65483914E-01 0.46176077E+03</pdfrwt>
<pdfrwt beam="2">  1       21 0.17604416E-01 0.46176077E+03</pdfrwt>
<totfact> 0.57736299E+04</totfact>
</mgrwt>
</event>
<event>
 7    0  0.4712189E-002  0.4514837E+03  0.7546771E-02  0.1027281E+00
         21   -1    0    0  502  501  0.00000000000E+00  0.00000000000E+00  0.10588648747E+04  0.10588648747E+04  0.00000000000E+00 0.  1.
         21   -1    0    0  501  502 -0.00000000000E+00 -0.00000000000E+00 -0.48126430921E+02  0.48126430921E+02  0.00000000000E+00 0.  1.
      99926    2    1    2    0    0  0.00000000000E+00  0.00000000000E+00  0.10107384438E+04  0.11069913056E+04  0.45148371951E+03 0.  0.
      99925    2    3    3    0    0  0.87991361433E+02 -0.62297923260E+02  0.58650712395E+03  0.65175155367E+03  0.26299424013E+03 0.  0.
         25    1    4    4    0    0  0.10729125813E+02 -0.33856479324E+01  0.24589314301E+03  0.27611143155E+03  0.12509000000E+03 0.  0.
         25    1    3    3    0    0 -0.87991361433E+02  0.62297923260E+02  0.42423131981E+03  0.45523975193E+03  0.12509000000E+03 0.  0.
         25    1    4    4    0    0  0.77262235620E+02 -0.58912275327E+02  0.34061398094E+03  0.37564012212E+03  0.12509000000E+03 0.  0.
<mgrwt>
<rscale>  2 0.45148372E+03</rscale>
<asrwt>0</asrwt>
<pdfrwt beam="1">  1       21 0.15571541E+00 0.45148372E+03</pdfrwt>
<pdfrwt beam="2">  1       21 0.70774170E-02 0.45148372E+03</pdfrwt>
<totfact> 0.36234403E+04</totfact>
</mgrwt>
</event>
<event>
 7    0  0.4712189E-002  0.4619633E+03  0.7546771E-02  0.1024213E+00
         21   -1    0    0  502  501  0.00000000000E+00  0.00000000000E+00  0.99191630705E+02  0.99191630705E+02  0.00000000000E+00 0.  1.
         21   -1    0    0  501  502 -0.00000000000E+00 -0.00000000000E+00 -0.53787328390E+03  0.53787328390E+03  0.00000000000E+00 0.  1.
      99926    2    1    2    0    0 -0.14210854715E-13 -0.88817841970E-15 -0.43868165319E+03  0.63706491460E+03  0.46196332384E+03 0.  0.
      99925    2    3    3    0    0 -0.11317340718E+03 -0.74454013379E+01 -0.32660459365E+03  0.43440157438E+03  0.26300287667E+03 0.  0.
         25    1    3    3    0    0  0.11317340718E+03  0.74454013379E+01 -0.11207705954E+03  0.20266334022E+03  0.12509000000E+03 0.  0.
         25    1    4    4    0    0 -0.72493238734E+02  0.30195653624E+02 -0.14450343361E+03  0.20662961449E+03  0.12509000000E+03 0.  0.
         25    1    4    4    0    0 -0.40680168447E+02 -0.37641054962E+02 -0.18210116004E+03  0.22777195989E+03  0.12509000000E+03 0.  0.
<mgrwt>
<rscale>  2 0.46196332E+03</rscale>
<asrwt>0</asrwt>
<pdfrwt beam="1">  1       21 0.14587005E-01 0.46196332E+03</pdfrwt>
<pdfrwt beam="2">  1       21 0.79099011E-01 0.46196332E+03</pdfrwt>
<totfact> 0.53453961E+04</totfact>
</mgrwt>
</event>
<event>
 7    0  0.4712189E-002  0.4498997E+03  0.7546771E-02  0.1027752E+00
         21   -1    0    0  502  501  0.00000000000E+00  0.00000000000E+00  0.82789461433E+02  0.82789461433E+02  0.00000000000E+00 0. -1.
         21   -1    0    0  501  502 -0.00000000000E+00 -0.00000000000E+00 -0.61121843147E+03  0.61121843147E+03  0.00000000000E+00 0. -1.
      99926    2    1    2    0    0  0.71054273576E-14  0.14210854715E-13 -0.52842897004E+03  0.69400789290E+03  0.44989974332E+03 0.  0.
      99925    2    3    3    0    0 -0.36920629062E+02 -0.68159827490E+02 -0.45072303632E+03  0.52759090108E+03  0.26304373875E+03 0.  0.
         25    1    3    3    0    0  0.36920629062E+02  0.68159827490E+02 -0.77705933714E+02  0.16641699182E+03  0.12509000000E+03 0.  0.
         25    1    4    4    0    0 -0.38370858784E+01 -0.21451944818E+02 -0.28642186555E+03  0.31330480739E+03  0.12509000000E+03 0.  0.
         25    1    4    4    0    0 -0.33083543183E+02 -0.46707882672E+02 -0.16430117077E+03  0.21428609369E+03  0.12509000000E+03 0.  0.
<mgrwt>
<rscale>  2 0.44989974E+03</rscale>
<asrwt>0</asrwt>
<pdfrwt beam="1">  1       21 0.12174921E-01 0.44989974E+03</pdfrwt>
<pdfrwt beam="2">  1       21 0.89885063E-01 0.44989974E+03</pdfrwt>
<totfact> 0.55421080E+04</totfact>
</mgrwt>
</event>
<event>
 7    0  0.4712189E-002  0.4559725E+03  0.7546771E-02  0.1025956E+00
         21   -1    0    0  502  501  0.00000000000E+00  0.00000000000E+00  0.58910533396E+03  0.58910533396E+03  0.00000000000E+00 0.  1.
         21   -1    0    0  501  502 -0.00000000000E+00 -0.00000000000E+00 -0.88231640430E+02  0.88231640430E+02  0.00000000000E+00 0.  1.
      99926    2    1    2    0    0  0.00000000000E+00  0.00000000000E+00  0.50087369353E+03  0.67733697439E+03  0.45597249918E+03 0.  0.
      99925    2    3    3    0    0  0.84650362616E+02  0.70845738446E+02  0.27227405207E+03  0.39433501906E+03  0.26302498983E+03 0.  0.
         25    1    4    4    0    0  0.83765619636E+02  0.34841677010E+02  0.13552157834E+03  0.20553400640E+03  0.12509000000E+03 0.  0.
         25    1    3    3    0    0 -0.84650362616E+02 -0.70845738446E+02  0.22859964146E+03  0.28300195534E+03  0.12509000000E+03 0.  0.
         25    1    4    4    0    0  0.88474297985E+00  0.36004061435E+02  0.13675247373E+03  0.18880101266E+03  0.12509000000E+03 0.  0.
<mgrwt>
<rscale>  2 0.45597250E+03</rscale>
<asrwt>0</asrwt>
<pdfrwt beam="1">  1       21 0.86633136E-01 0.45597250E+03</pdfrwt>
<pdfrwt beam="2">  1       21 0.12975241E-01 0.45597250E+03</pdfrwt>
<totfact> 0.53738291E+04</totfact>
</mgrwt>
</event>
<event>
 7    0  0.4712189E-002  0.4587017E+03  0.7546771E-02  0.1025158E+00
         21   -1    0    0  502  501  0.00000000000E+00  0.00000000000E+00  0.35337782345E+03  0.35337782345E+03  0.00000000000E+00 0. -1.
         21   -1    0    0  501  502 -0.00000000000E+00 -0.00000000000E+00 -0.14885430092E+03  0.14885430092E+03  0.00000000000E+00 0. -1.
      99926    2    1    2    0    0 -0.14210854715E-13  0.00000000000E+00  0.20452352253E+03  0.50223212437E+03  0.45870168463E+03 0.  0.
      99925    2    3    3    0    0  0.77398231312E+02  0.86331623720E+02  0.11608637509E+03  0.31010645557E+03  0.26314697764E+03 0.  0.
         25    1    3    3    0    0 -0.77398231312E+02 -0.86331623720E+02  0.88437147434E+02  0.19212566880E+03  0.12509000000E+03 0.  0.
         25    1    4    4    0    0  0.45832668344E+02  0.69715583132E+02  0.27829439625E+02  0.15291462268E+03  0.12509000000E+03 0.  0.
         25    1    4    4    0    0  0.31565562968E+02  0.16616040588E+02  0.88256935467E+02  0.15719183289E+03  0.12509000000E+03 0.  0.
<mgrwt>
<rscale>  2 0.45870168E+03</rscale>
<asrwt>0</asrwt>
<pdfrwt beam="1">  1       21 0.51967327E-01 0.45870168E+03</pdfrwt>
<pdfrwt beam="2">  1       21 0.21890338E-01 0.45870168E+03</pdfrwt>
<totfact> 0.63235487E+04</totfact>
</mgrwt>
</event>
<event>
 7    0  0.4712189E-002  0.4510717E+03  0.7546771E-02  0.1027403E+00
         21   -1    0    0  502  501  0.00000000000E+00  0.00000000000E+00  0.17253872813E+04  0.17253872813E+04  0.00000000000E+00 0. -1.
         21   -1    0    0  501  502 -0.00000000000E+00 -0.00000000000E+00 -0.29481154750E+02  0.29481154750E+02  0.00000000000E+00 0. -1.
      99926    2    1    2    0    0 -0.35527136788E-14  0.00000000000E+00  0.16959061265E+04  0.17548684360E+04  0.45107165481E+03 0.  0.
      99925    2    3    3    0    0  0.20394197598E+02  0.10537213993E+03  0.11552232919E+04  0.11896210151E+04  0.26294123699E+03 0.  0.
         25    1    4    4    0    0 -0.15005178905E+02  0.35927790695E+02  0.42756351251E+03  0.44718455571E+03  0.12509000000E+03 0.  0.
         25    1    4    4    0    0  0.35399376503E+02  0.69444349237E+02  0.72765977943E+03  0.74243645936E+03  0.12509000000E+03 0.  0.
         25    1    3    3    0    0 -0.20394197598E+02 -0.10537213993E+03  0.54068283458E+03  0.56524742094E+03  0.12509000000E+03 0.  0.
<mgrwt>
<rscale>  2 0.45107165E+03</rscale>
<asrwt>0</asrwt>
<pdfrwt beam="1">  1       21 0.25373336E+00 0.45107165E+03</pdfrwt>
<pdfrwt beam="2">  1       21 0.43354651E-02 0.45107165E+03</pdfrwt>
<totfact> 0.18707055E+04</totfact>
</mgrwt>
</event>
<event>
 7    0  0.4712189E-002  0.4484462E+03  0.7546771E-02  0.1028186E+00
         21   -1    0    0  502  501  0.00000000000E+00  0.00000000000E+00  0.84589266630E+03  0.84589266630E+03  0.00000000000E+00 0.  1.
         21   -1    0    0  501  502 -0.00000000000E+00 -0.00000000000E+00 -0.59435424865E+02  0.59435424865E+02  0.00000000000E+00 0.  1.
      99926    2    1    2    0    0  0.00000000000E+00  0.00000000000E+00  0.78645724144E+03  0.90532809117E+03  0.44844616182E+03 0.  0.
      99925    2    3    3    0    0 -0.79121736413E+02  0.31841241081E+02  0.62797645517E+03  0.68615286099E+03  0.26301560142E+03 0.  0.
         25    1    3    3    0    0  0.79121736413E+02 -0.31841241081E+02  0.15848078627E+03  0.21917523017E+03  0.12509000000E+03 0.  0.
         25    1    4    4    0    0 -0.53347037449E+02  0.42027347802E+02  0.40098911195E+03  0.42550203334E+03  0.12509000000E+03 0.  0.
         25    1    4    4    0    0 -0.25774698964E+02 -0.10186106722E+02  0.22698734322E+03  0.26065082765E+03  0.12509000000E+03 0.  0.
<mgrwt>
<rscale>  2 0.44844616E+03</rscale>
<asrwt>0</asrwt>
<pdfrwt beam="1">  1       21 0.12439597E+00 0.44844616E+03</pdfrwt>
<pdfrwt beam="2">  1       21 0.87405042E-02 0.44844616E+03</pdfrwt>
<totfact> 0.45282383E+04</totfact>
</mgrwt>
</event>
<event>
 7    0  0.4712189E-002  0.4580339E+03  0.7546771E-02  0.1025353E+00
         21   -1    0    0  502  501  0.00000000000E+00  0.00000000000E+00  0.32839465650E+02  0.32839465650E+02  0.00000000000E+00 0.  1.
         21   -1    0    0  501  502 -0.00000000000E+00 -0.00000000000E+00 -0.15971260075E+04  0.15971260075E+04  0.00000000000E+00 0.  1.
      99926    2    1    2    0    0  0.00000000000E+00  0.00000000000E+00 -0.15642865419E+04  0.16299654732E+04  0.45803390557E+03 0.  0.
      99925    2    3    3    0    0 -0.32527335265E+02  0.11095150021E+03 -0.96380670629E+03  0.10057925773E+04  0.26330035788E+03 0.  0.
         25    1    4    4    0    0  0.14756898338E+02  0.26217690930E+02 -0.46453856247E+03  0.48202563986E+03  0.12509000000E+03 0.  0.
         25    1    3    3    0    0  0.32527335265E+02 -0.11095150021E+03 -0.60047983556E+03  0.62417289589E+03  0.12509000000E+03 0.  0.
         25    1    4    4    0    0 -0.47284233604E+02  0.84733809285E+02 -0.49926814383E+03  0.52376693741E+03  0.12509000000E+03 0.  0.
<mgrwt>
<rscale>  2 0.45803391E+03</rscale>
<asrwt>0</asrwt>
<pdfrwt beam="1">  1       21 0.48293315E-02 0.45803391E+03</pdfrwt>
<pdfrwt beam="2">  1       21 0.23487155E+00 0.45803391E+03</pdfrwt>
<totfact> 0.20279074E+04</totfact>
</mgrwt>
</event>
<event>
 7    0  0.4712189E-002  0.4528937E+03  0.7546771E-02  0.1026863E+00
         21   -1    0    0  502  501  0.00000000000E+00  0.00000000000E+00  0.19155413776E+03  0.19155413776E+03  0.00000000000E+00 0. -1.
         21   -1    0    0  501  502 -0.00000000000E+00 -0.00000000000E+00 -0.26769547206E+03  0.26769547206E+03  0.00000000000E+00 0. -1.
      99926    2    1    2    0    0  0.00000000000E+00 -0.44408920985E-15 -0.76141334298E+02  0.45924960982E+03  0.45289369761E+03 0.  0.
      99925    2    3    3    0    0 -0.10279407942E+03 -0.60920044653E+00 -0.30034252313E+01  0.28158797713E+03  0.26213693828E+03 0.  0.
         25    1    4    4    0    0 -0.66501170909E+02  0.68636213555E+01  0.34248820236E+02  0.14591094825E+03  0.12509000000E+03 0.  0.
         25    1    3    3    0    0  0.10279407942E+03  0.60920044653E+00 -0.73137909067E+02  0.17766163270E+03  0.12509000000E+03 0.  0.
         25    1    4    4    0    0 -0.36292908512E+02 -0.74728218020E+01 -0.37252245467E+02  0.13567702888E+03  0.12509000000E+03 0.  0.
<mgrwt>
<rscale>  2 0.45289370E+03</rscale>
<asrwt>0</asrwt>
<pdfrwt beam="1">  1       21 0.28169726E-01 0.45289370E+03</pdfrwt>
<pdfrwt beam="2">  1       21 0.39366981E-01 0.45289370E+03</pdfrwt>
<totfact> 0.69393464E+04</totfact>
</mgrwt>
</event>
<event>
 7    0  0.4712189E-002  0.4476503E+03  0.7546771E-02  0.1028425E+00
         21   -1    0    0  502  501  0.00000000000E+00  0.00000000000E+00  0.14263667538E+03  0.14263667538E+03  0.00000000000E+00 0.  1.
         21   -1    0    0  501  502 -0.00000000000E+00 -0.00000000000E+00 -0.35122589697E+03  0.35122589697E+03  0.00000000000E+00 0.  1.
      99926    2    1    2    0    0  0.17763568394E-14 -0.17763568394E-14 -0.20858922159E+03  0.49386257235E+03  0.44765028427E+03 0.  0.
      99925    2    3    3    0    0 -0.12172836912E+02  0.10638067713E+02 -0.24800295246E+03  0.36171758863E+03  0.26281705244E+03 0.  0.
         25    1    4    4    0    0 -0.94952457770E+01 -0.29781509397E+02 -0.96084578862E+02  0.16080066041E+03  0.12509000000E+03 0.  0.
         25    1    4    4    0    0 -0.26775911352E+01  0.40419577109E+02 -0.15191837359E+03  0.20091692821E+03  0.12509000000E+03 0.  0.
         25    1    3    3    0    0  0.12172836912E+02 -0.10638067713E+02  0.39413730862E+02  0.13214498372E+03  0.12509000000E+03 0.  0.
<mgrwt>
<rscale>  2 0.44765028E+03</rscale>
<asrwt>0</asrwt>
<pdfrwt beam="1">  1       21 0.20975982E-01 0.44765028E+03</pdfrwt>
<pdfrwt beam="2">  1       21 0.51650867E-01 0.44765028E+03</pdfrwt>
<totfact> 0.69681634E+04</totfact>
</mgrwt>
</event>
<event>
 7    0  0.4712189E-002  0.4560779E+03  0.7546771E-02  0.1025925E+00
         21   -1    0    0  502  501  0.00000000000E+00  0.00000000000E+00  0.19018735416E+02  0.19018735416E+02  0.00000000000E+00 0. -1.
         21   -1    0    0  501  502 -0.00000000000E+00 -0.00000000000E+00 -0.27342385971E+04  0.27342385971E+04  0.00000000000E+00 0. -1.
      99926    2    1    2    0    0  0.00000000000E+00  0.17763568394E-14 -0.27152198617E+04  0.27532573325E+04  0.45607789003E+03 0.  0.
      99925    2    3    3    0    0 -0.47898380381E+02  0.12057295895E+02 -0.23287124220E+04  0.23440200636E+04  0.26284763842E+03 0.  0.
         25    1    4    4    0    0 -0.61978711551E+02  0.21349366981E+02 -0.12285421198E+04  0.12366326878E+04  0.12509000000E+03 0.  0.
         25    1    4    4    0    0  0.14080331169E+02 -0.92920710859E+01 -0.11001703022E+04  0.11073873758E+04  0.12509000000E+03 0.  0.
         25    1    3    3    0    0  0.47898380381E+02 -0.12057295895E+02 -0.38650743969E+03  0.40923726891E+03  0.12509000000E+03 0.  0.
<mgrwt>
<rscale>  2 0.45607789E+03</rscale>
<asrwt>0</asrwt>
<pdfrwt beam="1">  1       21 0.27968723E-02 0.45607789E+03</pdfrwt>
<pdfrwt beam="2">  1       21 0.40209399E+00 0.45607789E+03</pdfrwt>
<totfact> 0.48316787E+03</totfact>
</mgrwt>
</event>
<event>
 7    0  0.4712189E-002  0.4614266E+03  0.7546771E-02  0.1024368E+00
         21   -1    0    0  502  501  0.00000000000E+00  0.00000000000E+00  0.18432245010E+03  0.18432245010E+03  0.00000000000E+00 0.  1.
         21   -1    0    0  501  502 -0.00000000000E+00 -0.00000000000E+00 -0.28877990614E+03  0.28877990614E+03  0.00000000000E+00 0.  1.
      99926    2    1    2    0    0  0.00000000000E+00 -0.71054273576E-14 -0.10445745605E+03  0.47310235624E+03  0.46142656984E+03 0.  0.
      99925    2    3    3    0    0  0.10736573884E+03 -0.27729837109E+02 -0.10981061126E+03  0.30585251285E+03  0.26304190452E+03 0.  0.
         25    1    4    4    0    0  0.13863384375E+02  0.46412646480E+01 -0.50475067150E+02  0.13567967890E+03  0.12509000000E+03 0.  0.
         25    1    3    3    0    0 -0.10736573884E+03  0.27729837109E+02  0.53531552091E+01  0.16724984339E+03  0.12509000000E+03 0.  0.
         25    1    4    4    0    0  0.93502354464E+02 -0.32371101757E+02 -0.59335544105E+02  0.17017283395E+03  0.12509000000E+03 0.  0.
<mgrwt>
<rscale>  2 0.46142657E+03</rscale>
<asrwt>0</asrwt>
<pdfrwt beam="1">  1       21 0.27106243E-01 0.46142657E+03</pdfrwt>
<pdfrwt beam="2">  1       21 0.42467633E-01 0.46142657E+03</pdfrwt>
<totfact> 0.63886343E+04</totfact>
</mgrwt>
</event>
<event>
 7    0  0.4712189E-002  0.4559031E+03  0.7546771E-02  0.1025976E+00
         21   -1    0    0  502  501  0.00000000000E+00  0.00000000000E+00  0.65973303459E+02  0.65973303459E+02  0.00000000000E+00 0. -1.
         21   -1    0    0  501  502 -0.00000000000E+00 -0.00000000000E+00 -0.78762015407E+03  0.78762015407E+03  0.00000000000E+00 0. -1.
      99926    2    1    2    0    0  0.00000000000E+00  0.00000000000E+00 -0.72164685061E+03  0.85359345753E+03  0.45590307494E+03 0.  0.
      99925    2    3    3    0    0 -0.21616569462E+02  0.92798563311E+02 -0.57048423476E+03  0.63547309177E+03  0.26323931854E+03 0.  0.
         25    1    3    3    0    0  0.21616569462E+02 -0.92798563311E+02 -0.15116261585E+03  0.21812036576E+03  0.12509000000E+03 0.  0.
         25    1    4    4    0    0 -0.41945695565E+02  0.53439440651E+02 -0.35407083545E+03  0.38161352153E+03  0.12509000000E+03 0.  0.
         25    1    4    4    0    0  0.20329126103E+02  0.39359122659E+02 -0.21641339931E+03  0.25385957024E+03  0.12509000000E+03 0.  0.
<mgrwt>
<rscale>  2 0.45590307E+03</rscale>
<asrwt>0</asrwt>
<pdfrwt beam="1">  1       21 0.97019567E-02 0.45590307E+03</pdfrwt>
<pdfrwt beam="2">  1       21 0.11582649E+00 0.45590307E+03</pdfrwt>
<totfact> 0.44959713E+04</totfact>
</mgrwt>
</event>
<event>
 7    0  0.4712189E-002  0.4529298E+03  0.7546771E-02  0.1026852E+00
         21   -1    0    0  502  501  0.00000000000E+00  0.00000000000E+00  0.97993764413E+02  0.97993764413E+02  0.00000000000E+00 0.  1.
         21   -1    0    0  501  502 -0.00000000000E+00 -0.00000000000E+00 -0.52336337903E+03  0.52336337903E+03  0.00000000000E+00 0.  1.
      99926    2    1    2    0    0  0.71054273576E-14  0.00000000000E+00 -0.42536961462E+03  0.62135714345E+03  0.45292978559E+03 0.  0.
      99925    2    3    3    0    0 -0.37186650159E+02  0.35233502210E+02 -0.40355569387E+03  0.48443526110E+03  0.26305147312E+03 0.  0.
         25    1    4    4    0    0 -0.59531497691E+02  0.20496987244E+02 -0.21451554263E+03  0.25618070152E+03  0.12509000000E+03 0.  0.
         25    1    4    4    0    0  0.22344847532E+02  0.14736514966E+02 -0.18904015124E+03  0.22825455957E+03  0.12509000000E+03 0.  0.
         25    1    3    3    0    0  0.37186650159E+02 -0.35233502210E+02 -0.21813920750E+02  0.13692188235E+03  0.12509000000E+03 0.  0.
<mgrwt>
<rscale>  2 0.45292979E+03</rscale>
<asrwt>0</asrwt>
<pdfrwt beam="1">  1       21 0.14410848E-01 0.45292979E+03</pdfrwt>
<pdfrwt beam="2">  1       21 0.76965202E-01 0.45292979E+03</pdfrwt>
<totfact> 0.58330237E+04</totfact>
</mgrwt>
</event>
<event>
 7    0  0.4712189E-002  0.4348608E+03  0.7546771E-02  0.1032335E+00
         21   -1    0    0  502  501  0.00000000000E+00  0.00000000000E+00  0.10671342485E+03  0.10671342485E+03  0.00000000000E+00 0. -1.
         21   -1    0    0  501  502 -0.00000000000E+00 -0.00000000000E+00 -0.44301819547E+03  0.44301819547E+03  0.00000000000E+00 0. -1.
      99926    2    1    2    0    0  0.00000000000E+00  0.00000000000E+00 -0.33630477062E+03  0.54973162032E+03  0.43486084629E+03 0.  0.
      99925    2    3    3    0    0 -0.68299049040E+02  0.53300642304E+02 -0.25887813883E+03  0.37900344462E+03  0.26290683083E+03 0.  0.
         25    1    3    3    0    0  0.68299049040E+02 -0.53300642304E+02 -0.77426631792E+02  0.17072817571E+03  0.12509000000E+03 0.  0.
         25    1    4    4    0    0 -0.26847901977E+02  0.14043703509E+02 -0.17740663856E+03  0.21917723183E+03  0.12509000000E+03 0.  0.
         25    1    4    4    0    0 -0.41451147062E+02  0.39256938795E+02 -0.81471500270E+02  0.15982621278E+03  0.12509000000E+03 0.  0.
<mgrwt>
<rscale>  2 0.43486085E+03</rscale>
<asrwt>0</asrwt>
<pdfrwt beam="1">  1       21 0.15693151E-01 0.43486085E+03</pdfrwt>
<pdfrwt beam="2">  1       21 0.65149734E-01 0.43486085E+03</pdfrwt>
<totfact> 0.72810449E+04</totfact>
</mgrwt>
</event>
<event>
 7    0  0.4712189E-002  0.4641808E+03  0.7546771E-02  0.1023576E+00
         21   -1    0    0  502  501  0.00000000000E+00  0.00000000000E+00  0.59046549358E+03  0.59046549358E+03  0.00000000000E+00 0. -1.
         21   -1    0    0  501  502 -0.00000000000E+00 -0.00000000000E+00 -0.91226258714E+02  0.91226258714E+02  0.00000000000E+00 0. -1.
      99926    2    1    2    0    0 -0.14210854715E-13  0.00000000000E+00  0.49923923487E+03  0.68169175229E+03  0.46418081769E+03 0.  0.
      99925    2    3    3    0    0 -0.54627963547E+02  0.66581198277E+02  0.18567156870E+03  0.33328185041E+03  0.26303153808E+03 0.  0.
         25    1    4    4    0    0  0.77883250838E+01  0.17862385031E+02  0.10627127527E+03  0.16529009303E+03  0.12509000000E+03 0.  0.
         25    1    3    3    0    0  0.54627963547E+02 -0.66581198277E+02  0.31356766617E+03  0.34840990189E+03  0.12509000000E+03 0.  0.
         25    1    4    4    0    0 -0.62416288631E+02  0.48718813245E+02  0.79400293429E+02  0.16799175738E+03  0.12509000000E+03 0.  0.
<mgrwt>
<rscale>  2 0.46418082E+03</rscale>
<asrwt>0</asrwt>
<pdfrwt beam="1">  1       21 0.86833159E-01 0.46418082E+03</pdfrwt>
<pdfrwt beam="2">  1       21 0.13415627E-01 0.46418082E+03</pdfrwt>
<totfact> 0.50178954E+04</totfact>
</mgrwt>
</event>
<event>
 7    0  0.4712189E-002  0.4088384E+03  0.7546771E-02  0.1040762E+00
         21   -1    0    0  502  501  0.00000000000E+00  0.00000000000E+00  0.22767373074E+03  0.22767373074E+03  0.00000000000E+00 0. -1.
         21   -1    0    0  501  502 -0.00000000000E+00 -0.00000000000E+00 -0.18353989728E+03  0.18353989728E+03  0.00000000000E+00 0. -1.
      99926    2    1    2    0    0  0.00000000000E+00  0.88817841970E-15  0.44133833462E+02  0.41121362801E+03  0.40883841870E+03 0.  0.
      99925    2    3    3    0    0  0.50299965846E+02 -0.43495738425E+01 -0.50155557115E+01  0.26764421653E+03  0.26279129645E+03 0.  0.
         25    1    4    4    0    0  0.23857697620E+02  0.22128835685E+02  0.29531345471E+02  0.13258387372E+03  0.12509000000E+03 0.  0.
         25    1    4    4    0    0  0.26442268226E+02 -0.26478409528E+02 -0.34546901182E+02  0.13506034282E+03  0.12509000000E+03 0.  0.
         25    1    3    3    0    0 -0.50299965846E+02  0.43495738425E+01  0.49149389174E+02  0.14356941148E+03  0.12509000000E+03 0.  0.
<mgrwt>
<rscale>  2 0.40883842E+03</rscale>
<asrwt>0</asrwt>
<pdfrwt beam="1">  1       21 0.33481431E-01 0.40883842E+03</pdfrwt>
<pdfrwt beam="2">  1       21 0.26991161E-01 0.40883842E+03</pdfrwt>
<totfact> 0.10579755E+05</totfact>
</mgrwt>
</event>
<event>
 7    0  0.4712189E-002  0.4561161E+03  0.7546771E-02  0.1025914E+00
         21   -1    0    0  502  501  0.00000000000E+00  0.00000000000E+00  0.30694068508E+02  0.30694068508E+02  0.00000000000E+00 0.  1.
         21   -1    0    0  501  502 -0.00000000000E+00 -0.00000000000E+00 -0.16944796856E+04  0.16944796856E+04  0.00000000000E+00 0.  1.
      99926    2    1    2    0    0  0.00000000000E+00  0.00000000000E+00 -0.16637856170E+04  0.17251737541E+04  0.45611610607E+03 0.  0.
      99925    2    3    3    0    0 -0.12866265543E+02  0.97754381039E+02 -0.12641106443E+04  0.12949307393E+04  0.26296090734E+03 0.  0.
         25    1    3    3    0    0  0.12866265543E+02 -0.97754381039E+02 -0.39967497279E+03  0.43024301479E+03  0.12509000000E+03 0.  0.
         25    1    4    4    0    0 -0.12709617135E+02  0.66233564439E+01 -0.58914624351E+03  0.60245017018E+03  0.12509000000E+03 0.  0.
         25    1    4    4    0    0 -0.15664840816E+00  0.91131024595E+02 -0.67496440075E+03  0.69248056909E+03  0.12509000000E+03 0.  0.
<mgrwt>
<rscale>  2 0.45611611E+03</rscale>
<asrwt>0</asrwt>
<pdfrwt beam="1">  1       21 0.45138351E-02 0.45611611E+03</pdfrwt>
<pdfrwt beam="2">  1       21 0.24918811E+00 0.45611611E+03</pdfrwt>
<totfact> 0.18581023E+04</totfact>
</mgrwt>
</event>
<event>
 7    0  0.4712189E-002  0.4463715E+03  0.7546771E-02  0.1028810E+00
         21   -1    0    0  502  501  0.00000000000E+00  0.00000000000E+00  0.14699441310E+04  0.14699441310E+04  0.00000000000E+00 0. -1.
         21   -1    0    0  501  502 -0.00000000000E+00 -0.00000000000E+00 -0.33886926645E+02  0.33886926645E+02  0.00000000000E+00 0. -1.
      99926    2    1    2    0    0  0.00000000000E+00  0.00000000000E+00  0.14360572044E+04  0.15038310577E+04  0.44637154453E+03 0.  0.
      99925    2    3    3    0    0 -0.34851005709E+02 -0.94839411673E+02  0.81683350553E+03  0.86406969284E+03  0.26304058951E+03 0.  0.
         25    1    4    4    0    0 -0.23044100128E+02 -0.53972802757E+01  0.35168379991E+03  0.37401759906E+03  0.12509000000E+03 0.  0.
         25    1    3    3    0    0  0.34851005709E+02  0.94839411673E+02  0.61922369887E+03  0.63976136484E+03  0.12509000000E+03 0.  0.
         25    1    4    4    0    0 -0.11806905581E+02 -0.89442131397E+02  0.46514970561E+03  0.49005209378E+03  0.12509000000E+03 0.  0.
<mgrwt>
<rscale>  2 0.44637154E+03</rscale>
<asrwt>0</asrwt>
<pdfrwt beam="1">  1       21 0.21616821E+00 0.44637154E+03</pdfrwt>
<pdfrwt beam="2">  1       21 0.49833726E-02 0.44637154E+03</pdfrwt>
<totfact> 0.25341730E+04</totfact>
</mgrwt>
</event>
<event>
 7    0  0.4712189E-002  0.4541515E+03  0.7546771E-02  0.1026491E+00
         21   -1    0    0  502  501  0.00000000000E+00  0.00000000000E+00  0.31144868490E+03  0.31144868490E+03  0.00000000000E+00 0.  1.
         21   -1    0    0  501  502 -0.00000000000E+00 -0.00000000000E+00 -0.16555983884E+03  0.16555983884E+03  0.00000000000E+00 0.  1.
      99926    2    1    2    0    0  0.35527136788E-14  0.00000000000E+00  0.14588884606E+03  0.47700852374E+03  0.45415149049E+03 0.  0.
      99925    2    3    3    0    0  0.30822662425E+02  0.98396881803E+02  0.13865087687E+03  0.31473751843E+03  0.26306587955E+03 0.  0.
         25    1    3    3    0    0 -0.30822662425E+02 -0.98396881803E+02  0.72379691939E+01  0.16227100531E+03  0.12509000000E+03 0.  0.
         25    1    4    4    0    0 -0.19664859406E+02  0.28976787703E+02  0.76803336842E+02  0.15090600244E+03  0.12509000000E+03 0.  0.
         25    1    4    4    0    0  0.50487521831E+02  0.69420094101E+02  0.61847540026E+02  0.16383151599E+03  0.12509000000E+03 0.  0.
<mgrwt>
<rscale>  2 0.45415149E+03</rscale>
<asrwt>0</asrwt>
<pdfrwt beam="1">  1       21 0.45801277E-01 0.45415149E+03</pdfrwt>
<pdfrwt beam="2">  1       21 0.24347035E-01 0.45415149E+03</pdfrwt>
<totfact> 0.67371066E+04</totfact>
</mgrwt>
</event>
<event>
 7    0  0.4712189E-002  0.4555016E+03  0.7546771E-02  0.1026094E+00
         21   -1    0    0  502  501  0.00000000000E+00  0.00000000000E+00  0.21388956802E+03  0.21388956802E+03  0.00000000000E+00 0.  1.
         21   -1    0    0  501  502 -0.00000000000E+00 -0.00000000000E+00 -0.24251029696E+03  0.24251029696E+03  0.00000000000E+00 0.  1.
      99926    2    1    2    0    0  0.00000000000E+00 -0.17763568394E-14 -0.28620728949E+02  0.45639986498E+03  0.45550158137E+03 0.  0.
      99925    2    3    3    0    0  0.10359712691E+03 -0.11375594424E+02  0.27540535294E+02  0.28416930859E+03  0.26292954572E+03 0.  0.
         25    1    4    4    0    0  0.71047015522E+02 -0.41041891261E+02  0.52321264950E+01  0.14968967399E+03  0.12509000000E+03 0.  0.
         25    1    4    4    0    0  0.32550111384E+02  0.29666296837E+02  0.22308408799E+02  0.13447963460E+03  0.12509000000E+03 0.  0.
         25    1    3    3    0    0 -0.10359712691E+03  0.11375594424E+02 -0.56161264243E+02  0.17223055639E+03  0.12509000000E+03 0.  0.
<mgrwt>
<rscale>  2 0.45550158E+03</rscale>
<asrwt>0</asrwt>
<pdfrwt beam="1">  1       21 0.31454349E-01 0.45550158E+03</pdfrwt>
<pdfrwt beam="2">  1       21 0.35663278E-01 0.45550158E+03</pdfrwt>
<totfact> 0.68170169E+04</totfact>
</mgrwt>
</event>
<event>
 7    0  0.4712189E-002  0.4952772E+03  0.7546771E-02  0.1015019E+00
         21   -1    0    0  502  501  0.00000000000E+00  0.00000000000E+00  0.33612271514E+03  0.33612271514E+03  0.00000000000E+00 0.  1.
         21   -1    0    0  501  502 -0.00000000000E+00 -0.00000000000E+00 -0.18244784618E+03  0.18244784618E+03  0.00000000000E+00 0.  1.
      99926    2    1    2    0    0  0.71054273576E-14  0.00000000000E+00  0.15367486896E+03  0.51857056132E+03  0.49527715646E+03 0.  0.
      99925    2    3    3    0    0 -0.41374507953E+02  0.13281281967E+03  0.41290114688E+02  0.30033001497E+03  0.26294894818E+03 0.  0.
         25    1    3    3    0    0  0.41374507953E+02 -0.13281281967E+03  0.11238475428E+03  0.21824054635E+03  0.12509000000E+03 0.  0.
         25    1    4    4    0    0 -0.31481924206E+01  0.10382178039E+03  0.10938466197E+02  0.16296021398E+03  0.12509000000E+03 0.  0.
         25    1    4    4    0    0 -0.38226315532E+02  0.28991039275E+02  0.30351648491E+02  0.13736980099E+03  0.12509000000E+03 0.  0.
<mgrwt>
<rscale>  2 0.49527716E+03</rscale>
<asrwt>0</asrwt>
<pdfrwt beam="1">  1       21 0.49429811E-01 0.49527716E+03</pdfrwt>
<pdfrwt beam="2">  1       21 0.26830566E-01 0.49527716E+03</pdfrwt>
<totfact> 0.47046522E+04</totfact>
</mgrwt>
</event>
<event>
 7    0  0.4712189E-002  0.4569014E+03  0.7546771E-02  0.1025684E+00
         21   -1    0    0  502  501  0.00000000000E+00  0.00000000000E+00  0.38589895330E+02  0.38589895330E+02  0.00000000000E+00 0.  1.
         21   -1    0    0  501  502 -0.00000000000E+00 -0.00000000000E+00 -0.13524192700E+04  0.13524192700E+04  0.00000000000E+00 0.  1.
      99926    2    1    2    0    0  0.00000000000E+00  0.00000000000E+00 -0.13138293747E+04  0.13910091653E+04  0.45690138136E+03 0.  0.
      99925    2    3    3    0    0 -0.11172365659E+03  0.26654898506E+02 -0.81476113595E+03  0.86383815507E+03  0.26303610104E+03 0.  0.
         25    1    3    3    0    0  0.11172365659E+03 -0.26654898506E+02 -0.49906823873E+03  0.52717101027E+03  0.12509000000E+03 0.  0.
         25    1    4    4    0    0 -0.17080010856E+02  0.14345440638E+02 -0.42264673473E+03  0.44133353478E+03  0.12509000000E+03 0.  0.
         25    1    4    4    0    0 -0.94643645733E+02  0.12309457868E+02 -0.39211440122E+03  0.42250462030E+03  0.12509000000E+03 0.  0.
<mgrwt>
<rscale>  2 0.45690138E+03</rscale>
<asrwt>0</asrwt>
<pdfrwt beam="1">  1       21 0.56749861E-02 0.45690138E+03</pdfrwt>
<pdfrwt beam="2">  1       21 0.19888513E+00 0.45690138E+03</pdfrwt>
<totfact> 0.26183540E+04</totfact>
</mgrwt>
</event>
<event>
 7    0  0.4712189E-002  0.4566537E+03  0.7546771E-02  0.1025756E+00
         21   -1    0    0  502  501  0.00000000000E+00  0.00000000000E+00  0.43082583422E+03  0.43082583422E+03  0.00000000000E+00 0.  1.
         21   -1    0    0  501  502 -0.00000000000E+00 -0.00000000000E+00 -0.12100747659E+03  0.12100747659E+03  0.00000000000E+00 0.  1.
      99926    2    1    2    0    0  0.00000000000E+00  0.14210854715E-13  0.30981835763E+03  0.55183331081E+03  0.45665368519E+03 0.  0.
      99925    2    3    3    0    0 -0.34994214626E+02 -0.87912572479E+02  0.27288753181E+03  0.39069793464E+03  0.26310464774E+03 0.  0.
         25    1    3    3    0    0  0.34994214626E+02  0.87912572479E+02  0.36930825822E+02  0.16113537617E+03  0.12509000000E+03 0.  0.
         25    1    4    4    0    0  0.24100209768E+01 -0.62636305416E+02  0.97252850646E+02  0.17039583333E+03  0.12509000000E+03 0.  0.
         25    1    4    4    0    0 -0.37404235603E+02 -0.25276267063E+02  0.17563468116E+03  0.22030210131E+03  0.12509000000E+03 0.  0.
<mgrwt>
<rscale>  2 0.45665369E+03</rscale>
<asrwt>0</asrwt>
<pdfrwt beam="1">  1       21 0.63356740E-01 0.45665369E+03</pdfrwt>
<pdfrwt beam="2">  1       21 0.17795217E-01 0.45665369E+03</pdfrwt>
<totfact> 0.60944257E+04</totfact>
</mgrwt>
</event>
<event>
 7    0  0.4712189E-002  0.4592282E+03  0.7546771E-02  0.1025005E+00
         21   -1    0    0  502  501  0.00000000000E+00  0.00000000000E+00  0.21232417851E+03  0.21232417851E+03  0.00000000000E+00 0.  1.
         21   -1    0    0  501  502 -0.00000000000E+00 -0.00000000000E+00 -0.24831195798E+03  0.24831195798E+03  0.00000000000E+00 0.  1.
      99926    2    1    2    0    0 -0.71054273576E-14  0.00000000000E+00 -0.35987779475E+02  0.46063613649E+03  0.45922818943E+03 0.  0.
      99925    2    3    3    0    0  0.49650522698E+02  0.10510920297E+03 -0.34707508540E+02  0.28986650762E+03  0.26325816632E+03 0.  0.
         25    1    3    3    0    0 -0.49650522698E+02 -0.10510920297E+03 -0.12802709352E+01  0.17076962888E+03  0.12509000000E+03 0.  0.
         25    1    4    4    0    0 -0.12027774081E+01  0.56121991048E+02  0.14861638155E+02  0.13791120673E+03  0.12509000000E+03 0.  0.
         25    1    4    4    0    0  0.50853300107E+02  0.48987211922E+02 -0.49569146695E+02  0.15195530089E+03  0.12509000000E+03 0.  0.
<mgrwt>
<rscale>  2 0.45922819E+03</rscale>
<asrwt>0</asrwt>
<pdfrwt beam="1">  1       21 0.31224144E-01 0.45922819E+03</pdfrwt>
<pdfrwt beam="2">  1       21 0.36516464E-01 0.45922819E+03</pdfrwt>
<totfact> 0.65884040E+04</totfact>
</mgrwt>
</event>
<event>
 7    0  0.4712189E-002  0.4359449E+03  0.7546771E-02  0.1031998E+00
         21   -1    0    0  502  501  0.00000000000E+00  0.00000000000E+00  0.22196122256E+02  0.22196122256E+02  0.00000000000E+00 0. -1.
         21   -1    0    0  501  502 -0.00000000000E+00 -0.00000000000E+00 -0.21405540605E+04  0.21405540605E+04  0.00000000000E+00 0. -1.
      99926    2    1    2    0    0 -0.88817841970E-15  0.71054273576E-14 -0.21183579383E+04  0.21627501828E+04  0.43594494892E+03 0.  0.
      99925    2    3    3    0    0 -0.51298991851E+01  0.34866729967E+02 -0.17905580947E+04  0.18101282177E+04  0.26310429345E+03 0.  0.
         25    1    4    4    0    0 -0.26281355046E+02  0.37442619004E+02 -0.10971737870E+04  0.11052287031E+04  0.12509000000E+03 0.  0.
         25    1    4    4    0    0  0.21151455861E+02 -0.25758890369E+01 -0.69338430776E+03  0.70489951457E+03  0.12509000000E+03 0.  0.
         25    1    3    3    0    0  0.51298991851E+01 -0.34866729967E+02 -0.32779984353E+03  0.35262196506E+03  0.12509000000E+03 0.  0.
<mgrwt>
<rscale>  2 0.43594495E+03</rscale>
<asrwt>0</asrwt>
<pdfrwt beam="1">  1       21 0.32641368E-02 0.43594495E+03</pdfrwt>
<pdfrwt beam="2">  1       21 0.31478725E+00 0.43594495E+03</pdfrwt>
<totfact> 0.13058228E+04</totfact>
</mgrwt>
</event>
<event>
 7    0  0.4712189E-002  0.4511614E+03  0.7546771E-02  0.1027376E+00
         21   -1    0    0  502  501  0.00000000000E+00  0.00000000000E+00  0.92781330776E+02  0.92781330776E+02  0.00000000000E+00 0.  1.
         21   -1    0    0  501  502 -0.00000000000E+00 -0.00000000000E+00 -0.54845784097E+03  0.54845784097E+03  0.00000000000E+00 0.  1.
      99926    2    1    2    0    0  0.00000000000E+00  0.00000000000E+00 -0.45567651020E+03  0.64123917175E+03  0.45116138292E+03 0.  0.
      99925    2    3    3    0    0 -0.10411449088E+03  0.33702015094E+02 -0.27552270160E+03  0.39612989839E+03  0.26273653015E+03 0.  0.
         25    1    4    4    0    0 -0.84523926482E+02  0.32871235216E+02 -0.18187516456E+03  0.23864386821E+03  0.12509000000E+03 0.  0.
         25    1    4    4    0    0 -0.19590564393E+02  0.83077987782E+00 -0.93647537039E+02  0.15748603018E+03  0.12509000000E+03 0.  0.
         25    1    3    3    0    0  0.10411449088E+03 -0.33702015094E+02 -0.18015380860E+03  0.24510927335E+03  0.12509000000E+03 0.  0.
<mgrwt>
<rscale>  2 0.45116138E+03</rscale>
<asrwt>0</asrwt>
<pdfrwt beam="1">  1       21 0.13644313E-01 0.45116138E+03</pdfrwt>
<pdfrwt beam="2">  1       21 0.80655564E-01 0.45116138E+03</pdfrwt>
<totfact> 0.57944355E+04</totfact>
</mgrwt>
</event>
<event>
 7    0  0.4712189E-002  0.4622576E+03  0.7546771E-02  0.1024128E+00
         21   -1    0    0  502  501  0.00000000000E+00  0.00000000000E+00  0.60211335964E+02  0.60211335964E+02  0.00000000000E+00 0. -1.
         21   -1    0    0  501  502 -0.00000000000E+00 -0.00000000000E+00 -0.88721704712E+03  0.88721704712E+03  0.00000000000E+00 0. -1.
      99926    2    1    2    0    0  0.00000000000E+00  0.00000000000E+00 -0.82700571116E+03  0.94742838308E+03  0.46225760652E+03 0.  0.
      99925    2    3    3    0    0  0.53818984335E+02 -0.10100769897E+03 -0.44386652020E+03  0.52845083467E+03  0.26295200814E+03 0.  0.
         25    1    4    4    0    0  0.39701131767E+02 -0.13287834475E+02 -0.17901445833E+03  0.22236553420E+03  0.12509000000E+03 0.  0.
         25    1    4    4    0    0  0.14117852568E+02 -0.87719864499E+02 -0.26485206187E+03  0.30608530047E+03  0.12509000000E+03 0.  0.
         25    1    3    3    0    0 -0.53818984335E+02  0.10100769897E+03 -0.38313919096E+03  0.41897754842E+03  0.12509000000E+03 0.  0.
<mgrwt>
<rscale>  2 0.46225761E+03</rscale>
<asrwt>0</asrwt>
<pdfrwt beam="1">  1       21 0.88546083E-02 0.46225761E+03</pdfrwt>
<pdfrwt beam="2">  1       21 0.13047309E+00 0.46225761E+03</pdfrwt>
<totfact> 0.38985011E+04</totfact>
</mgrwt>
</event>
<event>
 7    0  0.4712189E-002  0.4557249E+03  0.7546771E-02  0.1026028E+00
         21   -1    0    0  502  501  0.00000000000E+00  0.00000000000E+00  0.67824897804E+03  0.67824897804E+03  0.00000000000E+00 0.  1.
         21   -1    0    0  501  502 -0.00000000000E+00 -0.00000000000E+00 -0.76551955448E+02  0.76551955448E+02  0.00000000000E+00 0.  1.
      99926    2    1    2    0    0  0.71054273576E-14  0.00000000000E+00  0.60169702259E+03  0.75480093348E+03  0.45572485361E+03 0.  0.
      99925    2    3    3    0    0  0.61621142531E+02 -0.45818177336E+02  0.23834887600E+03  0.36292613931E+03  0.26269511857E+03 0.  0.
         25    1    4    4    0    0  0.19843778031E+02  0.16634865508E+02  0.11366506282E+03  0.17099049354E+03  0.12509000000E+03 0.  0.
         25    1    4    4    0    0  0.41777364500E+02 -0.62453042845E+02  0.12468381318E+03  0.19193564576E+03  0.12509000000E+03 0.  0.
         25    1    3    3    0    0 -0.61621142531E+02  0.45818177336E+02  0.36334814659E+03  0.39187479418E+03  0.12509000000E+03 0.  0.
<mgrwt>
<rscale>  2 0.45572485E+03</rscale>
<asrwt>0</asrwt>
<pdfrwt beam="1">  1       21 0.99742493E-01 0.45572485E+03</pdfrwt>
<pdfrwt beam="2">  1       21 0.11257641E-01 0.45572485E+03</pdfrwt>
<totfact> 0.49742646E+04</totfact>
</mgrwt>
</event>
<event>
 7    0  0.4712189E-002  0.4468117E+03  0.7546771E-02  0.1028677E+00
         21   -1    0    0  502  501  0.00000000000E+00  0.00000000000E+00  0.48868898188E+03  0.48868898188E+03  0.00000000000E+00 0. -1.
         21   -1    0    0  501  502 -0.00000000000E+00 -0.00000000000E+00 -0.10213076565E+03  0.10213076565E+03  0.00000000000E+00 0. -1.
      99926    2    1    2    0    0 -0.17763568394E-14  0.00000000000E+00  0.38655821623E+03  0.59081974753E+03  0.44681172717E+03 0.  0.
      99925    2    3    3    0    0  0.15398180213E+02  0.93584485182E+02  0.18586426812E+03  0.33602428303E+03  0.26338495174E+03 0.  0.
         25    1    4    4    0    0 -0.11959843767E+02  0.76089356396E+02  0.71173895701E+02  0.16323559523E+03  0.12509000000E+03 0.  0.
         25    1    3    3    0    0 -0.15398180213E+02 -0.93584485182E+02  0.20069394811E+03  0.25479546450E+03  0.12509000000E+03 0.  0.
         25    1    4    4    0    0  0.27358023981E+02  0.17495128787E+02  0.11469037242E+03  0.17278868780E+03  0.12509000000E+03 0.  0.
<mgrwt>
<rscale>  2 0.44681173E+03</rscale>
<asrwt>0</asrwt>
<pdfrwt beam="1">  1       21 0.71866026E-01 0.44681173E+03</pdfrwt>
<pdfrwt beam="2">  1       21 0.15019230E-01 0.44681173E+03</pdfrwt>
<totfact> 0.63241128E+04</totfact>
</mgrwt>
</event>
<event>
 7    0  0.4712189E-002  0.4458410E+03  0.7546771E-02  0.1028970E+00
         21   -1    0    0  502  501  0.00000000000E+00  0.00000000000E+00  0.62411371410E+03  0.62411371410E+03  0.00000000000E+00 0. -1.
         21   -1    0    0  501  502 -0.00000000000E+00 -0.00000000000E+00 -0.79622589380E+02  0.79622589380E+02  0.00000000000E+00 0. -1.
      99926    2    1    2    0    0  0.00000000000E+00 -0.35527136788E-14  0.54449112472E+03  0.70373630348E+03  0.44584100298E+03 0.  0.
      99925    2    3    3    0    0  0.10306811252E+03 -0.13275295742E+02  0.32899712118E+03  0.43376511435E+03  0.26289503493E+03 0.  0.
         25    1    3    3    0    0 -0.10306811252E+03  0.13275295742E+02  0.21549400354E+03  0.26997118913E+03  0.12509000000E+03 0.  0.
         25    1    4    4    0    0  0.29001326827E+02 -0.30645426270E+02  0.19374361320E+03  0.23444469468E+03  0.12509000000E+03 0.  0.
         25    1    4    4    0    0  0.74066785692E+02  0.17370130528E+02  0.13525350797E+03  0.19932041967E+03  0.12509000000E+03 0.  0.
<mgrwt>
<rscale>  2 0.44584100E+03</rscale>
<asrwt>0</asrwt>
<pdfrwt beam="1">  1       21 0.91781426E-01 0.44584100E+03</pdfrwt>
<pdfrwt beam="2">  1       21 0.11709205E-01 0.44584100E+03</pdfrwt>
<totfact> 0.56676139E+04</totfact>
</mgrwt>
</event>
<event>
 7    0  0.4712189E-002  0.4555980E+03  0.7546771E-02  0.1026066E+00
         21   -1    0    0  502  501  0.00000000000E+00  0.00000000000E+00  0.15269667954E+04  0.15269667954E+04  0.00000000000E+00 0. -1.
         21   -1    0    0  501  502 -0.00000000000E+00 -0.00000000000E+00 -0.33983969082E+02  0.33983969082E+02  0.00000000000E+00 0. -1.
      99926    2    1    2    0    0  0.00000000000E+00  0.14210854715E-13  0.14929828263E+04  0.15609507645E+04  0.45559803496E+03 0.  0.
      99925    2    3    3    0    0 -0.38805724998E+02  0.94423004129E+02  0.76731020088E+03  0.81753307878E+03  0.26300913012E+03 0.  0.
         25    1    4    4    0    0 -0.23818201659E+02  0.13534522748E+02  0.42598801612E+03  0.44481882606E+03  0.12509000000E+03 0.  0.
         25    1    3    3    0    0  0.38805724998E+02 -0.94423004129E+02  0.72567262543E+03  0.74341768569E+03  0.12509000000E+03 0.  0.
         25    1    4    4    0    0 -0.14987523339E+02  0.80888481381E+02  0.34132218476E+03  0.37271425272E+03  0.12509000000E+03 0.  0.
<mgrwt>
<rscale>  2 0.45559803E+03</rscale>
<asrwt>0</asrwt>
<pdfrwt beam="1">  1       21 0.22455389E+00 0.45559803E+03</pdfrwt>
<pdfrwt beam="2">  1       21 0.49976435E-02 0.45559803E+03</pdfrwt>
<totfact> 0.22220724E+04</totfact>
</mgrwt>
</event>
<event>
 7    0  0.4712189E-002  0.4471166E+03  0.7546771E-02  0.1028585E+00
         21   -1    0    0  502  501  0.00000000000E+00  0.00000000000E+00  0.17272090482E+03  0.17272090482E+03  0.00000000000E+00 0.  1.
         21   -1    0    0  501  502 -0.00000000000E+00 -0.00000000000E+00 -0.28935873913E+03  0.28935873913E+03  0.00000000000E+00 0.  1.
      99926    2    1    2    0    0  0.00000000000E+00  0.00000000000E+00 -0.11663783431E+03  0.46207964395E+03  0.44711655411E+03 0.  0.
      99925    2    3    3    0    0  0.42396760152E+02 -0.58787494613E+02 -0.15330791628E+03  0.31292986082E+03  0.26299871826E+03 0.  0.
         25    1    4    4    0    0  0.54110974371E+02 -0.24625309434E+02 -0.10598197769E+03  0.17439636208E+03  0.12509000000E+03 0.  0.
         25    1    4    4    0    0 -0.11714214218E+02 -0.34162185179E+02 -0.47325938584E+02  0.13853349874E+03  0.12509000000E+03 0.  0.
         25    1    3    3    0    0 -0.42396760152E+02  0.58787494613E+02  0.36670081970E+02  0.14914978312E+03  0.12509000000E+03 0.  0.
<mgrwt>
<rscale>  2 0.44711655E+03</rscale>
<asrwt>0</asrwt>
<pdfrwt beam="1">  1       21 0.25400133E-01 0.44711655E+03</pdfrwt>
<pdfrwt beam="2">  1       21 0.42552755E-01 0.44711655E+03</pdfrwt>
<totfact> 0.72455532E+04</totfact>
</mgrwt>
</event>
<event>
 7    0  0.4712189E-002  0.4547190E+03  0.7546771E-02  0.1026324E+00
         21   -1    0    0  502  501  0.00000000000E+00  0.00000000000E+00  0.72399121665E+02  0.72399121665E+02  0.00000000000E+00 0. -1.
         21   -1    0    0  501  502 -0.00000000000E+00 -0.00000000000E+00 -0.71399116786E+03  0.71399116786E+03  0.00000000000E+00 0. -1.
      99926    2    1    2    0    0  0.00000000000E+00  0.00000000000E+00 -0.64159204619E+03  0.78639028952E+03  0.45471896125E+03 0.  0.
      99925    2    3    3    0    0  0.10480826083E+03  0.37355883483E+02 -0.43642577677E+03  0.52158670235E+03  0.26306842431E+03 0.  0.
         25    1    4    4    0    0  0.28400071671E+02  0.38773562897E+02 -0.16004798817E+03  0.20874103542E+03  0.12509000000E+03 0.  0.
         25    1    4    4    0    0  0.76408189163E+02 -0.14176794149E+01 -0.27637778860E+03  0.31284566693E+03  0.12509000000E+03 0.  0.
         25    1    3    3    0    0 -0.10480826083E+03 -0.37355883483E+02 -0.20516626942E+03  0.26480358717E+03  0.12509000000E+03 0.  0.
<mgrwt>
<rscale>  2 0.45471896E+03</rscale>
<asrwt>0</asrwt>
<pdfrwt beam="1">  1       21 0.10646930E-01 0.45471896E+03</pdfrwt>
<pdfrwt beam="2">  1       21 0.10499870E+00 0.45471896E+03</pdfrwt>
<totfact> 0.48537145E+04</totfact>
</mgrwt>
</event>
<event>
 7    0  0.4712189E-002  0.4547384E+03  0.7546771E-02  0.1026318E+00
         21   -1    0    0  502  501  0.00000000000E+00  0.00000000000E+00  0.26366802188E+03  0.26366802188E+03  0.00000000000E+00 0.  1.
         21   -1    0    0  501  502 -0.00000000000E+00 -0.00000000000E+00 -0.19606760276E+03  0.19606760276E+03  0.00000000000E+00 0.  1.
      99926    2    1    2    0    0  0.00000000000E+00  0.00000000000E+00  0.67600419121E+02  0.45973562465E+03  0.45473841701E+03 0.  0.
      99925    2    3    3    0    0  0.14953446649E+01  0.56083206098E+02  0.14163750709E+03  0.30392625215E+03  0.26298749261E+03 0.  0.
         25    1    4    4    0    0  0.37150424415E+01 -0.46072210125E+01  0.95258136009E+02  0.15734245645E+03  0.12509000000E+03 0.  0.
         25    1    3    3    0    0 -0.14953446649E+01 -0.56083206098E+02 -0.74037087968E+02  0.15580937249E+03  0.12509000000E+03 0.  0.
         25    1    4    4    0    0 -0.22196977765E+01  0.60690427110E+02  0.46379371080E+02  0.14658379570E+03  0.12509000000E+03 0.  0.
<mgrwt>
<rscale>  2 0.45473842E+03</rscale>
<asrwt>0</asrwt>
<pdfrwt beam="1">  1       21 0.38774709E-01 0.45473842E+03</pdfrwt>
<pdfrwt beam="2">  1       21 0.28833471E-01 0.45473842E+03</pdfrwt>
<totfact> 0.68342296E+04</totfact>
</mgrwt>
</event>
<event>
 7    0  0.4712189E-002  0.4517072E+03  0.7546771E-02  0.1027214E+00
         21   -1    0    0  502  501  0.00000000000E+00  0.00000000000E+00  0.30428966396E+03  0.30428966396E+03  0.00000000000E+00 0.  1.
         21   -1    0    0  501  502 -0.00000000000E+00 -0.00000000000E+00 -0.16763583712E+03  0.16763583712E+03  0.00000000000E+00 0.  1.
      99926    2    1    2    0    0 -0.35527136788E-14 -0.14210854715E-13  0.13665382684E+03  0.47192550109E+03  0.45170721733E+03 0.  0.
      99925    2    3    3    0    0 -0.26900045463E+02 -0.87293022108E+02  0.22698168534E+02  0.27963123619E+03  0.26331490129E+03 0.  0.
         25    1    3    3    0    0  0.26900045463E+02  0.87293022108E+02  0.11395565831E+03  0.19229426490E+03  0.12509000000E+03 0.  0.
         25    1    4    4    0    0 -0.35240637248E+02 -0.69704002811E+02 -0.13151548142E+02  0.14805749505E+03  0.12509000000E+03 0.  0.
         25    1    4    4    0    0  0.83405917851E+01 -0.17589019297E+02  0.35849716676E+02  0.13157374114E+03  0.12509000000E+03 0.  0.
<mgrwt>
<rscale>  2 0.45170722E+03</rscale>
<asrwt>0</asrwt>
<pdfrwt beam="1">  1       21 0.44748480E-01 0.45170722E+03</pdfrwt>
<pdfrwt beam="2">  1       21 0.24652329E-01 0.45170722E+03</pdfrwt>
<totfact> 0.69080203E+04</totfact>
</mgrwt>
</event>
<event>
 7    0  0.4712189E-002  0.4478400E+03  0.7546771E-02  0.1028368E+00
         21   -1    0    0  502  501  0.00000000000E+00  0.00000000000E+00  0.12884371844E+03  0.12884371844E+03  0.00000000000E+00 0.  1.
         21   -1    0    0  501  502 -0.00000000000E+00 -0.00000000000E+00 -0.38915487070E+03  0.38915487070E+03  0.00000000000E+00 0.  1.
      99926    2    1    2    0    0  0.00000000000E+00  0.00000000000E+00 -0.26031115226E+03  0.51799858914E+03  0.44783997405E+03 0.  0.
      99925    2    3    3    0    0  0.44420297254E+02 -0.31513542512E+02 -0.27048213082E+03  0.38118768652E+03  0.26301559477E+03 0.  0.
         25    1    3    3    0    0 -0.44420297254E+02  0.31513542512E+02  0.10170978557E+02  0.13681090262E+03  0.12509000000E+03 0.  0.
         25    1    4    4    0    0  0.52870387488E+02  0.59776575189E+01 -0.11576082772E+03  0.17854715791E+03  0.12509000000E+03 0.  0.
         25    1    4    4    0    0 -0.84500902334E+01 -0.37491200031E+02 -0.15472130310E+03  0.20264052862E+03  0.12509000000E+03 0.  0.
<mgrwt>
<rscale>  2 0.44783997E+03</rscale>
<asrwt>0</asrwt>
<pdfrwt beam="1">  1       21 0.18947606E-01 0.44783997E+03</pdfrwt>
<pdfrwt beam="2">  1       21 0.57228658E-01 0.44783997E+03</pdfrwt>
<totfact> 0.67793497E+04</totfact>
</mgrwt>
</event>
<event>
 7    0  0.4712189E-002  0.4545564E+03  0.7546771E-02  0.1026372E+00
         21   -1    0    0  502  501  0.00000000000E+00  0.00000000000E+00  0.10461102605E+04  0.10461102605E+04  0.00000000000E+00 0.  1.
         21   -1    0    0  501  502 -0.00000000000E+00 -0.00000000000E+00 -0.49378525395E+02  0.49378525395E+02  0.00000000000E+00 0.  1.
      99926    2    1    2    0    0  0.00000000000E+00  0.00000000000E+00  0.99673173508E+03  0.10954887859E+04  0.45455640822E+03 0.  0.
      99925    2    3    3    0    0  0.25073117784E+02  0.99538690569E+02  0.73984714855E+03  0.79188738427E+03  0.26301181342E+03 0.  0.
         25    1    4    4    0    0  0.81901460835E+01  0.79430195750E+02  0.47804326980E+03  0.50054880920E+03  0.12509000000E+03 0.  0.
         25    1    3    3    0    0 -0.25073117784E+02 -0.99538690569E+02  0.25688458653E+03  0.30360140160E+03  0.12509000000E+03 0.  0.
         25    1    4    4    0    0  0.16882971701E+02  0.20108494819E+02  0.26180387874E+03  0.29133857507E+03  0.12509000000E+03 0.  0.
<mgrwt>
<rscale>  2 0.45455641E+03</rscale>
<asrwt>0</asrwt>
<pdfrwt beam="1">  1       21 0.15383973E+00 0.45455641E+03</pdfrwt>
<pdfrwt beam="2">  1       21 0.72615485E-02 0.45455641E+03</pdfrwt>
<totfact> 0.35774727E+04</totfact>
</mgrwt>
</event>
<event>
 7    0  0.4712189E-002  0.4594398E+03  0.7546771E-02  0.1024944E+00
         21   -1    0    0  502  501  0.00000000000E+00  0.00000000000E+00  0.63540571320E+03  0.63540571320E+03  0.00000000000E+00 0. -1.
         21   -1    0    0  501  502 -0.00000000000E+00 -0.00000000000E+00 -0.83051256265E+02  0.83051256265E+02  0.00000000000E+00 0. -1.
      99926    2    1    2    0    0  0.00000000000E+00  0.00000000000E+00  0.55235445694E+03  0.71845696947E+03  0.45943984468E+03 0.  0.
      99925    2    3    3    0    0  0.12430241150E+02  0.14850754691E+02  0.52712785489E+03  0.58938743255E+03  0.26294241658E+03 0.  0.
         25    1    3    3    0    0 -0.12430241150E+02 -0.14850754691E+02  0.25226602050E+02  0.12906953692E+03  0.12509000000E+03 0.  0.
         25    1    4    4    0    0  0.76468077032E+01 -0.29670336821E+02  0.22326034726E+03  0.25774307617E+03  0.12509000000E+03 0.  0.
         25    1    4    4    0    0  0.47834334470E+01  0.44521091512E+02  0.30386750762E+03  0.33164435637E+03  0.12509000000E+03 0.  0.
<mgrwt>
<rscale>  2 0.45943984E+03</rscale>
<asrwt>0</asrwt>
<pdfrwt beam="1">  1       21 0.93442014E-01 0.45943984E+03</pdfrwt>
<pdfrwt beam="2">  1       21 0.12213420E-01 0.45943984E+03</pdfrwt>
<totfact> 0.50138238E+04</totfact>
</mgrwt>
</event>
<event>
 7    0  0.4712189E-002  0.4231045E+03  0.7546771E-02  0.1036061E+00
         21   -1    0    0  502  501  0.00000000000E+00  0.00000000000E+00  0.75549198604E+03  0.75549198604E+03  0.00000000000E+00 0.  1.
         21   -1    0    0  501  502 -0.00000000000E+00 -0.00000000000E+00 -0.59238688069E+02  0.59238688069E+02  0.00000000000E+00 0.  1.
      99926    2    1    2    0    0 -0.88817841970E-15  0.00000000000E+00  0.69625329797E+03  0.81473067411E+03  0.42310449820E+03 0.  0.
      99925    2    3    3    0    0 -0.61149101039E+01  0.22244804732E+02  0.30669393289E+03  0.40493044170E+03  0.26339185765E+03 0.  0.
         25    1    4    4    0    0  0.80920597194E+01 -0.28523958987E+02  0.15471690746E+03  0.20115647447E+03  0.12509000000E+03 0.  0.
         25    1    4    4    0    0 -0.14206969823E+02  0.50768763720E+02  0.15197702543E+03  0.20377396723E+03  0.12509000000E+03 0.  0.
         25    1    3    3    0    0  0.61149101039E+01 -0.22244804732E+02  0.38955936508E+03  0.40980023241E+03  0.12509000000E+03 0.  0.
<mgrwt>
<rscale>  2 0.42310450E+03</rscale>
<asrwt>0</asrwt>
<pdfrwt beam="1">  1       21 0.11110176E+00 0.42310450E+03</pdfrwt>
<pdfrwt beam="2">  1       21 0.87115722E-02 0.42310450E+03</pdfrwt>
<totfact> 0.60939238E+04</totfact>
</mgrwt>
</event>
<event>
 7    0  0.4712189E-002  0.4574724E+03  0.7546771E-02  0.1025517E+00
         21   -1    0    0  502  501  0.00000000000E+00  0.00000000000E+00  0.63507232197E+02  0.63507232197E+02  0.00000000000E+00 0. -1.
         21   -1    0    0  501  502 -0.00000000000E+00 -0.00000000000E+00 -0.82384710268E+03  0.82384710268E+03  0.00000000000E+00 0. -1.
      99926    2    1    2    0    0  0.35527136788E-14 -0.26645352591E-14 -0.76033987048E+03  0.88735433487E+03  0.45747240024E+03 0.  0.
      99925    2    3    3    0    0  0.26594453347E+02 -0.48735914717E+01 -0.69488601237E+03  0.74360896109E+03  0.26335660232E+03 0.  0.
         25    1    4    4    0    0 -0.16634999031E+02 -0.30614127274E+02 -0.33298885323E+03  0.35741157292E+03  0.12509000000E+03 0.  0.
         25    1    3    3    0    0 -0.26594453347E+02  0.48735914717E+01 -0.65453858109E+02  0.14374537378E+03  0.12509000000E+03 0.  0.
         25    1    4    4    0    0  0.43229452378E+02  0.25740535802E+02 -0.36189715914E+03  0.38619738817E+03  0.12509000000E+03 0.  0.
<mgrwt>
<rscale>  2 0.45747240E+03</rscale>
<asrwt>0</asrwt>
<pdfrwt beam="1">  1       21 0.93392999E-02 0.45747240E+03</pdfrwt>
<pdfrwt beam="2">  1       21 0.12115397E+00 0.45747240E+03</pdfrwt>
<totfact> 0.42947396E+04</totfact>
</mgrwt>
</event>
<event>
 7    0  0.4712189E-002  0.4546179E+03  0.7546771E-02  0.1026354E+00
         21   -1    0    0  502  501  0.00000000000E+00  0.00000000000E+00  0.15850653523E+04  0.15850653523E+04  0.00000000000E+00 0.  1.
         21   -1    0    0  501  502 -0.00000000000E+00 -0.00000000000E+00 -0.32597623337E+02  0.32597623337E+02  0.00000000000E+00 0.  1.
      99926    2    1    2    0    0  0.00000000000E+00  0.00000000000E+00  0.15524677289E+04  0.16176629756E+04  0.45461792010E+03 0.  0.
      99925    2    3    3    0    0  0.27315060869E+02  0.46964914002E+02  0.63166186918E+03  0.68681242093E+03  0.26412642591E+03 0.  0.
         25    1    4    4    0    0  0.25975335105E+02  0.25093638179E+02  0.21622819542E+03  0.25240156359E+03  0.12509000000E+03 0.  0.
         25    1    3    3    0    0 -0.27315060869E+02 -0.46964914002E+02  0.92080585976E+03  0.93085055469E+03  0.12509000000E+03 0.  0.
         25    1    4    4    0    0  0.13397257637E+01  0.21871275823E+02  0.41543367377E+03  0.43441085733E+03  0.12509000000E+03 0.  0.
<mgrwt>
<rscale>  2 0.45461792E+03</rscale>
<asrwt>0</asrwt>
<pdfrwt beam="1">  1       21 0.23309779E+00 0.45461792E+03</pdfrwt>
<pdfrwt beam="2">  1       21 0.47937692E-02 0.45461792E+03</pdfrwt>
<totfact> 0.21096093E+04</totfact>
</mgrwt>
</event>
<event>
 7    0  0.4712189E-002  0.4523158E+03  0.7546771E-02  0.1027034E+00
         21   -1    0    0  502  501  0.00000000000E+00  0.00000000000E+00  0.68816815511E+02  0.68816815511E+02  0.00000000000E+00 0. -1.
         21   -1    0    0  501  502 -0.00000000000E+00 -0.00000000000E+00 -0.74323970464E+03  0.74323970464E+03  0.00000000000E+00 0. -1.
      99926    2    1    2    0    0  0.00000000000E+00 -0.17763568394E-14 -0.67442288913E+03  0.81205652015E+03  0.45231577304E+03 0.  0.
      99925    2    3    3    0    0 -0.24614285466E+02 -0.15469946159E+02 -0.61724996322E+03  0.67148115303E+03  0.26276270569E+03 0.  0.
         25    1    4    4    0    0 -0.20307758955E+02 -0.36127817497E+02 -0.38376525219E+03  0.40575965935E+03  0.12509000000E+03 0.  0.
         25    1    3    3    0    0  0.24614285466E+02  0.15469946159E+02 -0.57172925912E+02  0.14057536712E+03  0.12509000000E+03 0.  0.
         25    1    4    4    0    0 -0.43065265111E+01  0.20657871339E+02 -0.23348471103E+03  0.26572149368E+03  0.12509000000E+03 0.  0.
<mgrwt>
<rscale>  2 0.45231577E+03</rscale>
<asrwt>0</asrwt>
<pdfrwt beam="1">  1       21 0.10120120E-01 0.45231577E+03</pdfrwt>
<pdfrwt beam="2">  1       21 0.10929996E+00 0.45231577E+03</pdfrwt>
<totfact> 0.48194322E+04</totfact>
</mgrwt>
</event>
<event>
 7    0  0.4712189E-002  0.4363141E+03  0.7546771E-02  0.1031884E+00
         21   -1    0    0  502  501  0.00000000000E+00  0.00000000000E+00  0.15343326836E+04  0.15343326836E+04  0.00000000000E+00 0.  1.
         21   -1    0    0  501  502 -0.00000000000E+00 -0.00000000000E+00 -0.31018366341E+02  0.31018366341E+02  0.00000000000E+00 0.  1.
      99926    2    1    2    0    0  0.00000000000E+00  0.00000000000E+00  0.15033143173E+04  0.15653510499E+04  0.43631407619E+03 0.  0.
      99925    2    3    3    0    0  0.82480388563E+02  0.19721951994E+02  0.81311126112E+03  0.85879621365E+03  0.26303810318E+03 0.  0.
         25    1    3    3    0    0 -0.82480388563E+02 -0.19721951994E+02  0.69020305614E+03  0.70655483630E+03  0.12509000000E+03 0.  0.
         25    1    4    4    0    0  0.72488361006E+02 -0.51256000496E+01  0.36020008742E+03  0.38816548704E+03  0.12509000000E+03 0.  0.
         25    1    4    4    0    0  0.99920275567E+01  0.24847552044E+02  0.45291117371E+03  0.47063072660E+03  0.12509000000E+03 0.  0.
<mgrwt>
<rscale>  2 0.43631408E+03</rscale>
<asrwt>0</asrwt>
<pdfrwt beam="1">  1       21 0.22563711E+00 0.43631408E+03</pdfrwt>
<pdfrwt beam="2">  1       21 0.45615255E-02 0.43631408E+03</pdfrwt>
<totfact> 0.25762837E+04</totfact>
</mgrwt>
</event>
<event>
 7    0  0.4712189E-002  0.4501747E+03  0.7546771E-02  0.1027670E+00
         21   -1    0    0  502  501  0.00000000000E+00  0.00000000000E+00  0.27043210448E+02  0.27043210448E+02  0.00000000000E+00 0. -1.
         21   -1    0    0  501  502 -0.00000000000E+00 -0.00000000000E+00 -0.18734579823E+04  0.18734579823E+04  0.00000000000E+00 0. -1.
      99926    2    1    2    0    0  0.00000000000E+00  0.00000000000E+00 -0.18464147718E+04  0.19005011927E+04  0.45017471488E+03 0.  0.
      99925    2    3    3    0    0  0.11417021495E+02 -0.36900848680E+02 -0.15953871334E+04  0.16173856609E+04  0.26302899005E+03 0.  0.
         25    1    4    4    0    0  0.10309457724E+02 -0.49201537070E+02 -0.66333587838E+03  0.67689664780E+03  0.12509000000E+03 0.  0.
         25    1    4    4    0    0  0.11075637713E+01  0.12300688390E+02 -0.93205125502E+03  0.94048901307E+03  0.12509000000E+03 0.  0.
         25    1    3    3    0    0 -0.11417021495E+02  0.36900848680E+02 -0.25102763842E+03  0.28311553183E+03  0.12509000000E+03 0.  0.
<mgrwt>
<rscale>  2 0.45017471E+03</rscale>
<asrwt>0</asrwt>
<pdfrwt beam="1">  1       21 0.39769410E-02 0.45017471E+03</pdfrwt>
<pdfrwt beam="2">  1       21 0.27550864E+00 0.45017471E+03</pdfrwt>
<totfact> 0.15993562E+04</totfact>
</mgrwt>
</event>
<event>
 7    0  0.4712189E-002  0.4583333E+03  0.7546771E-02  0.1025266E+00
         21   -1    0    0  502  501  0.00000000000E+00  0.00000000000E+00  0.13840663640E+04  0.13840663640E+04  0.00000000000E+00 0.  1.
         21   -1    0    0  501  502 -0.00000000000E+00 -0.00000000000E+00 -0.37944251926E+02  0.37944251926E+02  0.00000000000E+00 0.  1.
      99926    2    1    2    0    0  0.00000000000E+00  0.00000000000E+00  0.13461221121E+04  0.14220106159E+04  0.45833334069E+03 0.  0.
      99925    2    3    3    0    0  0.34256249181E+02  0.82790927935E+02  0.61411462523E+03  0.67400640654E+03  0.26290689375E+03 0.  0.
         25    1    3    3    0    0 -0.34256249181E+02 -0.82790927935E+02  0.73200748682E+03  0.74800420936E+03  0.12509000000E+03 0.  0.
         25    1    4    4    0    0 -0.13620813755E+02  0.12475266146E+02  0.27435271721E+03  0.30208952378E+03  0.12509000000E+03 0.  0.
         25    1    4    4    0    0  0.47877062937E+02  0.70315661790E+02  0.33976190801E+03  0.37191688277E+03  0.12509000000E+03 0.  0.
<mgrwt>
<rscale>  2 0.45833334E+03</rscale>
<asrwt>0</asrwt>
<pdfrwt beam="1">  1       21 0.20353914E+00 0.45833334E+03</pdfrwt>
<pdfrwt beam="2">  1       21 0.55800380E-02 0.45833334E+03</pdfrwt>
<totfact> 0.25095021E+04</totfact>
</mgrwt>
</event>
<event>
 7    0  0.4712189E-002  0.4562802E+03  0.7546771E-02  0.1025866E+00
         21   -1    0    0  502  501  0.00000000000E+00  0.00000000000E+00  0.10773013529E+04  0.10773013529E+04  0.00000000000E+00 0.  1.
         21   -1    0    0  501  502 -0.00000000000E+00 -0.00000000000E+00 -0.48313230430E+02  0.48313230430E+02  0.00000000000E+00 0.  1.
      99926    2    1    2    0    0  0.00000000000E+00  0.71054273576E-14  0.10289881225E+04  0.11256145833E+04  0.45628021436E+03 0.  0.
      99925    2    3    3    0    0 -0.43173336704E+02  0.55172007190E+02  0.86968538367E+03  0.91129529332E+03  0.26305618731E+03 0.  0.
         25    1    3    3    0    0  0.43173336704E+02 -0.55172007190E+02  0.15930273880E+03  0.21431929000E+03  0.12509000000E+03 0.  0.
         25    1    4    4    0    0 -0.27429591628E+02  0.43261297542E+02  0.32318531688E+03  0.35031440095E+03  0.12509000000E+03 0.  0.
         25    1    4    4    0    0 -0.15743745076E+02  0.11910709649E+02  0.54650006679E+03  0.56098089238E+03  0.12509000000E+03 0.  0.
<mgrwt>
<rscale>  2 0.45628021E+03</rscale>
<asrwt>0</asrwt>
<pdfrwt beam="1">  1       21 0.15842665E+00 0.45628021E+03</pdfrwt>
<pdfrwt beam="2">  1       21 0.71048875E-02 0.45628021E+03</pdfrwt>
<totfact> 0.34263816E+04</totfact>
</mgrwt>
</event>
<event>
 7    0  0.4712189E-002  0.4525319E+03  0.7546771E-02  0.1026970E+00
         21   -1    0    0  502  501  0.00000000000E+00  0.00000000000E+00  0.38810140962E+02  0.38810140962E+02  0.00000000000E+00 0.  1.
         21   -1    0    0  501  502 -0.00000000000E+00 -0.00000000000E+00 -0.13191470696E+04  0.13191470696E+04  0.00000000000E+00 0.  1.
      99926    2    1    2    0    0 -0.71054273576E-14  0.00000000000E+00 -0.12803369286E+04  0.13579572105E+04  0.45253191587E+03 0.  0.
      99925    2    3    3    0    0  0.52555596861E+02  0.88718312128E+02 -0.92923948557E+03  0.97124032148E+03  0.26303747046E+03 0.  0.
         25    1    4    4    0    0  0.24284440409E+02  0.11171265641E+02 -0.34075853962E+03  0.36397585311E+03  0.12509000000E+03 0.  0.
         25    1    3    3    0    0 -0.52555596861E+02 -0.88718312128E+02 -0.35109744305E+03  0.38671688906E+03  0.12509000000E+03 0.  0.
         25    1    4    4    0    0  0.28271156452E+02  0.77547046487E+02 -0.58848094595E+03  0.60726446838E+03  0.12509000000E+03 0.  0.
<mgrwt>
<rscale>  2 0.45253192E+03</rscale>
<asrwt>0</asrwt>
<pdfrwt beam="1">  1       21 0.57073744E-02 0.45253192E+03</pdfrwt>
<pdfrwt beam="2">  1       21 0.19399219E+00 0.45253192E+03</pdfrwt>
<totfact> 0.28007701E+04</totfact>
</mgrwt>
</event>
<event>
 7    0  0.4712189E-002  0.4385588E+03  0.7546771E-02  0.1031190E+00
         21   -1    0    0  502  501  0.00000000000E+00  0.00000000000E+00  0.17685542769E+03  0.17685542769E+03  0.00000000000E+00 0.  1.
         21   -1    0    0  501  502 -0.00000000000E+00 -0.00000000000E+00 -0.27188003715E+03  0.27188003715E+03  0.00000000000E+00 0.  1.
      99926    2    1    2    0    0  0.00000000000E+00  0.00000000000E+00 -0.95024609461E+02  0.44873546484E+03  0.43855882274E+03 0.  0.
      99925    2    3    3    0    0 -0.84832265980E+02 -0.16899565500E+02 -0.10557192553E+03  0.29628592355E+03  0.26297872227E+03 0.  0.
         25    1    3    3    0    0  0.84832265980E+02  0.16899565500E+02  0.10547316070E+02  0.15244954130E+03  0.12509000000E+03 0.  0.
         25    1    4    4    0    0 -0.14800144587E+02  0.14342207199E+02 -0.71905565770E+02  0.14574862495E+03  0.12509000000E+03 0.  0.
         25    1    4    4    0    0 -0.70032121393E+02 -0.31241772699E+02 -0.33666359760E+02  0.15053729859E+03  0.12509000000E+03 0.  0.
<mgrwt>
<rscale>  2 0.43855882E+03</rscale>
<asrwt>0</asrwt>
<pdfrwt beam="1">  1       21 0.26008151E-01 0.43855882E+03</pdfrwt>
<pdfrwt beam="2">  1       21 0.39982358E-01 0.43855882E+03</pdfrwt>
<totfact> 0.78841198E+04</totfact>
</mgrwt>
</event>
<event>
 7    0  0.4712189E-002  0.4576483E+03  0.7546771E-02  0.1025465E+00
         21   -1    0    0  502  501  0.00000000000E+00  0.00000000000E+00  0.15158386417E+04  0.15158386417E+04  0.00000000000E+00 0.  1.
         21   -1    0    0  501  502 -0.00000000000E+00 -0.00000000000E+00 -0.34542263569E+02  0.34542263569E+02  0.00000000000E+00 0.  1.
      99926    2    1    2    0    0  0.00000000000E+00  0.14210854715E-13  0.14812963781E+04  0.15503809053E+04  0.45764832739E+03 0.  0.
      99925    2    3    3    0    0 -0.32509077729E+02  0.99554998719E+02  0.11001646699E+04  0.11358004848E+04  0.26213050664E+03 0.  0.
         25    1    3    3    0    0  0.32509077729E+02 -0.99554998719E+02  0.38113170828E+03  0.41458042050E+03  0.12509000000E+03 0.  0.
         25    1    4    4    0    0 -0.30385876327E+02  0.39555154087E+02  0.40123915085E+03  0.42323548525E+03  0.12509000000E+03 0.  0.
         25    1    4    4    0    0 -0.21232014021E+01  0.59999844631E+02  0.69892551901E+03  0.71256499953E+03  0.12509000000E+03 0.  0.
<mgrwt>
<rscale>  2 0.45764833E+03</rscale>
<asrwt>0</asrwt>
<pdfrwt beam="1">  1       21 0.22291740E+00 0.45764833E+03</pdfrwt>
<pdfrwt beam="2">  1       21 0.50797456E-02 0.45764833E+03</pdfrwt>
<totfact> 0.22112656E+04</totfact>
</mgrwt>
</event>
<event>
 7    0  0.4712189E-002  0.4529281E+03  0.7546771E-02  0.1026852E+00
         21   -1    0    0  502  501  0.00000000000E+00  0.00000000000E+00  0.14079122866E+03  0.14079122866E+03  0.00000000000E+00 0.  1.
         21   -1    0    0  501  502 -0.00000000000E+00 -0.00000000000E+00 -0.36426964468E+03  0.36426964468E+03  0.00000000000E+00 0.  1.
      99926    2    1    2    0    0  0.88817841970E-15  0.00000000000E+00 -0.22347841602E+03  0.50506087334E+03  0.45292812162E+03 0.  0.
      99925    2    3    3    0    0 -0.72401901788E+01 -0.10175928999E+03 -0.90822394745E+02  0.29612906261E+03  0.26274767531E+03 0.  0.
         25    1    3    3    0    0  0.72401901788E+01  0.10175928999E+03 -0.13265602128E+03  0.20893181073E+03  0.12509000000E+03 0.  0.
         25    1    4    4    0    0  0.16693818362E+02 -0.34507765577E+02 -0.10578527349E+02  0.13125883893E+03  0.12509000000E+03 0.  0.
         25    1    4    4    0    0 -0.23934008541E+02 -0.67251524415E+02 -0.80243867396E+02  0.16487022368E+03  0.12509000000E+03 0.  0.
<mgrwt>
<rscale>  2 0.45292812E+03</rscale>
<asrwt>0</asrwt>
<pdfrwt beam="1">  1       21 0.20704592E-01 0.45292812E+03</pdfrwt>
<pdfrwt beam="2">  1       21 0.53569066E-01 0.45292812E+03</pdfrwt>
<totfact> 0.65995169E+04</totfact>
</mgrwt>
</event>
<event>
 7    0  0.4712189E-002  0.4360157E+03  0.7546771E-02  0.1031976E+00
         21   -1    0    0  502  501  0.00000000000E+00  0.00000000000E+00  0.12589574085E+03  0.12589574085E+03  0.00000000000E+00 0.  1.
         21   -1    0    0  501  502 -0.00000000000E+00 -0.00000000000E+00 -0.37751407262E+03  0.37751407262E+03  0.00000000000E+00 0.  1.
      99926    2    1    2    0    0 -0.71054273576E-14  0.00000000000E+00 -0.25161833177E+03  0.50340981346E+03  0.43601565959E+03 0.  0.
      99925    2    3    3    0    0 -0.33080353710E+02 -0.71508066261E+02 -0.10134006497E+03  0.29260474020E+03  0.26294488373E+03 0.  0.
         25    1    4    4    0    0  0.87082700647E+01 -0.26228132395E+02 -0.81308924059E+02  0.15173133535E+03  0.12509000000E+03 0.  0.
         25    1    3    3    0    0  0.33080353710E+02  0.71508066261E+02 -0.15027826679E+03  0.21080507326E+03  0.12509000000E+03 0.  0.
         25    1    4    4    0    0 -0.41788623775E+02 -0.45279933866E+02 -0.20031140913E+02  0.14087340485E+03  0.12509000000E+03 0.  0.
<mgrwt>
<rscale>  2 0.43601566E+03</rscale>
<asrwt>0</asrwt>
<pdfrwt beam="1">  1       21 0.18514080E-01 0.43601566E+03</pdfrwt>
<pdfrwt beam="2">  1       21 0.55516775E-01 0.43601566E+03</pdfrwt>
<totfact> 0.75825366E+04</totfact>
</mgrwt>
</event>
<event>
 7    0  0.4712189E-002  0.4701983E+03  0.7546771E-02  0.1021864E+00
         21   -1    0    0  502  501  0.00000000000E+00  0.00000000000E+00  0.36414487205E+03  0.36414487205E+03  0.00000000000E+00 0. -1.
         21   -1    0    0  501  502 -0.00000000000E+00 -0.00000000000E+00 -0.15178464182E+03  0.15178464182E+03  0.00000000000E+00 0. -1.
      99926    2    1    2    0    0 -0.71054273576E-14  0.00000000000E+00  0.21236023023E+03  0.51592951388E+03  0.47019825170E+03 0.  0.
      99925    2    3    3    0    0 -0.47855009358E+02 -0.11245352103E+03  0.98413469391E+02  0.30720177562E+03  0.26410570549E+03 0.  0.
         25    1    3    3    0    0  0.47855009358E+02  0.11245352103E+03  0.11394676084E+03  0.20872773826E+03  0.12509000000E+03 0.  0.
         25    1    4    4    0    0  0.18385499091E+02 -0.45291202561E+02  0.47911459736E+02  0.14259149933E+03  0.12509000000E+03 0.  0.
         25    1    4    4    0    0 -0.66240508449E+02 -0.67162318470E+02  0.50502009655E+02  0.16461027629E+03  0.12509000000E+03 0.  0.
<mgrwt>
<rscale>  2 0.47019825E+03</rscale>
<asrwt>0</asrwt>
<pdfrwt beam="1">  1       21 0.53550717E-01 0.47019825E+03</pdfrwt>
<pdfrwt beam="2">  1       21 0.22321271E-01 0.47019825E+03</pdfrwt>
<totfact> 0.56976197E+04</totfact>
</mgrwt>
</event>
<event>
 7    0  0.4712189E-002  0.4436663E+03  0.7546771E-02  0.1029628E+00
         21   -1    0    0  502  501  0.00000000000E+00  0.00000000000E+00  0.27860872067E+02  0.27860872067E+02  0.00000000000E+00 0.  1.
         21   -1    0    0  501  502 -0.00000000000E+00 -0.00000000000E+00 -0.17662746521E+04  0.17662746521E+04  0.00000000000E+00 0.  1.
      99926    2    1    2    0    0 -0.71054273576E-14 -0.17763568394E-14 -0.17384137801E+04  0.17941355242E+04  0.44366632560E+03 0.  0.
      99925    2    3    3    0    0  0.51452107177E+02  0.11014687069E+02 -0.14597044204E+04  0.14841434954E+04  0.26301383481E+03 0.  0.
         25    1    3    3    0    0 -0.51452107177E+02 -0.11014687069E+02 -0.27870935971E+03  0.30999202885E+03  0.12509000000E+03 0.  0.
         25    1    4    4    0    0  0.19803548715E+02 -0.33641724206E+02 -0.76634170273E+03  0.77746450697E+03  0.12509000000E+03 0.  0.
         25    1    4    4    0    0  0.31648558462E+02  0.44656411275E+02 -0.69336271764E+03  0.70667898839E+03  0.12509000000E+03 0.  0.
<mgrwt>
<rscale>  2 0.44366633E+03</rscale>
<asrwt>0</asrwt>
<pdfrwt beam="1">  1       21 0.40971872E-02 0.44366633E+03</pdfrwt>
<pdfrwt beam="2">  1       21 0.25974626E+00 0.44366633E+03</pdfrwt>
<totfact> 0.18988649E+04</totfact>
</mgrwt>
</event>
<event>
 7    0  0.4712189E-002  0.4482240E+03  0.7546771E-02  0.1028253E+00
         21   -1    0    0  502  501  0.00000000000E+00  0.00000000000E+00  0.74088655781E+02  0.74088655781E+02  0.00000000000E+00 0. -1.
         21   -1    0    0  501  502 -0.00000000000E+00 -0.00000000000E+00 -0.67792018684E+03  0.67792018684E+03  0.00000000000E+00 0. -1.
      99926    2    1    2    0    0  0.14210854715E-13  0.00000000000E+00 -0.60383153106E+03  0.75200884262E+03  0.44822403046E+03 0.  0.
      99925    2    3    3    0    0  0.64023571835E+02 -0.36919815669E+02 -0.51139857823E+03  0.57980707315E+03  0.26303164396E+03 0.  0.
         25    1    4    4    0    0 -0.13702167272E+01 -0.24903654075E+01 -0.27833901177E+03  0.30516912195E+03  0.12509000000E+03 0.  0.
         25    1    3    3    0    0 -0.64023571835E+02  0.36919815669E+02 -0.92432952834E+02  0.17220176947E+03  0.12509000000E+03 0.  0.
         25    1    4    4    0    0  0.65393788562E+02 -0.34429450261E+02 -0.23305956645E+03  0.27463795121E+03  0.12509000000E+03 0.  0.
<mgrwt>
<rscale>  2 0.44822403E+03</rscale>
<asrwt>0</asrwt>
<pdfrwt beam="1">  1       21 0.10895390E-01 0.44822403E+03</pdfrwt>
<pdfrwt beam="2">  1       21 0.99694149E-01 0.44822403E+03</pdfrwt>
<totfact> 0.52931433E+04</totfact>
</mgrwt>
</event>
<event>
 7    0  0.4712189E-002  0.4503214E+03  0.7546771E-02  0.1027626E+00
         21   -1    0    0  502  501  0.00000000000E+00  0.00000000000E+00  0.16101085560E+03  0.16101085560E+03  0.00000000000E+00 0. -1.
         21   -1    0    0  501  502 -0.00000000000E+00 -0.00000000000E+00 -0.31486909421E+03  0.31486909421E+03  0.00000000000E+00 0. -1.
      99926    2    1    2    0    0 -0.14210854715E-13 -0.14210854715E-13 -0.15385823862E+03  0.47587994981E+03  0.45032140638E+03 0.  0.
      99925    2    3    3    0    0  0.73722375080E+02  0.79797605123E+02 -0.92910876580E+02  0.29934458392E+03  0.26300589835E+03 0.  0.
         25    1    3    3    0    0 -0.73722375080E+02 -0.79797605123E+02 -0.60947362035E+02  0.17653536589E+03  0.12509000000E+03 0.  0.
         25    1    4    4    0    0  0.19366827296E+01  0.27744425824E+02 -0.64283888825E+02  0.14336467615E+03  0.12509000000E+03 0.  0.
         25    1    4    4    0    0  0.71785692350E+02  0.52053179299E+02 -0.28626987755E+02  0.15597990777E+03  0.12509000000E+03 0.  0.
<mgrwt>
<rscale>  2 0.45032141E+03</rscale>
<asrwt>0</asrwt>
<pdfrwt beam="1">  1       21 0.23678067E-01 0.45032141E+03</pdfrwt>
<pdfrwt beam="2">  1       21 0.46304278E-01 0.45032141E+03</pdfrwt>
<totfact> 0.69548207E+04</totfact>
</mgrwt>
</event>
<event>
 7    0  0.4712189E-002  0.4359559E+03  0.7546771E-02  0.1031995E+00
         21   -1    0    0  502  501  0.00000000000E+00  0.00000000000E+00  0.34472693916E+03  0.34472693916E+03  0.00000000000E+00 0.  1.
         21   -1    0    0  501  502 -0.00000000000E+00 -0.00000000000E+00 -0.13783193487E+03  0.13783193487E+03  0.00000000000E+00 0.  1.
      99926    2    1    2    0    0  0.71054273576E-14  0.00000000000E+00  0.20689500429E+03  0.48255887403E+03  0.43595587404E+03 0.  0.
      99925    2    3    3    0    0  0.48835384743E+02 -0.54685388323E+02  0.67168951517E+02  0.28119784399E+03  0.26303074519E+03 0.  0.
         25    1    4    4    0    0  0.51922273556E+02 -0.31142248178E+02  0.66049043531E+02  0.15386925087E+03  0.12509000000E+03 0.  0.
         25    1    4    4    0    0 -0.30868888133E+01 -0.23543140145E+02  0.11199079861E+01  0.12732859311E+03  0.12509000000E+03 0.  0.
         25    1    3    3    0    0 -0.48835384743E+02  0.54685388323E+02  0.13972605277E+03  0.20136103005E+03  0.12509000000E+03 0.  0.
<mgrwt>
<rscale>  2 0.43595587E+03</rscale>
<asrwt>0</asrwt>
<pdfrwt beam="1">  1       21 0.50695138E-01 0.43595587E+03</pdfrwt>
<pdfrwt beam="2">  1       21 0.20269402E-01 0.43595587E+03</pdfrwt>
<totfact> 0.77598752E+04</totfact>
</mgrwt>
</event>
<event>
 7    0  0.4712189E-002  0.4545644E+03  0.7546771E-02  0.1026370E+00
         21   -1    0    0  502  501  0.00000000000E+00  0.00000000000E+00  0.22697326395E+03  0.22697326395E+03  0.00000000000E+00 0.  1.
         21   -1    0    0  501  502 -0.00000000000E+00 -0.00000000000E+00 -0.22759157818E+03  0.22759157818E+03  0.00000000000E+00 0.  1.
      99926    2    1    2    0    0  0.88817841970E-15  0.35527136788E-14 -0.61831423336E+00  0.45456484213E+03  0.45456442160E+03 0.  0.
      99925    2    3    3    0    0  0.46089434935E+01  0.16714146158E+02 -0.11175794481E+03  0.28633841547E+03  0.26305749354E+03 0.  0.
         25    1    4    4    0    0 -0.18689493914E+02  0.28130372179E+02 -0.25126605826E+02  0.13198283768E+03  0.12509000000E+03 0.  0.
         25    1    3    3    0    0 -0.46089434935E+01 -0.16714146158E+02  0.11113963057E+03  0.16822642666E+03  0.12509000000E+03 0.  0.
         25    1    4    4    0    0  0.23298437408E+02 -0.11416226021E+02 -0.86631338981E+02  0.15435557779E+03  0.12509000000E+03 0.  0.
<mgrwt>
<rscale>  2 0.45456442E+03</rscale>
<asrwt>0</asrwt>
<pdfrwt beam="1">  1       21 0.33378421E-01 0.45456442E+03</pdfrwt>
<pdfrwt beam="2">  1       21 0.33469350E-01 0.45456442E+03</pdfrwt>
<totfact> 0.68816539E+04</totfact>
</mgrwt>
</event>
<event>
 7    0  0.4712189E-002  0.4576937E+03  0.7546771E-02  0.1025452E+00
         21   -1    0    0  502  501  0.00000000000E+00  0.00000000000E+00  0.69084440078E+03  0.69084440078E+03  0.00000000000E+00 0. -1.
         21   -1    0    0  501  502 -0.00000000000E+00 -0.00000000000E+00 -0.75807055907E+02  0.75807055907E+02  0.00000000000E+00 0. -1.
      99926    2    1    2    0    0  0.00000000000E+00  0.00000000000E+00  0.61503734487E+03  0.76665145669E+03  0.45769369720E+03 0.  0.
      99925    2    3    3    0    0  0.38680371366E+02  0.10480854092E+03  0.33666788447E+03  0.44166212461E+03  0.26313336258E+03 0.  0.
         25    1    3    3    0    0 -0.38680371366E+02 -0.10480854092E+03  0.27836946041E+03  0.32498933208E+03  0.12509000000E+03 0.  0.
         25    1    4    4    0    0 -0.87743977676E+01  0.70006181490E+02  0.13459882516E+03  0.19683040247E+03  0.12509000000E+03 0.  0.
         25    1    4    4    0    0  0.47454769134E+02  0.34802359425E+02  0.20206905931E+03  0.24483172214E+03  0.12509000000E+03 0.  0.
<mgrwt>
<rscale>  2 0.45769370E+03</rscale>
<asrwt>0</asrwt>
<pdfrwt beam="1">  1       21 0.10159476E+00 0.45769370E+03</pdfrwt>
<pdfrwt beam="2">  1       21 0.11148097E-01 0.45769370E+03</pdfrwt>
<totfact> 0.48388589E+04</totfact>
</mgrwt>
</event>
<event>
 7    0  0.4712189E-002  0.4373041E+03  0.7546771E-02  0.1031577E+00
         21   -1    0    0  502  501  0.00000000000E+00  0.00000000000E+00  0.49964743261E+02  0.49964743261E+02  0.00000000000E+00 0.  1.
         21   -1    0    0  501  502 -0.00000000000E+00 -0.00000000000E+00 -0.95684898409E+03  0.95684898409E+03  0.00000000000E+00 0.  1.
      99926    2    1    2    0    0 -0.71054273576E-14 -0.88817841970E-15 -0.90688424083E+03  0.10068137274E+04  0.43730407650E+03 0.  0.
      99925    2    3    3    0    0 -0.56484625350E+02 -0.52149724997E+01 -0.40323374410E+03  0.48477058757E+03  0.26303490520E+03 0.  0.
         25    1    4    4    0    0 -0.48355452109E+02  0.36757145599E+01 -0.27074246693E+03  0.30216014318E+03  0.12509000000E+03 0.  0.
         25    1    4    4    0    0 -0.81291732404E+01 -0.88906870596E+01 -0.13249127717E+03  0.18261044439E+03  0.12509000000E+03 0.  0.
         25    1    3    3    0    0  0.56484625350E+02  0.52149724997E+01 -0.50365049673E+03  0.52204313979E+03  0.12509000000E+03 0.  0.
<mgrwt>
<rscale>  2 0.43730408E+03</rscale>
<asrwt>0</asrwt>
<pdfrwt beam="1">  1       21 0.73477562E-02 0.43730408E+03</pdfrwt>
<pdfrwt beam="2">  1       21 0.14071309E+00 0.43730408E+03</pdfrwt>
<totfact> 0.44777841E+04</totfact>
</mgrwt>
</event>
<event>
 7    0  0.4712189E-002  0.4607437E+03  0.7546771E-02  0.1024566E+00
         21   -1    0    0  502  501  0.00000000000E+00  0.00000000000E+00  0.12304143416E+03  0.12304143416E+03  0.00000000000E+00 0. -1.
         21   -1    0    0  501  502 -0.00000000000E+00 -0.00000000000E+00 -0.43132780326E+03  0.43132780326E+03  0.00000000000E+00 0. -1.
      99926    2    1    2    0    0  0.00000000000E+00  0.00000000000E+00 -0.30828636910E+03  0.55436923742E+03  0.46074370970E+03 0.  0.
      99925    2    3    3    0    0 -0.55603110445E+02  0.54875939441E+02 -0.85912570027E+02  0.28753466463E+03  0.26304398692E+03 0.  0.
         25    1    3    3    0    0  0.55603110445E+02 -0.54875939441E+02 -0.22237379907E+03  0.26683457279E+03  0.12509000000E+03 0.  0.
         25    1    4    4    0    0 -0.14115751902E+01  0.32620105868E+02 -0.93800300022E+01  0.12962081976E+03  0.12509000000E+03 0.  0.
         25    1    4    4    0    0 -0.54191535255E+02  0.22255833572E+02 -0.76532540025E+02  0.15791384488E+03  0.12509000000E+03 0.  0.
<mgrwt>
<rscale>  2 0.46074371E+03</rscale>
<asrwt>0</asrwt>
<pdfrwt beam="1">  1       21 0.18094329E-01 0.46074371E+03</pdfrwt>
<pdfrwt beam="2">  1       21 0.63430558E-01 0.46074371E+03</pdfrwt>
<totfact> 0.58858289E+04</totfact>
</mgrwt>
</event>
<event>
 7    0  0.4712189E-002  0.4345781E+03  0.7546771E-02  0.1032423E+00
         21   -1    0    0  502  501  0.00000000000E+00  0.00000000000E+00  0.34291295051E+03  0.34291295051E+03  0.00000000000E+00 0.  1.
         21   -1    0    0  501  502 -0.00000000000E+00 -0.00000000000E+00 -0.13768661280E+03  0.13768661280E+03  0.00000000000E+00 0.  1.
      99926    2    1    2    0    0  0.00000000000E+00  0.71054273576E-14  0.20522633771E+03  0.48059956331E+03  0.43457806038E+03 0.  0.
      99925    2    3    3    0    0 -0.58224102408E+02  0.43301795982E+02  0.67085330361E+02  0.28061071950E+03  0.26263442789E+03 0.  0.
         25    1    4    4    0    0 -0.15571265721E+02  0.56661240100E+02  0.48572419512E+02  0.14649146215E+03  0.12509000000E+03 0.  0.
         25    1    3    3    0    0  0.58224102408E+02 -0.43301795982E+02  0.13814100735E+03  0.19998884381E+03  0.12509000000E+03 0.  0.
         25    1    4    4    0    0 -0.42652836687E+02 -0.13359444117E+02  0.18512910849E+02  0.13411925735E+03  0.12509000000E+03 0.  0.
<mgrwt>
<rscale>  2 0.43457806E+03</rscale>
<asrwt>0</asrwt>
<pdfrwt beam="1">  1       21 0.50428375E-01 0.43457806E+03</pdfrwt>
<pdfrwt beam="2">  1       21 0.20248031E-01 0.43457806E+03</pdfrwt>
<totfact> 0.78655200E+04</totfact>
</mgrwt>
</event>
<event>
 7    0  0.4712189E-002  0.4573254E+03  0.7546771E-02  0.1025560E+00
         21   -1    0    0  502  501  0.00000000000E+00  0.00000000000E+00  0.64924130283E+03  0.64924130283E+03  0.00000000000E+00 0.  1.
         21   -1    0    0  501  502 -0.00000000000E+00 -0.00000000000E+00 -0.80534984673E+02  0.80534984673E+02  0.00000000000E+00 0.  1.
      99926    2    1    2    0    0 -0.22204460493E-15  0.17763568394E-14  0.56870631816E+03  0.72977628750E+03  0.45732543499E+03 0.  0.
      99925    2    3    3    0    0 -0.19357031823E+01  0.14327151387E+02  0.53977104083E+03  0.60057190450E+03  0.26291599750E+03 0.  0.
         25    1    4    4    0    0 -0.29849316264E-02  0.45561681704E+02  0.24506213036E+03  0.27888854886E+03  0.12509000000E+03 0.  0.
         25    1    4    4    0    0 -0.19327182506E+01 -0.31234530317E+02  0.29470891047E+03  0.32168335563E+03  0.12509000000E+03 0.  0.
         25    1    3    3    0    0  0.19357031823E+01 -0.14327151387E+02  0.28935277327E+02  0.12920438300E+03  0.12509000000E+03 0.  0.
<mgrwt>
<rscale>  2 0.45732543E+03</rscale>
<asrwt>0</asrwt>
<pdfrwt beam="1">  1       21 0.95476660E-01 0.45732543E+03</pdfrwt>
<pdfrwt beam="2">  1       21 0.11843380E-01 0.45732543E+03</pdfrwt>
<totfact> 0.50388219E+04</totfact>
</mgrwt>
</event>
<event>
 7    0  0.4712189E-002  0.4527049E+03  0.7546771E-02  0.1026918E+00
         21   -1    0    0  502  501  0.00000000000E+00  0.00000000000E+00  0.29120318142E+03  0.29120318142E+03  0.00000000000E+00 0. -1.
         21   -1    0    0  501  502 -0.00000000000E+00 -0.00000000000E+00 -0.17594390690E+03  0.17594390690E+03  0.00000000000E+00 0. -1.
      99926    2    1    2    0    0  0.00000000000E+00 -0.36082248300E-14  0.11525927453E+03  0.46714708832E+03  0.45270487269E+03 0.  0.
      99925    2    3    3    0    0 -0.98029184460E+02 -0.24741687466E+00  0.12658036800E+03  0.30781894429E+03  0.26290707613E+03 0.  0.
         25    1    4    4    0    0 -0.37747230682E+02 -0.39114562048E+02  0.62313931455E+02  0.14995111384E+03  0.12509000000E+03 0.  0.
         25    1    4    4    0    0 -0.60281953778E+02  0.38867145174E+02  0.64266436549E+02  0.15786783045E+03  0.12509000000E+03 0.  0.
         25    1    3    3    0    0  0.98029184460E+02  0.24741687466E+00 -0.11321093478E+02  0.15932814403E+03  0.12509000000E+03 0.  0.
<mgrwt>
<rscale>  2 0.45270487E+03</rscale>
<asrwt>0</asrwt>
<pdfrwt beam="1">  1       21 0.42823998E-01 0.45270487E+03</pdfrwt>
<pdfrwt beam="2">  1       21 0.25874104E-01 0.45270487E+03</pdfrwt>
<totfact> 0.68894333E+04</totfact>
</mgrwt>
</event>
<event>
 7    0  0.4712189E-002  0.4458002E+03  0.7546771E-02  0.1028982E+00
         21   -1    0    0  502  501  0.00000000000E+00  0.00000000000E+00  0.35969685973E+02  0.35969685973E+02  0.00000000000E+00 0.  1.
         21   -1    0    0  501  502 -0.00000000000E+00 -0.00000000000E+00 -0.13812870346E+04  0.13812870346E+04  0.00000000000E+00 0.  1.
      99926    2    1    2    0    0  0.00000000000E+00  0.00000000000E+00 -0.13453173486E+04  0.14172567206E+04  0.44580022823E+03 0.  0.
      99925    2    3    3    0    0 -0.49586117697E+02  0.57637796671E+02 -0.10808541175E+04  0.11149833222E+04  0.26298533550E+03 0.  0.
         25    1    3    3    0    0  0.49586117697E+02 -0.57637796671E+02 -0.26446323112E+03  0.30227339841E+03  0.12509000000E+03 0.  0.
         25    1    4    4    0    0 -0.80451903763E+01  0.57178216807E+02 -0.64898182677E+03  0.66344479284E+03  0.12509000000E+03 0.  0.
         25    1    4    4    0    0 -0.41540927321E+02  0.45957986400E+00 -0.43187229076E+03  0.45153852934E+03  0.12509000000E+03 0.  0.
<mgrwt>
<rscale>  2 0.44580023E+03</rscale>
<asrwt>0</asrwt>
<pdfrwt beam="1">  1       21 0.52896593E-02 0.44580023E+03</pdfrwt>
<pdfrwt beam="2">  1       21 0.20313046E+00 0.44580023E+03</pdfrwt>
<totfact> 0.27811464E+04</totfact>
</mgrwt>
</event>
<event>
 7    0  0.4712189E-002  0.4574836E+03  0.7546771E-02  0.1025514E+00
         21   -1    0    0  502  501  0.00000000000E+00  0.00000000000E+00  0.14079030647E+04  0.14079030647E+04  0.00000000000E+00 0. -1.
         21   -1    0    0  501  502 -0.00000000000E+00 -0.00000000000E+00 -0.37163645912E+02  0.37163645912E+02  0.00000000000E+00 0. -1.
      99926    2    1    2    0    0 -0.14210854715E-13  0.00000000000E+00  0.13707394188E+04  0.14450667106E+04  0.45748359960E+03 0.  0.
      99925    2    3    3    0    0 -0.11345497485E+03 -0.47971070198E+01  0.78992890055E+03  0.84018373867E+03  0.26272800239E+03 0.  0.
         25    1    4    4    0    0 -0.88608907327E+02  0.13097965869E+02  0.49513368665E+03  0.51848623022E+03  0.12509000000E+03 0.  0.
         25    1    3    3    0    0  0.11345497485E+03  0.47971070198E+01  0.58081051826E+03  0.60488297197E+03  0.12509000000E+03 0.  0.
         25    1    4    4    0    0 -0.24846067523E+02 -0.17895072889E+02  0.29479521390E+03  0.32169750845E+03  0.12509000000E+03 0.  0.
<mgrwt>
<rscale>  2 0.45748360E+03</rscale>
<asrwt>0</asrwt>
<pdfrwt beam="1">  1       21 0.20704453E+00 0.45748360E+03</pdfrwt>
<pdfrwt beam="2">  1       21 0.54652430E-02 0.45748360E+03</pdfrwt>
<totfact> 0.24675809E+04</totfact>
</mgrwt>
</event>
<event>
 7    0  0.4712189E-002  0.4752698E+03  0.7546771E-02  0.1020443E+00
         21   -1    0    0  502  501  0.00000000000E+00  0.00000000000E+00  0.55709369942E+02  0.55709369942E+02  0.00000000000E+00 0. -1.
         21   -1    0    0  501  502 -0.00000000000E+00 -0.00000000000E+00 -0.10136597509E+04  0.10136597509E+04  0.00000000000E+00 0. -1.
      99926    2    1    2    0    0  0.00000000000E+00  0.71054273576E-14 -0.95795038099E+03  0.10693691209E+04  0.47526980152E+03 0.  0.
      99925    2    3    3    0    0  0.12205730385E+03 -0.44034745219E+02 -0.63734777929E+03  0.70157763032E+03  0.26298656883E+03 0.  0.
         25    1    3    3    0    0 -0.12205730385E+03  0.44034745219E+02 -0.32060260170E+03  0.36779149056E+03  0.12509000000E+03 0.  0.
         25    1    4    4    0    0  0.31888521605E+02 -0.68341284412E+01 -0.35378381013E+03  0.37666175215E+03  0.12509000000E+03 0.  0.
         25    1    4    4    0    0  0.90168782243E+02 -0.37200616778E+02 -0.28356396916E+03  0.32491587816E+03  0.12509000000E+03 0.  0.
<mgrwt>
<rscale>  2 0.47526980E+03</rscale>
<asrwt>0</asrwt>
<pdfrwt beam="1">  1       21 0.81925552E-02 0.47526980E+03</pdfrwt>
<pdfrwt beam="2">  1       21 0.14906760E+00 0.47526980E+03</pdfrwt>
<totfact> 0.31319238E+04</totfact>
</mgrwt>
</event>
<event>
 7    0  0.4712189E-002  0.4505022E+03  0.7546771E-02  0.1027572E+00
         21   -1    0    0  502  501  0.00000000000E+00  0.00000000000E+00  0.16246900716E+03  0.16246900716E+03  0.00000000000E+00 0.  1.
         21   -1    0    0  501  502 -0.00000000000E+00 -0.00000000000E+00 -0.31229370583E+03  0.31229370583E+03  0.00000000000E+00 0.  1.
      99926    2    1    2    0    0  0.00000000000E+00  0.00000000000E+00 -0.14982469867E+03  0.47476271299E+03  0.45050215684E+03 0.  0.
      99925    2    3    3    0    0 -0.10051280640E+03  0.32360926798E+02 -0.66632877237E+02  0.29113689486E+03  0.26300322695E+03 0.  0.
         25    1    3    3    0    0  0.10051280640E+03 -0.32360926798E+02 -0.83191821434E+02  0.18362581814E+03  0.12509000000E+03 0.  0.
         25    1    4    4    0    0 -0.60886683680E+02  0.31130488043E+02 -0.72189516633E+02  0.15979715250E+03  0.12509000000E+03 0.  0.
         25    1    4    4    0    0 -0.39626122717E+02  0.12304387555E+01  0.55566393958E+01  0.13133974236E+03  0.12509000000E+03 0.  0.
<mgrwt>
<rscale>  2 0.45050216E+03</rscale>
<asrwt>0</asrwt>
<pdfrwt beam="1">  1       21 0.23892501E-01 0.45050216E+03</pdfrwt>
<pdfrwt beam="2">  1       21 0.45925544E-01 0.45050216E+03</pdfrwt>
<totfact> 0.69532565E+04</totfact>
</mgrwt>
</event>
<event>
 7    0  0.4712189E-002  0.4534701E+03  0.7546771E-02  0.1026692E+00
         21   -1    0    0  502  501  0.00000000000E+00  0.00000000000E+00  0.50008530479E+02  0.50008530479E+02  0.00000000000E+00 0. -1.
         21   -1    0    0  501  502 -0.00000000000E+00 -0.00000000000E+00 -0.10280000515E+04  0.10280000515E+04  0.00000000000E+00 0. -1.
      99926    2    1    2    0    0  0.00000000000E+00 -0.14210854715E-13 -0.97799152104E+03  0.10780085820E+04  0.45347005153E+03 0.  0.
      99925    2    3    3    0    0  0.19180391854E+02 -0.73489723289E+02 -0.42136676258E+03  0.50246774357E+03  0.26297387297E+03 0.  0.
         25    1    4    4    0    0  0.82155605216E+01 -0.78706989746E+02 -0.23124329104E+03  0.27456010894E+03  0.12509000000E+03 0.  0.
         25    1    3    3    0    0 -0.19180391854E+02  0.73489723289E+02 -0.55662475846E+03  0.57554083842E+03  0.12509000000E+03 0.  0.
         25    1    4    4    0    0  0.10964831332E+02  0.52172664572E+01 -0.19012347154E+03  0.22790763463E+03  0.12509000000E+03 0.  0.
<mgrwt>
<rscale>  2 0.45347005E+03</rscale>
<asrwt>0</asrwt>
<pdfrwt beam="1">  1       21 0.73541958E-02 0.45347005E+03</pdfrwt>
<pdfrwt beam="2">  1       21 0.15117648E+00 0.45347005E+03</pdfrwt>
<totfact> 0.36702357E+04</totfact>
</mgrwt>
</event>
<event>
 7    0  0.4712189E-002  0.4580464E+03  0.7546771E-02  0.1025349E+00
         21   -1    0    0  502  501  0.00000000000E+00  0.00000000000E+00  0.17813959862E+03  0.17813959862E+03  0.00000000000E+00 0. -1.
         21   -1    0    0  501  502 -0.00000000000E+00 -0.00000000000E+00 -0.29444108769E+03  0.29444108769E+03  0.00000000000E+00 0. -1.
      99926    2    1    2    0    0  0.00000000000E+00  0.14210854715E-13 -0.11630148906E+03  0.47258068631E+03  0.45804636088E+03 0.  0.
      99925    2    3    3    0    0  0.40691302395E+02 -0.10385627165E+03 -0.39838311168E+02  0.28836333391E+03  0.26291522218E+03 0.  0.
         25    1    4    4    0    0  0.20116638370E+02 -0.13542438818E+02  0.10788758772E+01  0.12742350200E+03  0.12509000000E+03 0.  0.
         25    1    4    4    0    0  0.20574664025E+02 -0.90313832831E+02 -0.40917187046E+02  0.16093983191E+03  0.12509000000E+03 0.  0.
         25    1    3    3    0    0 -0.40691302395E+02  0.10385627165E+03 -0.76463177895E+02  0.18421735240E+03  0.12509000000E+03 0.  0.
<mgrwt>
<rscale>  2 0.45804636E+03</rscale>
<asrwt>0</asrwt>
<pdfrwt beam="1">  1       21 0.26197000E-01 0.45804636E+03</pdfrwt>
<pdfrwt beam="2">  1       21 0.43300159E-01 0.45804636E+03</pdfrwt>
<totfact> 0.65643441E+04</totfact>
</mgrwt>
</event>
<event>
 7    0  0.4712189E-002  0.4553703E+03  0.7546771E-02  0.1026133E+00
         21   -1    0    0  502  501  0.00000000000E+00  0.00000000000E+00  0.17579004720E+03  0.17579004720E+03  0.00000000000E+00 0. -1.
         21   -1    0    0  501  502 -0.00000000000E+00 -0.00000000000E+00 -0.29490023807E+03  0.29490023807E+03  0.00000000000E+00 0. -1.
      99926    2    1    2    0    0 -0.17763568394E-14  0.00000000000E+00 -0.11911019086E+03  0.47069028527E+03  0.45537029666E+03 0.  0.
      99925    2    3    3    0    0 -0.14567744675E+02  0.77808731351E+02  0.91170049541E+01  0.27484304963E+03  0.26303833236E+03 0.  0.
         25    1    4    4    0    0  0.20520472478E+02  0.35727646798E+02 -0.25070402422E+02  0.13406560974E+03  0.12509000000E+03 0.  0.
         25    1    3    3    0    0  0.14567744675E+02 -0.77808731351E+02 -0.12822719582E+03  0.19584723564E+03  0.12509000000E+03 0.  0.
         25    1    4    4    0    0 -0.35088217153E+02  0.42081084553E+02  0.34187407376E+02  0.14077743989E+03  0.12509000000E+03 0.  0.
<mgrwt>
<rscale>  2 0.45537030E+03</rscale>
<asrwt>0</asrwt>
<pdfrwt beam="1">  1       21 0.25851478E-01 0.45537030E+03</pdfrwt>
<pdfrwt beam="2">  1       21 0.43367682E-01 0.45537030E+03</pdfrwt>
<totfact> 0.67186818E+04</totfact>
</mgrwt>
</event>
<event>
 7    0  0.4712189E-002  0.4425907E+03  0.7546771E-02  0.1029955E+00
         21   -1    0    0  502  501  0.00000000000E+00  0.00000000000E+00  0.19434761749E+03  0.19434761749E+03  0.00000000000E+00 0.  1.
         21   -1    0    0  501  502 -0.00000000000E+00 -0.00000000000E+00 -0.25197959402E+03  0.25197959402E+03  0.00000000000E+00 0.  1.
      99926    2    1    2    0    0  0.00000000000E+00  0.35527136788E-14 -0.57631976533E+02  0.44632721151E+03  0.44259070824E+03 0.  0.
      99925    2    3    3    0    0 -0.69699741185E+02  0.28367832548E+02 -0.10480108724E+03  0.29291527929E+03  0.26297016011E+03 0.  0.
         25    1    4    4    0    0 -0.72681400620E+02  0.89776157962E+01 -0.73330086813E+02  0.16244381587E+03  0.12509000000E+03 0.  0.
         25    1    4    4    0    0  0.29816594344E+01  0.19390216752E+02 -0.31471000429E+02  0.13047146342E+03  0.12509000000E+03 0.  0.
         25    1    3    3    0    0  0.69699741185E+02 -0.28367832548E+02  0.47169110710E+02  0.15341193223E+03  0.12509000000E+03 0.  0.
<mgrwt>
<rscale>  2 0.44259071E+03</rscale>
<asrwt>0</asrwt>
<pdfrwt beam="1">  1       21 0.28580532E-01 0.44259071E+03</pdfrwt>
<pdfrwt beam="2">  1       21 0.37055822E-01 0.44259071E+03</pdfrwt>
<totfact> 0.76481846E+04</totfact>
</mgrwt>
</event>
<event>
 7    0  0.4712189E-002  0.4504568E+03  0.7546771E-02  0.1027586E+00
         21   -1    0    0  502  501  0.00000000000E+00  0.00000000000E+00  0.16039651245E+04  0.16039651245E+04  0.00000000000E+00 0.  1.
         21   -1    0    0  501  502 -0.00000000000E+00 -0.00000000000E+00 -0.31626513473E+02  0.31626513473E+02  0.00000000000E+00 0.  1.
      99926    2    1    2    0    0 -0.14210854715E-13  0.00000000000E+00  0.15723386110E+04  0.16355916379E+04  0.45045676649E+03 0.  0.
      99925    2    3    3    0    0 -0.64053293868E+02 -0.15766165922E+02  0.67889622060E+03  0.73102643327E+03  0.26296039883E+03 0.  0.
         25    1    4    4    0    0 -0.95043638810E+01 -0.40692247203E+02  0.35305280339E+03  0.37688192050E+03  0.12509000000E+03 0.  0.
         25    1    4    4    0    0 -0.54548929987E+02  0.24926081281E+02  0.32584341721E+03  0.35414451277E+03  0.12509000000E+03 0.  0.
         25    1    3    3    0    0  0.64053293868E+02  0.15766165922E+02  0.89344239039E+03  0.90456520466E+03  0.12509000000E+03 0.  0.
<mgrwt>
<rscale>  2 0.45045677E+03</rscale>
<asrwt>0</asrwt>
<pdfrwt beam="1">  1       21 0.23587717E+00 0.45045677E+03</pdfrwt>
<pdfrwt beam="2">  1       21 0.46509589E-02 0.45045677E+03</pdfrwt>
<totfact> 0.21381695E+04</totfact>
</mgrwt>
</event>
<event>
 7    0  0.4712189E-002  0.4475228E+03  0.7546771E-02  0.1028463E+00
         21   -1    0    0  502  501  0.00000000000E+00  0.00000000000E+00  0.77828330344E+03  0.77828330344E+03  0.00000000000E+00 0.  1.
         21   -1    0    0  501  502 -0.00000000000E+00 -0.00000000000E+00 -0.64332811414E+02  0.64332811414E+02  0.00000000000E+00 0.  1.
      99926    2    1    2    0    0 -0.44408920985E-15  0.14210854715E-13  0.71395049202E+03  0.84261611485E+03  0.44752275020E+03 0.  0.
      99925    2    3    3    0    0 -0.36801269927E+01  0.10523959568E+03  0.47492284063E+03  0.55301182955E+03  0.26302369330E+03 0.  0.
         25    1    4    4    0    0 -0.50290295899E+01  0.90595069183E+01  0.20882272630E+03  0.24364278139E+03  0.12509000000E+03 0.  0.
         25    1    4    4    0    0  0.13489025973E+01  0.96180088763E+02  0.26610011433E+03  0.30936904816E+03  0.12509000000E+03 0.  0.
         25    1    3    3    0    0  0.36801269927E+01 -0.10523959568E+03  0.23902765140E+03  0.28960428530E+03  0.12509000000E+03 0.  0.
<mgrwt>
<rscale>  2 0.44752275E+03</rscale>
<asrwt>0</asrwt>
<pdfrwt beam="1">  1       21 0.11445342E+00 0.44752275E+03</pdfrwt>
<pdfrwt beam="2">  1       21 0.94607080E-02 0.44752275E+03</pdfrwt>
<totfact> 0.48557837E+04</totfact>
</mgrwt>
</event>
<event>
 7    0  0.4712189E-002  0.4568016E+03  0.7546771E-02  0.1025713E+00
         21   -1    0    0  502  501  0.00000000000E+00  0.00000000000E+00  0.28781694684E+02  0.28781694684E+02  0.00000000000E+00 0. -1.
         21   -1    0    0  501  502 -0.00000000000E+00 -0.00000000000E+00 -0.18125036939E+04  0.18125036939E+04  0.00000000000E+00 0. -1.
      99926    2    1    2    0    0  0.00000000000E+00  0.35527136788E-14 -0.17837219992E+04  0.18412853885E+04  0.45680161090E+03 0.  0.
      99925    2    3    3    0    0 -0.11033774822E+03  0.21585949993E+02 -0.12169814360E+04  0.12501147313E+04  0.26287383659E+03 0.  0.
         25    1    4    4    0    0 -0.55954481282E+02  0.42851585147E+02 -0.51234040096E+03  0.53207833717E+03  0.12509000000E+03 0.  0.
         25    1    3    3    0    0  0.11033774822E+03 -0.21585949993E+02 -0.56674056321E+03  0.59117065726E+03  0.12509000000E+03 0.  0.
         25    1    4    4    0    0 -0.54383266941E+02 -0.21265635154E+02 -0.70464103500E+03  0.71803639412E+03  0.12509000000E+03 0.  0.
<mgrwt>
<rscale>  2 0.45680161E+03</rscale>
<asrwt>0</asrwt>
<pdfrwt beam="1">  1       21 0.42326029E-02 0.45680161E+03</pdfrwt>
<pdfrwt beam="2">  1       21 0.26654461E+00 0.45680161E+03</pdfrwt>
<totfact> 0.16250718E+04</totfact>
</mgrwt>
</event>
<event>
 7    0  0.4712189E-002  0.4557443E+03  0.7546771E-02  0.1026023E+00
         21   -1    0    0  502  501  0.00000000000E+00  0.00000000000E+00  0.24621716523E+03  0.24621716523E+03  0.00000000000E+00 0.  1.
         21   -1    0    0  501  502 -0.00000000000E+00 -0.00000000000E+00 -0.21089399836E+03  0.21089399836E+03  0.00000000000E+00 0.  1.
      99926    2    1    2    0    0  0.16098233857E-14  0.00000000000E+00  0.35323166871E+02  0.45711116360E+03  0.45574432500E+03 0.  0.
      99925    2    3    3    0    0 -0.46656372230E+00 -0.96355083789E+02  0.83244822434E+02  0.29210051841E+03  0.26288494163E+03 0.  0.
         25    1    4    4    0    0 -0.25652740673E+02 -0.38724046908E+02  0.92933077111E+01  0.13375906915E+03  0.12509000000E+03 0.  0.
         25    1    3    3    0    0  0.46656372230E+00  0.96355083789E+02 -0.47921655563E+02  0.16501064519E+03  0.12509000000E+03 0.  0.
         25    1    4    4    0    0  0.25186176951E+02 -0.57631036881E+02  0.73951514723E+02  0.15834144925E+03  0.12509000000E+03 0.  0.
<mgrwt>
<rscale>  2 0.45574432E+03</rscale>
<asrwt>0</asrwt>
<pdfrwt beam="1">  1       21 0.36208407E-01 0.45574432E+03</pdfrwt>
<pdfrwt beam="2">  1       21 0.31013823E-01 0.45574432E+03</pdfrwt>
<totfact> 0.67986785E+04</totfact>
</mgrwt>
</event>
<event>
 7    0  0.4712189E-002  0.4320855E+03  0.7546771E-02  0.1033203E+00
         21   -1    0    0  502  501  0.00000000000E+00  0.00000000000E+00  0.47836626660E+03  0.47836626660E+03  0.00000000000E+00 0. -1.
         21   -1    0    0  501  502 -0.00000000000E+00 -0.00000000000E+00 -0.97570581083E+02  0.97570581083E+02  0.00000000000E+00 0. -1.
      99926    2    1    2    0    0  0.00000000000E+00  0.17763568394E-14  0.38079568552E+03  0.57593684768E+03  0.43208552210E+03 0.  0.
      99925    2    3    3    0    0 -0.22170965949E+02  0.14286298196E+02  0.12963929042E+03  0.29411652736E+03  0.26268333788E+03 0.  0.
         25    1    4    4    0    0 -0.32240823784E+02  0.72726343977E+01  0.27772548363E+02  0.13232983213E+03  0.12509000000E+03 0.  0.
         25    1    4    4    0    0  0.10069857835E+02  0.70136637980E+01  0.10186674205E+03  0.16178669523E+03  0.12509000000E+03 0.  0.
         25    1    3    3    0    0  0.22170965949E+02 -0.14286298196E+02  0.25115639510E+03  0.28182032032E+03  0.12509000000E+03 0.  0.
<mgrwt>
<rscale>  2 0.43208552E+03</rscale>
<asrwt>0</asrwt>
<pdfrwt beam="1">  1       21 0.70347979E-01 0.43208552E+03</pdfrwt>
<pdfrwt beam="2">  1       21 0.14348615E-01 0.43208552E+03</pdfrwt>
<totfact> 0.72443238E+04</totfact>
</mgrwt>
</event>
<event>
 7    0  0.4712189E-002  0.4580777E+03  0.7546771E-02  0.1025340E+00
         21   -1    0    0  502  501  0.00000000000E+00  0.00000000000E+00  0.24366147784E+03  0.24366147784E+03  0.00000000000E+00 0.  1.
         21   -1    0    0  501  502 -0.00000000000E+00 -0.00000000000E+00 -0.21529377503E+03  0.21529377503E+03  0.00000000000E+00 0.  1.
      99926    2    1    2    0    0 -0.11102230246E-15  0.17763568394E-14  0.28367702812E+02  0.45895525287E+03  0.45807772001E+03 0.  0.
      99925    2    3    3    0    0  0.97343276217E+00 -0.81441396392E+01  0.13372413599E+03  0.29520312099E+03  0.26305030606E+03 0.  0.
         25    1    4    4    0    0  0.73264219427E+01 -0.35005675627E+02  0.38793464489E+02  0.13576271495E+03  0.12509000000E+03 0.  0.
         25    1    3    3    0    0 -0.97343276217E+00  0.81441396392E+01 -0.10535643317E+03  0.16375213187E+03  0.12509000000E+03 0.  0.
         25    1    4    4    0    0 -0.63529891805E+01  0.26861535988E+02  0.94930671497E+02  0.15944040604E+03  0.12509000000E+03 0.  0.
<mgrwt>
<rscale>  2 0.45807772E+03</rscale>
<asrwt>0</asrwt>
<pdfrwt beam="1">  1       21 0.35832570E-01 0.45807772E+03</pdfrwt>
<pdfrwt beam="2">  1       21 0.31660849E-01 0.45807772E+03</pdfrwt>
<totfact> 0.66606326E+04</totfact>
</mgrwt>
</event>
<event>
 7    0  0.4712189E-002  0.4576598E+03  0.7546771E-02  0.1025462E+00
         21   -1    0    0  502  501  0.00000000000E+00  0.00000000000E+00  0.12415155931E+03  0.12415155931E+03  0.00000000000E+00 0. -1.
         21   -1    0    0  501  502 -0.00000000000E+00 -0.00000000000E+00 -0.42176775810E+03  0.42176775810E+03  0.00000000000E+00 0. -1.
      99926    2    1    2    0    0 -0.35527136788E-14  0.14210854715E-13 -0.29761619879E+03  0.54591931742E+03  0.45765980744E+03 0.  0.
      99925    2    3    3    0    0 -0.27897120402E+01 -0.11441957867E+03 -0.16552219847E+03  0.33098687339E+03  0.26278335125E+03 0.  0.
         25    1    3    3    0    0  0.27897120402E+01  0.11441957867E+03 -0.13209400032E+03  0.21493244403E+03  0.12509000000E+03 0.  0.
         25    1    4    4    0    0 -0.33139488641E+02 -0.74334154789E+02 -0.64784655007E+02  0.16269097055E+03  0.12509000000E+03 0.  0.
         25    1    4    4    0    0  0.30349776601E+02 -0.40085423877E+02 -0.10073754347E+03  0.16829590283E+03  0.12509000000E+03 0.  0.
<mgrwt>
<rscale>  2 0.45765981E+03</rscale>
<asrwt>0</asrwt>
<pdfrwt beam="1">  1       21 0.18257582E-01 0.45765981E+03</pdfrwt>
<pdfrwt beam="2">  1       21 0.62024671E-01 0.45765981E+03</pdfrwt>
<totfact> 0.60846229E+04</totfact>
</mgrwt>
</event>
<event>
 7    0  0.4712189E-002  0.4550856E+03  0.7546771E-02  0.1026216E+00
         21   -1    0    0  502  501  0.00000000000E+00  0.00000000000E+00  0.50624460238E+03  0.50624460238E+03  0.00000000000E+00 0. -1.
         21   -1    0    0  501  502 -0.00000000000E+00 -0.00000000000E+00 -0.10227411820E+03  0.10227411820E+03  0.00000000000E+00 0. -1.
      99926    2    1    2    0    0  0.00000000000E+00  0.00000000000E+00  0.40397048418E+03  0.60851872057E+03  0.45508557569E+03 0.  0.
      99925    2    3    3    0    0  0.69898813644E+02 -0.43246645705E+02  0.35845459802E+03  0.45207281776E+03  0.26291446746E+03 0.  0.
         25    1    4    4    0    0  0.72979211571E+02 -0.38582580500E+02  0.18350483379E+03  0.23693060791E+03  0.12509000000E+03 0.  0.
         25    1    3    3    0    0 -0.69898813644E+02  0.43246645705E+02  0.45515886157E+02  0.15644590281E+03  0.12509000000E+03 0.  0.
         25    1    4    4    0    0 -0.30803979267E+01 -0.46640652051E+01  0.17494976424E+03  0.21514220986E+03  0.12509000000E+03 0.  0.
<mgrwt>
<rscale>  2 0.45508558E+03</rscale>
<asrwt>0</asrwt>
<pdfrwt beam="1">  1       21 0.74447734E-01 0.45508558E+03</pdfrwt>
<pdfrwt beam="2">  1       21 0.15040312E-01 0.45508558E+03</pdfrwt>
<totfact> 0.58117664E+04</totfact>
</mgrwt>
</event>
<event>
 7    0  0.4712189E-002  0.4515274E+03  0.7546771E-02  0.1027268E+00
         21   -1    0    0  502  501  0.00000000000E+00  0.00000000000E+00  0.66957628909E+03  0.66957628909E+03  0.00000000000E+00 0. -1.
         21   -1    0    0  501  502 -0.00000000000E+00 -0.00000000000E+00 -0.76121656674E+02  0.76121656674E+02  0.00000000000E+00 0. -1.
      99926    2    1    2    0    0  0.00000000000E+00 -0.35527136788E-14  0.59345463241E+03  0.74569794576E+03  0.45152743613E+03 0.  0.
      99925    2    3    3    0    0  0.10836941282E+03 -0.18179998842E+02  0.37658970445E+03  0.47228919120E+03  0.26298827470E+03 0.  0.
         25    1    4    4    0    0  0.66925444032E+02  0.14822916999E+02  0.24294194310E+03  0.28172154647E+03  0.12509000000E+03 0.  0.
         25    1    4    4    0    0  0.41443968788E+02 -0.33002915840E+02  0.13364776136E+03  0.19056764473E+03  0.12509000000E+03 0.  0.
         25    1    3    3    0    0 -0.10836941282E+03  0.18179998842E+02  0.21686492796E+03  0.27340875456E+03  0.12509000000E+03 0.  0.
<mgrwt>
<rscale>  2 0.45152744E+03</rscale>
<asrwt>0</asrwt>
<pdfrwt beam="1">  1       21 0.98467098E-01 0.45152744E+03</pdfrwt>
<pdfrwt beam="2">  1       21 0.11194362E-01 0.45152744E+03</pdfrwt>
<totfact> 0.51893083E+04</totfact>
</mgrwt>
</event>
<event>
 7    0  0.4712189E-002  0.4522485E+03  0.7546771E-02  0.1027054E+00
         21   -1    0    0  502  501  0.00000000000E+00  0.00000000000E+00  0.77909011508E+03  0.77909011508E+03  0.00000000000E+00 0. -1.
         21   -1    0    0  501  502 -0.00000000000E+00 -0.00000000000E+00 -0.65630623071E+02  0.65630623071E+02  0.00000000000E+00 0. -1.
      99926    2    1    2    0    0  0.00000000000E+00 -0.71054273576E-14  0.71345949201E+03  0.84472073815E+03  0.45224847012E+03 0.  0.
      99925    2    3    3    0    0 -0.92057381352E+02  0.60991207630E+02  0.45487224716E+03  0.53697187923E+03  0.26312648855E+03 0.  0.
         25    1    4    4    0    0 -0.61850862054E+02  0.62217914097E+02  0.20241146812E+03  0.25360305302E+03  0.12509000000E+03 0.  0.
         25    1    3    3    0    0  0.92057381352E+02 -0.60991207630E+02  0.25858724485E+03  0.30774885892E+03  0.12509000000E+03 0.  0.
         25    1    4    4    0    0 -0.30206519297E+02 -0.12267064673E+01  0.25246077904E+03  0.28336882622E+03  0.12509000000E+03 0.  0.
<mgrwt>
<rscale>  2 0.45224847E+03</rscale>
<asrwt>0</asrwt>
<pdfrwt beam="1">  1       21 0.11457207E+00 0.45224847E+03</pdfrwt>
<pdfrwt beam="2">  1       21 0.96515627E-02 0.45224847E+03</pdfrwt>
<totfact> 0.46675870E+04</totfact>
</mgrwt>
</event>
<event>
 7    0  0.4712189E-002  0.5214226E+03  0.7546771E-02  0.1008334E+00
         21   -1    0    0  502  501  0.00000000000E+00  0.00000000000E+00  0.18311752914E+03  0.18311752914E+03  0.00000000000E+00 0.  1.
         21   -1    0    0  501  502 -0.00000000000E+00 -0.00000000000E+00 -0.37118447867E+03  0.37118447867E+03  0.00000000000E+00 0.  1.
      99926    2    1    2    0    0 -0.17763568394E-14  0.14210854715E-13 -0.18806694953E+03  0.55430200781E+03  0.52142261013E+03 0.  0.
      99925    2    3    3    0    0 -0.86216587449E+01  0.69036646697E+02  0.49949286277E+02  0.27656179071E+03  0.26296596984E+03 0.  0.
         25    1    4    4    0    0  0.26819169467E+01 -0.67810835852E+01  0.23556396707E+02  0.12749740271E+03  0.12509000000E+03 0.  0.
         25    1    3    3    0    0  0.86216587449E+01 -0.69036646697E+02 -0.23801623581E+03  0.27774021710E+03  0.12509000000E+03 0.  0.
         25    1    4    4    0    0 -0.11303575692E+02  0.75817730282E+02  0.26392889570E+02  0.14906438800E+03  0.12509000000E+03 0.  0.
<mgrwt>
<rscale>  2 0.52142261E+03</rscale>
<asrwt>0</asrwt>
<pdfrwt beam="1">  1       21 0.26929049E-01 0.52142261E+03</pdfrwt>
<pdfrwt beam="2">  1       21 0.54585952E-01 0.52142261E+03</pdfrwt>
<totfact> 0.37558601E+04</totfact>
</mgrwt>
</event>
<event>
 7    0  0.4712189E-002  0.4581309E+03  0.7546771E-02  0.1025325E+00
         21   -1    0    0  502  501  0.00000000000E+00  0.00000000000E+00  0.21871638865E+03  0.21871638865E+03  0.00000000000E+00 0. -1.
         21   -1    0    0  501  502 -0.00000000000E+00 -0.00000000000E+00 -0.23990420512E+03  0.23990420512E+03  0.00000000000E+00 0. -1.
      99926    2    1    2    0    0  0.00000000000E+00  0.00000000000E+00 -0.21187816478E+02  0.45862059377E+03  0.45813090429E+03 0.  0.
      99925    2    3    3    0    0  0.75632385356E+02 -0.23536050105E+02 -0.98294160007E+02  0.29168617646E+03  0.26295414102E+03 0.  0.
         25    1    4    4    0    0  0.17143630795E+02 -0.25604293442E+02 -0.13277472929E+02  0.12951171108E+03  0.12509000000E+03 0.  0.
         25    1    4    4    0    0  0.58488754561E+02  0.20682433366E+01 -0.85016687078E+02  0.16217446538E+03  0.12509000000E+03 0.  0.
         25    1    3    3    0    0 -0.75632385356E+02  0.23536050105E+02  0.77106343529E+02  0.16693441731E+03  0.12509000000E+03 0.  0.
<mgrwt>
<rscale>  2 0.45813090E+03</rscale>
<asrwt>0</asrwt>
<pdfrwt beam="1">  1       21 0.32164175E-01 0.45813090E+03</pdfrwt>
<pdfrwt beam="2">  1       21 0.35280030E-01 0.45813090E+03</pdfrwt>
<totfact> 0.66601980E+04</totfact>
</mgrwt>
</event>
<event>
 7    0  0.4712189E-002  0.4656016E+03  0.7546771E-02  0.1023169E+00
         21   -1    0    0  502  501  0.00000000000E+00  0.00000000000E+00  0.10560108576E+03  0.10560108576E+03  0.00000000000E+00 0. -1.
         21   -1    0    0  501  502 -0.00000000000E+00 -0.00000000000E+00 -0.51321643753E+03  0.51321643753E+03  0.00000000000E+00 0. -1.
      99926    2    1    2    0    0 -0.71054273576E-14  0.71054273576E-14 -0.40761535177E+03  0.61881752328E+03  0.46560160236E+03 0.  0.
      99925    2    3    3    0    0 -0.63765664495E+02  0.63551314248E+02 -0.14328877696E+03  0.31284223708E+03  0.26312309323E+03 0.  0.
         25    1    3    3    0    0  0.63765664495E+02 -0.63551314248E+02 -0.26432657481E+03  0.30597528620E+03  0.12509000000E+03 0.  0.
         25    1    4    4    0    0  0.74022769305E+01  0.29981304288E+02 -0.50760584045E+02  0.13848399656E+03  0.12509000000E+03 0.  0.
         25    1    4    4    0    0 -0.71167941426E+02  0.33570009960E+02 -0.92528192911E+02  0.17435824052E+03  0.12509000000E+03 0.  0.
<mgrwt>
<rscale>  2 0.46560160E+03</rscale>
<asrwt>0</asrwt>
<pdfrwt beam="1">  1       21 0.15529571E-01 0.46560160E+03</pdfrwt>
<pdfrwt beam="2">  1       21 0.75473005E-01 0.46560160E+03</pdfrwt>
<totfact> 0.52959449E+04</totfact>
</mgrwt>
</event>
<event>
 7    0  0.4712189E-002  0.4537051E+03  0.7546771E-02  0.1026623E+00
         21   -1    0    0  502  501  0.00000000000E+00  0.00000000000E+00  0.87536249639E+02  0.87536249639E+02  0.00000000000E+00 0. -1.
         21   -1    0    0  501  502 -0.00000000000E+00 -0.00000000000E+00 -0.58789455694E+03  0.58789455694E+03  0.00000000000E+00 0. -1.
      99926    2    1    2    0    0  0.00000000000E+00  0.00000000000E+00 -0.50035830730E+03  0.67543080658E+03  0.45370512317E+03 0.  0.
      99925    2    3    3    0    0  0.10331920685E+03 -0.23418269483E+02 -0.26118680765E+03  0.38547600287E+03  0.26296373600E+03 0.  0.
         25    1    4    4    0    0  0.75475010619E+02 -0.17984594346E+02 -0.18453087738E+03  0.23604888406E+03  0.12509000000E+03 0.  0.
         25    1    3    3    0    0 -0.10331920685E+03  0.23418269483E+02 -0.23917149965E+03  0.28995480371E+03  0.12509000000E+03 0.  0.
         25    1    4    4    0    0  0.27844196229E+02 -0.54336751369E+01 -0.76655930275E+02  0.14942711881E+03  0.12509000000E+03 0.  0.
<mgrwt>
<rscale>  2 0.45370512E+03</rscale>
<asrwt>0</asrwt>
<pdfrwt beam="1">  1       21 0.12872978E-01 0.45370512E+03</pdfrwt>
<pdfrwt beam="2">  1       21 0.86455078E-01 0.45370512E+03</pdfrwt>
<totfact> 0.54814812E+04</totfact>
</mgrwt>
</event>
<event>
 7    0  0.4712189E-002  0.4567132E+03  0.7546771E-02  0.1025739E+00
         21   -1    0    0  502  501  0.00000000000E+00  0.00000000000E+00  0.39794915112E+03  0.39794915112E+03  0.00000000000E+00 0.  1.
         21   -1    0    0  501  502 -0.00000000000E+00 -0.00000000000E+00 -0.13103870812E+03  0.13103870812E+03  0.00000000000E+00 0.  1.
      99926    2    1    2    0    0  0.00000000000E+00  0.00000000000E+00  0.26691044300E+03  0.52898785924E+03  0.45671322582E+03 0.  0.
      99925    2    3    3    0    0 -0.94674836144E+02  0.59780304679E+02  0.13872017727E+03  0.31775987399E+03  0.26304189877E+03 0.  0.
         25    1    4    4    0    0 -0.47311734245E+02  0.16495564096E+02  0.25254553375E+02  0.13709779137E+03  0.12509000000E+03 0.  0.
         25    1    3    3    0    0  0.94674836144E+02 -0.59780304679E+02  0.12819026573E+03  0.21122798526E+03  0.12509000000E+03 0.  0.
         25    1    4    4    0    0 -0.47363101899E+02  0.43284740584E+02  0.11346562390E+03  0.18066208262E+03  0.12509000000E+03 0.  0.
<mgrwt>
<rscale>  2 0.45671323E+03</rscale>
<asrwt>0</asrwt>
<pdfrwt beam="1">  1       21 0.58521934E-01 0.45671323E+03</pdfrwt>
<pdfrwt beam="2">  1       21 0.19270398E-01 0.45671323E+03</pdfrwt>
<totfact> 0.62423092E+04</totfact>
</mgrwt>
</event>
<event>
 7    0  0.4712189E-002  0.4597433E+03  0.7546771E-02  0.1024856E+00
         21   -1    0    0  502  501  0.00000000000E+00  0.00000000000E+00  0.44055593279E+03  0.44055593279E+03  0.00000000000E+00 0.  1.
         21   -1    0    0  501  502 -0.00000000000E+00 -0.00000000000E+00 -0.11994157048E+03  0.11994157048E+03  0.00000000000E+00 0.  1.
      99926    2    1    2    0    0  0.00000000000E+00  0.00000000000E+00  0.32061436230E+03  0.56049750327E+03  0.45974327821E+03 0.  0.
      99925    2    3    3    0    0  0.84445221098E+02 -0.81662618178E+02  0.20753708447E+03  0.35498896954E+03  0.26295579189E+03 0.  0.
         25    1    4    4    0    0  0.42968565374E+02 -0.39521437501E+02  0.15352402371E+03  0.20645913782E+03  0.12509000000E+03 0.  0.
         25    1    3    3    0    0 -0.84445221098E+02  0.81662618178E+02  0.11307727784E+03  0.20550853373E+03  0.12509000000E+03 0.  0.
         25    1    4    4    0    0  0.41476655724E+02 -0.42141180677E+02  0.54013060759E+02  0.14852983172E+03  0.12509000000E+03 0.  0.
<mgrwt>
<rscale>  2 0.45974328E+03</rscale>
<asrwt>0</asrwt>
<pdfrwt beam="1">  1       21 0.64787637E-01 0.45974328E+03</pdfrwt>
<pdfrwt beam="2">  1       21 0.17638466E-01 0.45974328E+03</pdfrwt>
<totfact> 0.58935602E+04</totfact>
</mgrwt>
</event>
<event>
 7    0  0.4712189E-002  0.4506580E+03  0.7546771E-02  0.1027526E+00
         21   -1    0    0  502  501  0.00000000000E+00  0.00000000000E+00  0.70790329407E+03  0.70790329407E+03  0.00000000000E+00 0.  1.
         21   -1    0    0  501  502 -0.00000000000E+00 -0.00000000000E+00 -0.71723310967E+02  0.71723310967E+02  0.00000000000E+00 0.  1.
      99926    2    1    2    0    0  0.00000000000E+00  0.00000000000E+00  0.63617998310E+03  0.77962660504E+03  0.45065804373E+03 0.  0.
      99925    2    3    3    0    0  0.28111055493E+02 -0.80535782270E+02  0.28447028785E+03  0.39671217399E+03  0.26302273791E+03 0.  0.
         25    1    4    4    0    0 -0.85819877149E+00 -0.75854821590E+02  0.17343456173E+03  0.22689589191E+03  0.12509000000E+03 0.  0.
         25    1    4    4    0    0  0.28969254265E+02 -0.46809606793E+01  0.11103572612E+03  0.16981628208E+03  0.12509000000E+03 0.  0.
         25    1    3    3    0    0 -0.28111055493E+02  0.80535782270E+02  0.35170969525E+03  0.38291443104E+03  0.12509000000E+03 0.  0.
<mgrwt>
<rscale>  2 0.45065804E+03</rscale>
<asrwt>0</asrwt>
<pdfrwt beam="1">  1       21 0.10410342E+00 0.45065804E+03</pdfrwt>
<pdfrwt beam="2">  1       21 0.10547546E-01 0.45065804E+03</pdfrwt>
<totfact> 0.50464097E+04</totfact>
</mgrwt>
</event>
<event>
 7    0  0.4712189E-002  0.4557099E+03  0.7546771E-02  0.1026033E+00
         21   -1    0    0  502  501  0.00000000000E+00  0.00000000000E+00  0.10388055403E+03  0.10388055403E+03  0.00000000000E+00 0.  1.
         21   -1    0    0  501  502 -0.00000000000E+00 -0.00000000000E+00 -0.49978448411E+03  0.49978448411E+03  0.00000000000E+00 0.  1.
      99926    2    1    2    0    0 -0.35527136788E-14  0.00000000000E+00 -0.39590393008E+03  0.60366503814E+03  0.45570994768E+03 0.  0.
      99925    2    3    3    0    0  0.18205299998E+02  0.84500152961E+02 -0.34705079762E+03  0.44395954215E+03  0.26302872493E+03 0.  0.
         25    1    3    3    0    0 -0.18205299998E+02 -0.84500152961E+02 -0.48853132469E+02  0.15970549599E+03  0.12509000000E+03 0.  0.
         25    1    4    4    0    0  0.30909427656E+02  0.71624272675E+02 -0.15376564667E+03  0.21301833571E+03  0.12509000000E+03 0.  0.
         25    1    4    4    0    0 -0.12704127657E+02  0.12875880286E+02 -0.19328515095E+03  0.23094120644E+03  0.12509000000E+03 0.  0.
<mgrwt>
<rscale>  2 0.45570995E+03</rscale>
<asrwt>0</asrwt>
<pdfrwt beam="1">  1       21 0.15276552E-01 0.45570995E+03</pdfrwt>
<pdfrwt beam="2">  1       21 0.73497718E-01 0.45570995E+03</pdfrwt>
<totfact> 0.58126529E+04</totfact>
</mgrwt>
</event>
<event>
 7    0  0.4712189E-002  0.4549926E+03  0.7546771E-02  0.1026244E+00
         21   -1    0    0  502  501  0.00000000000E+00  0.00000000000E+00  0.27737405209E+02  0.27737405209E+02  0.00000000000E+00 0.  1.
         21   -1    0    0  501  502 -0.00000000000E+00 -0.00000000000E+00 -0.18658763203E+04  0.18658763203E+04  0.00000000000E+00 0.  1.
      99926    2    1    2    0    0 -0.71054273576E-14  0.00000000000E+00 -0.18381389151E+04  0.18936137255E+04  0.45499260462E+03 0.  0.
      99925    2    3    3    0    0 -0.34442071726E+02 -0.78679688070E+02 -0.14627532216E+04  0.14887203116E+04  0.26318136210E+03 0.  0.
         25    1    4    4    0    0  0.12820488100E+02 -0.64246051458E+02 -0.81639858577E+03  0.82852041556E+03  0.12509000000E+03 0.  0.
         25    1    3    3    0    0  0.34442071726E+02  0.78679688070E+02 -0.37538569349E+03  0.40489341387E+03  0.12509000000E+03 0.  0.
         25    1    4    4    0    0 -0.47262559826E+02 -0.14433636612E+02 -0.64635463581E+03  0.66019989607E+03  0.12509000000E+03 0.  0.
<mgrwt>
<rscale>  2 0.45499260E+03</rscale>
<asrwt>0</asrwt>
<pdfrwt beam="1">  1       21 0.40790285E-02 0.45499260E+03</pdfrwt>
<pdfrwt beam="2">  1       21 0.27439369E+00 0.45499260E+03</pdfrwt>
<totfact> 0.15526312E+04</totfact>
</mgrwt>
</event>
<event>
 7    0  0.4712189E-002  0.4508847E+03  0.7546771E-02  0.1027459E+00
         21   -1    0    0  502  501  0.00000000000E+00  0.00000000000E+00  0.97875464352E+02  0.97875464352E+02  0.00000000000E+00 0.  1.
         21   -1    0    0  501  502 -0.00000000000E+00 -0.00000000000E+00 -0.51927473925E+03  0.51927473925E+03  0.00000000000E+00 0.  1.
      99926    2    1    2    0    0  0.71054273576E-14  0.00000000000E+00 -0.42139927490E+03  0.61715020361E+03  0.45088471356E+03 0.  0.
      99925    2    3    3    0    0  0.58652739065E+02  0.65268246873E+02 -0.17677349168E+03  0.32872452901E+03  0.26288944589E+03 0.  0.
         25    1    4    4    0    0  0.54177038146E+02  0.36550784384E+02 -0.54161430902E+02  0.15116904445E+03  0.12509000000E+03 0.  0.
         25    1    4    4    0    0  0.44757009189E+01  0.28717462490E+02 -0.12261206078E+03  0.17755548456E+03  0.12509000000E+03 0.  0.
         25    1    3    3    0    0 -0.58652739065E+02 -0.65268246873E+02 -0.24462578322E+03  0.28842567460E+03  0.12509000000E+03 0.  0.
<mgrwt>
<rscale>  2 0.45088471E+03</rscale>
<asrwt>0</asrwt>
<pdfrwt beam="1">  1       21 0.14393451E-01 0.45088471E+03</pdfrwt>
<pdfrwt beam="2">  1       21 0.76363932E-01 0.45088471E+03</pdfrwt>
<totfact> 0.59546562E+04</totfact>
</mgrwt>
</event>
<event>
 7    0  0.4712189E-002  0.4547548E+03  0.7546771E-02  0.1026314E+00
         21   -1    0    0  502  501  0.00000000000E+00  0.00000000000E+00  0.51690589296E+03  0.51690589296E+03  0.00000000000E+00 0. -1.
         21   -1    0    0  501  502 -0.00000000000E+00 -0.00000000000E+00 -0.10001915668E+03  0.10001915668E+03  0.00000000000E+00 0. -1.
      99926    2    1    2    0    0  0.35527136788E-14  0.35527136788E-14  0.41688673628E+03  0.61692504964E+03  0.45475484163E+03 0.  0.
      99925    2    3    3    0    0 -0.26679647032E+02  0.18651783585E+02  0.11569149596E+03  0.28916633734E+03  0.26300752046E+03 0.  0.
         25    1    3    3    0    0  0.26679647032E+02 -0.18651783585E+02  0.30119524031E+03  0.32775871229E+03  0.12509000000E+03 0.  0.
         25    1    4    4    0    0  0.48800790626E+01  0.35264946477E+02  0.30218135680E+02  0.13352181637E+03  0.12509000000E+03 0.  0.
         25    1    4    4    0    0 -0.31559726095E+02 -0.16613162892E+02  0.85473360284E+02  0.15564452098E+03  0.12509000000E+03 0.  0.
<mgrwt>
<rscale>  2 0.45475484E+03</rscale>
<asrwt>0</asrwt>
<pdfrwt beam="1">  1       21 0.76015571E-01 0.45475484E+03</pdfrwt>
<pdfrwt beam="2">  1       21 0.14708700E-01 0.45475484E+03</pdfrwt>
<totfact> 0.57760146E+04</totfact>
</mgrwt>
</event>
<event>
 7    0  0.4712189E-002  0.4543128E+03  0.7546771E-02  0.1026444E+00
         21   -1    0    0  502  501  0.00000000000E+00  0.00000000000E+00  0.12064598376E+03  0.12064598376E+03  0.00000000000E+00 0.  1.
         21   -1    0    0  501  502 -0.00000000000E+00 -0.00000000000E+00 -0.42769788547E+03  0.42769788547E+03  0.00000000000E+00 0.  1.
      99926    2    1    2    0    0  0.00000000000E+00 -0.14210854715E-13 -0.30705190171E+03  0.54834386923E+03  0.45431280917E+03 0.  0.
      99925    2    3    3    0    0 -0.28342139665E+02  0.93475189859E+02 -0.12582102511E+03  0.30744341939E+03  0.26296318709E+03 0.  0.
         25    1    3    3    0    0  0.28342139665E+02 -0.93475189859E+02 -0.18123087660E+03  0.24090044984E+03  0.12509000000E+03 0.  0.
         25    1    4    4    0    0 -0.24911101624E+02  0.60334589054E+01 -0.62619499294E+02  0.14221700110E+03  0.12509000000E+03 0.  0.
         25    1    4    4    0    0 -0.34310380417E+01  0.87441730953E+02 -0.63201525817E+02  0.16522641829E+03  0.12509000000E+03 0.  0.
<mgrwt>
<rscale>  2 0.45431281E+03</rscale>
<asrwt>0</asrwt>
<pdfrwt beam="1">  1       21 0.17742056E-01 0.45431281E+03</pdfrwt>
<pdfrwt beam="2">  1       21 0.62896748E-01 0.45431281E+03</pdfrwt>
<totfact> 0.62314208E+04</totfact>
</mgrwt>
</event>
<event>
 7    0  0.4712189E-002  0.4534908E+03  0.7546771E-02  0.1026686E+00
         21   -1    0    0  502  501  0.00000000000E+00  0.00000000000E+00  0.31092384346E+03  0.31092384346E+03  0.00000000000E+00 0. -1.
         21   -1    0    0  501  502 -0.00000000000E+00 -0.00000000000E+00 -0.16535711023E+03  0.16535711023E+03  0.00000000000E+00 0. -1.
      99926    2    1    2    0    0  0.88817841970E-15  0.14210854715E-13  0.14556673322E+03  0.47628095369E+03  0.45349076399E+03 0.  0.
      99925    2    3    3    0    0 -0.62180830467E+01 -0.95612588788E+02  0.15199804455E+03  0.31858091705E+03  0.26307786579E+03 0.  0.
         25    1    3    3    0    0  0.62180830467E+01  0.95612588788E+02 -0.64313113228E+01  0.15770003664E+03  0.12509000000E+03 0.  0.
         25    1    4    4    0    0 -0.16179643093E+02 -0.88228463136E+02  0.91602353993E+02  0.17912158417E+03  0.12509000000E+03 0.  0.
         25    1    4    4    0    0  0.99615600459E+01 -0.73841256522E+01  0.60395690553E+02  0.13945933288E+03  0.12509000000E+03 0.  0.
<mgrwt>
<rscale>  2 0.45349076E+03</rscale>
<asrwt>0</asrwt>
<pdfrwt beam="1">  1       21 0.45724095E-01 0.45349076E+03</pdfrwt>
<pdfrwt beam="2">  1       21 0.24317222E-01 0.45349076E+03</pdfrwt>
<totfact> 0.67780080E+04</totfact>
</mgrwt>
</event>
<event>
 7    0  0.4712189E-002  0.4560579E+03  0.7546771E-02  0.1025931E+00
         21   -1    0    0  502  501  0.00000000000E+00  0.00000000000E+00  0.97974239939E+02  0.97974239939E+02  0.00000000000E+00 0.  1.
         21   -1    0    0  501  502 -0.00000000000E+00 -0.00000000000E+00 -0.53072324818E+03  0.53072324818E+03  0.00000000000E+00 0.  1.
      99926    2    1    2    0    0  0.00000000000E+00 -0.17763568394E-14 -0.43274900824E+03  0.62869748811E+03  0.45605792114E+03 0.  0.
      99925    2    3    3    0    0 -0.97856020387E+02 -0.11312084327E+02 -0.19237184272E+03  0.34037049705E+03  0.26294749554E+03 0.  0.
         25    1    4    4    0    0 -0.85833140519E+02 -0.22568355626E+02 -0.12141814525E+03  0.19561833447E+03  0.12509000000E+03 0.  0.
         25    1    3    3    0    0  0.97856020387E+02  0.11312084327E+02 -0.24037716551E+03  0.28832699107E+03  0.12509000000E+03 0.  0.
         25    1    4    4    0    0 -0.12022879868E+02  0.11256271299E+02 -0.70953697474E+02  0.14475216257E+03  0.12509000000E+03 0.  0.
<mgrwt>
<rscale>  2 0.45605792E+03</rscale>
<asrwt>0</asrwt>
<pdfrwt beam="1">  1       21 0.14407977E-01 0.45605792E+03</pdfrwt>
<pdfrwt beam="2">  1       21 0.78047535E-01 0.45605792E+03</pdfrwt>
<totfact> 0.56472613E+04</totfact>
</mgrwt>
</event>
<event>
 7    0  0.4712189E-002  0.4532842E+03  0.7546771E-02  0.1026747E+00
         21   -1    0    0  502  501  0.00000000000E+00  0.00000000000E+00  0.26923763947E+03  0.26923763947E+03  0.00000000000E+00 0. -1.
         21   -1    0    0  501  502 -0.00000000000E+00 -0.00000000000E+00 -0.19078549134E+03  0.19078549134E+03  0.00000000000E+00 0. -1.
      99926    2    1    2    0    0  0.00000000000E+00  0.00000000000E+00  0.78452148127E+02  0.46002313081E+03  0.45328417283E+03 0.  0.
      99925    2    3    3    0    0  0.21989861035E+02 -0.96755861787E+02 -0.23983289976E+01  0.28105509308E+03  0.26294669153E+03 0.  0.
         25    1    4    4    0    0  0.39124678102E+01 -0.75156658180E+02 -0.32024080473E+02  0.14945527928E+03  0.12509000000E+03 0.  0.
         25    1    3    3    0    0 -0.21989861035E+02  0.96755861787E+02  0.80850477125E+02  0.17896803773E+03  0.12509000000E+03 0.  0.
         25    1    4    4    0    0  0.18077393225E+02 -0.21599203607E+02  0.29625751475E+02  0.13159981380E+03  0.12509000000E+03 0.  0.
<mgrwt>
<rscale>  2 0.45328417E+03</rscale>
<asrwt>0</asrwt>
<pdfrwt beam="1">  1       21 0.39593771E-01 0.45328417E+03</pdfrwt>
<pdfrwt beam="2">  1       21 0.28056690E-01 0.45328417E+03</pdfrwt>
<totfact> 0.69119102E+04</totfact>
</mgrwt>
</event>
<event>
 7    0  0.4712189E-002  0.4546767E+03  0.7546771E-02  0.1026337E+00
         21   -1    0    0  502  501  0.00000000000E+00  0.00000000000E+00  0.24957874914E+03  0.24957874914E+03  0.00000000000E+00 0.  1.
         21   -1    0    0  501  502 -0.00000000000E+00 -0.00000000000E+00 -0.20707979903E+03  0.20707979903E+03  0.00000000000E+00 0.  1.
      99926    2    1    2    0    0  0.00000000000E+00  0.00000000000E+00  0.42498950107E+02  0.45665854817E+03  0.45467666407E+03 0.  0.
      99925    2    3    3    0    0  0.46175372679E+02  0.64231031877E+02 -0.54206844628E+02  0.27986118016E+03  0.26291844298E+03 0.  0.
         25    1    4    4    0    0 -0.16807724109E+02  0.34644210779E+02 -0.34628930527E+02  0.13538608444E+03  0.12509000000E+03 0.  0.
         25    1    3    3    0    0 -0.46175372679E+02 -0.64231031877E+02  0.96705794735E+02  0.17679736800E+03  0.12509000000E+03 0.  0.
         25    1    4    4    0    0  0.62983096788E+02  0.29586821097E+02 -0.19577914100E+02  0.14447509572E+03  0.12509000000E+03 0.  0.
<mgrwt>
<rscale>  2 0.45467666E+03</rscale>
<asrwt>0</asrwt>
<pdfrwt beam="1">  1       21 0.36702758E-01 0.45467666E+03</pdfrwt>
<pdfrwt beam="2">  1       21 0.30452911E-01 0.45467666E+03</pdfrwt>
<totfact> 0.68601274E+04</totfact>
</mgrwt>
</event>
<event>
 7    0  0.4712189E-002  0.4524527E+03  0.7546771E-02  0.1026993E+00
         21   -1    0    0  502  501  0.00000000000E+00  0.00000000000E+00  0.49519704101E+02  0.49519704101E+02  0.00000000000E+00 0. -1.
         21   -1    0    0  501  502 -0.00000000000E+00 -0.00000000000E+00 -0.10334948250E+04  0.10334948250E+04  0.00000000000E+00 0. -1.
      99926    2    1    2    0    0  0.00000000000E+00  0.00000000000E+00 -0.98397512094E+03  0.10830145291E+04  0.45245268449E+03 0.  0.
      99925    2    3    3    0    0 -0.91324567804E+02 -0.58565300024E+02 -0.56665705613E+03  0.63404688402E+03  0.26295467445E+03 0.  0.
         25    1    4    4    0    0 -0.88003872177E+02 -0.37723028150E+02 -0.30689674439E+03  0.34496496661E+03  0.12509000000E+03 0.  0.
         25    1    3    3    0    0  0.91324567804E+02  0.58565300024E+02 -0.41731806481E+03  0.44896764512E+03  0.12509000000E+03 0.  0.
         25    1    4    4    0    0 -0.33206956274E+01 -0.20842271875E+02 -0.25976031174E+03  0.28908191741E+03  0.12509000000E+03 0.  0.
<mgrwt>
<rscale>  2 0.45245268E+03</rscale>
<asrwt>0</asrwt>
<pdfrwt beam="1">  1       21 0.72823100E-02 0.45245268E+03</pdfrwt>
<pdfrwt beam="2">  1       21 0.15198452E+00 0.45245268E+03</pdfrwt>
<totfact> 0.36815088E+04</totfact>
</mgrwt>
</event>
<event>
 7    0  0.4712189E-002  0.4425173E+03  0.7546771E-02  0.1029977E+00
         21   -1    0    0  502  501  0.00000000000E+00  0.00000000000E+00  0.42187578176E+03  0.42187578176E+03  0.00000000000E+00 0. -1.
         21   -1    0    0  501  502 -0.00000000000E+00 -0.00000000000E+00 -0.11604221433E+03  0.11604221433E+03  0.00000000000E+00 0. -1.
      99926    2    1    2    0    0  0.71054273576E-14 -0.71054273576E-14  0.30583356743E+03  0.53791799610E+03  0.44251734379E+03 0.  0.
      99925    2    3    3    0    0  0.45404701619E+02 -0.61568922114E+02  0.27445225101E+03  0.38796929080E+03  0.26333213519E+03 0.  0.
         25    1    4    4    0    0  0.34423613976E+02 -0.50435437929E+02  0.19270227345E+03  0.23771914708E+03  0.12509000000E+03 0.  0.
         25    1    3    3    0    0 -0.45404701619E+02  0.61568922114E+02  0.31381316423E+02  0.14994870530E+03  0.12509000000E+03 0.  0.
         25    1    4    4    0    0  0.10981087643E+02 -0.11133484185E+02  0.81749977558E+02  0.15025014372E+03  0.12509000000E+03 0.  0.
<mgrwt>
<rscale>  2 0.44251734E+03</rscale>
<asrwt>0</asrwt>
<pdfrwt beam="1">  1       21 0.62040556E-01 0.44251734E+03</pdfrwt>
<pdfrwt beam="2">  1       21 0.17065032E-01 0.44251734E+03</pdfrwt>
<totfact> 0.69265333E+04</totfact>
</mgrwt>
</event>
<event>
 7    0  0.4712189E-002  0.4457515E+03  0.7546771E-02  0.1028997E+00
         21   -1    0    0  502  501  0.00000000000E+00  0.00000000000E+00  0.23325774378E+03  0.23325774378E+03  0.00000000000E+00 0.  1.
         21   -1    0    0  501  502 -0.00000000000E+00 -0.00000000000E+00 -0.21295581312E+03  0.21295581312E+03  0.00000000000E+00 0.  1.
      99926    2    1    2    0    0  0.00000000000E+00  0.00000000000E+00  0.20301930667E+02  0.44621355690E+03  0.44575146660E+03 0.  0.
      99925    2    3    3    0    0  0.59810063287E+02 -0.75840882367E+02 -0.26451934147E+02  0.28140301390E+03  0.26298073752E+03 0.  0.
         25    1    4    4    0    0  0.65404252908E+02 -0.21533481875E+02 -0.24678720445E+02  0.14490670959E+03  0.12509000000E+03 0.  0.
         25    1    4    4    0    0 -0.55941896214E+01 -0.54307400492E+02 -0.17732137017E+01  0.13649630432E+03  0.12509000000E+03 0.  0.
         25    1    3    3    0    0 -0.59810063287E+02  0.75840882367E+02  0.46753864814E+02  0.16481054300E+03  0.12509000000E+03 0.  0.
<mgrwt>
<rscale>  2 0.44575147E+03</rscale>
<asrwt>0</asrwt>
<pdfrwt beam="1">  1       21 0.34302609E-01 0.44575147E+03</pdfrwt>
<pdfrwt beam="2">  1       21 0.31317031E-01 0.44575147E+03</pdfrwt>
<totfact> 0.74545257E+04</totfact>
</mgrwt>
</event>
<event>
 7    0  0.4712189E-002  0.4741942E+03  0.7546771E-02  0.1020743E+00
         21   -1    0    0  502  501  0.00000000000E+00  0.00000000000E+00  0.11642613283E+03  0.11642613283E+03  0.00000000000E+00 0. -1.
         21   -1    0    0  501  502 -0.00000000000E+00 -0.00000000000E+00 -0.48283853600E+03  0.48283853600E+03  0.00000000000E+00 0. -1.
      99926    2    1    2    0    0  0.00000000000E+00  0.00000000000E+00 -0.36641240317E+03  0.59926466882E+03  0.47419415233E+03 0.  0.
      99925    2    3    3    0    0 -0.14728612415E+02  0.12295754808E+03 -0.17394437900E+03  0.33844492439E+03  0.26258870732E+03 0.  0.
         25    1    3    3    0    0  0.14728612415E+02 -0.12295754808E+03 -0.19246802418E+03  0.26081974443E+03  0.12509000000E+03 0.  0.
         25    1    4    4    0    0  0.43191029314E+01  0.10156595428E+03 -0.10932718022E+03  0.19476713828E+03  0.12509000000E+03 0.  0.
         25    1    4    4    0    0 -0.19047715347E+02  0.21391593808E+02 -0.64617198775E+02  0.14367778612E+03  0.12509000000E+03 0.  0.
<mgrwt>
<rscale>  2 0.47419415E+03</rscale>
<asrwt>0</asrwt>
<pdfrwt beam="1">  1       21 0.17121490E-01 0.47419415E+03</pdfrwt>
<pdfrwt beam="2">  1       21 0.71005669E-01 0.47419415E+03</pdfrwt>
<totfact> 0.50600689E+04</totfact>
</mgrwt>
</event>
<event>
 7    0  0.4712189E-002  0.4585069E+03  0.7546771E-02  0.1025215E+00
         21   -1    0    0  502  501  0.00000000000E+00  0.00000000000E+00  0.31934046786E+03  0.31934046786E+03  0.00000000000E+00 0.  1.
         21   -1    0    0  501  502 -0.00000000000E+00 -0.00000000000E+00 -0.16458025568E+03  0.16458025568E+03  0.00000000000E+00 0.  1.
      99926    2    1    2    0    0  0.00000000000E+00  0.00000000000E+00  0.15476021218E+03  0.48392072354E+03  0.45850686297E+03 0.  0.
      99925    2    3    3    0    0 -0.81060902848E+02  0.77784579677E+02  0.13122304494E+03  0.31414788369E+03  0.26238920424E+03 0.  0.
         25    1    4    4    0    0 -0.14798952492E+02  0.53270543503E+02  0.34785152099E+02  0.14111794608E+03  0.12509000000E+03 0.  0.
         25    1    4    4    0    0 -0.66261950356E+02  0.24514036174E+02  0.96437892840E+02  0.17302993761E+03  0.12509000000E+03 0.  0.
         25    1    3    3    0    0  0.81060902848E+02 -0.77784579677E+02  0.23537167246E+02  0.16977283984E+03  0.12509000000E+03 0.  0.
<mgrwt>
<rscale>  2 0.45850686E+03</rscale>
<asrwt>0</asrwt>
<pdfrwt beam="1">  1       21 0.46961834E-01 0.45850686E+03</pdfrwt>
<pdfrwt beam="2">  1       21 0.24202979E-01 0.45850686E+03</pdfrwt>
<totfact> 0.64598741E+04</totfact>
</mgrwt>
</event>
<event>
 7    0  0.4712189E-002  0.4488799E+03  0.7546771E-02  0.1028057E+00
         21   -1    0    0  502  501  0.00000000000E+00  0.00000000000E+00  0.81048175362E+02  0.81048175362E+02  0.00000000000E+00 0. -1.
         21   -1    0    0  501  502 -0.00000000000E+00 -0.00000000000E+00 -0.62152289809E+03  0.62152289809E+03  0.00000000000E+00 0. -1.
      99926    2    1    2    0    0  0.00000000000E+00 -0.35527136788E-14 -0.54047472273E+03  0.70257107345E+03  0.44887992531E+03 0.  0.
      99925    2    3    3    0    0 -0.10439644900E+03 -0.11205335267E+02 -0.30697048447E+03  0.41762210348E+03  0.26296989348E+03 0.  0.
         25    1    4    4    0    0 -0.64909848078E+02  0.25702014699E+02 -0.19056654807E+03  0.23840511589E+03  0.12509000000E+03 0.  0.
         25    1    4    4    0    0 -0.39486600921E+02 -0.36907349967E+02 -0.11640393640E+03  0.17921698760E+03  0.12509000000E+03 0.  0.
         25    1    3    3    0    0  0.10439644900E+03  0.11205335267E+02 -0.23350423826E+03  0.28494896997E+03  0.12509000000E+03 0.  0.
<mgrwt>
<rscale>  2 0.44887993E+03</rscale>
<asrwt>0</asrwt>
<pdfrwt beam="1">  1       21 0.11918849E-01 0.44887993E+03</pdfrwt>
<pdfrwt beam="2">  1       21 0.91400427E-01 0.44887993E+03</pdfrwt>
<totfact> 0.55383004E+04</totfact>
</mgrwt>
</event>
<event>
 7    0  0.4712189E-002  0.4705724E+03  0.7546771E-02  0.1021759E+00
         21   -1    0    0  502  501  0.00000000000E+00  0.00000000000E+00  0.42858956399E+02  0.42858956399E+02  0.00000000000E+00 0.  1.
         21   -1    0    0  501  502 -0.00000000000E+00 -0.00000000000E+00 -0.12916694991E+04  0.12916694991E+04  0.00000000000E+00 0.  1.
      99926    2    1    2    0    0  0.71054273576E-14  0.71054273576E-14 -0.12488105427E+04  0.13345284555E+04  0.47057244604E+03 0.  0.
      99925    2    3    3    0    0 -0.45125609332E+02 -0.54816504802E+02 -0.47565381236E+03  0.54810617226E+03  0.26293089783E+03 0.  0.
         25    1    3    3    0    0  0.45125609332E+02  0.54816504802E+02 -0.77315673032E+03  0.78642228322E+03  0.12509000000E+03 0.  0.
         25    1    4    4    0    0 -0.26985300053E+02 -0.37248870980E+02 -0.32119892172E+03  0.34775269980E+03  0.12509000000E+03 0.  0.
         25    1    4    4    0    0 -0.18140309278E+02 -0.17567633821E+02 -0.15445489065E+03  0.20035347245E+03  0.12509000000E+03 0.  0.
<mgrwt>
<rscale>  2 0.47057245E+03</rscale>
<asrwt>0</asrwt>
<pdfrwt beam="1">  1       21 0.63027874E-02 0.47057245E+03</pdfrwt>
<pdfrwt beam="2">  1       21 0.18995141E+00 0.47057245E+03</pdfrwt>
<totfact> 0.24965076E+04</totfact>
</mgrwt>
</event>
<event>
 7    0  0.4712189E-002  0.4501672E+03  0.7546771E-02  0.1027672E+00
         21   -1    0    0  502  501  0.00000000000E+00  0.00000000000E+00  0.29410819452E+03  0.29410819452E+03  0.00000000000E+00 0.  1.
         21   -1    0    0  501  502 -0.00000000000E+00 -0.00000000000E+00 -0.17225845073E+03  0.17225845073E+03  0.00000000000E+00 0.  1.
      99926    2    1    2    0    0 -0.44408920985E-15  0.00000000000E+00  0.12184974379E+03  0.46636664524E+03  0.45016717754E+03 0.  0.
      99925    2    3    3    0    0  0.25906119388E+01 -0.57614697076E+02  0.17226673555E+03  0.31968486128E+03  0.26305211986E+03 0.  0.
         25    1    3    3    0    0 -0.25906119388E+01  0.57614697076E+02 -0.50416991766E+02  0.14668178397E+03  0.12509000000E+03 0.  0.
         25    1    4    4    0    0 -0.14619512418E+02 -0.47123797601E+02  0.49584400119E+02  0.14331958442E+03  0.12509000000E+03 0.  0.
         25    1    4    4    0    0  0.17210124357E+02 -0.10490899475E+02  0.12268233543E+03  0.17636527685E+03  0.12509000000E+03 0.  0.
<mgrwt>
<rscale>  2 0.45016718E+03</rscale>
<asrwt>0</asrwt>
<pdfrwt beam="1">  1       21 0.43251205E-01 0.45016718E+03</pdfrwt>
<pdfrwt beam="2">  1       21 0.25332125E-01 0.45016718E+03</pdfrwt>
<totfact> 0.70366214E+04</totfact>
</mgrwt>
</event>
<event>
 7    0  0.4712189E-002  0.4561777E+03  0.7546771E-02  0.1025896E+00
         21   -1    0    0  502  501  0.00000000000E+00  0.00000000000E+00  0.10341782737E+04  0.10341782737E+04  0.00000000000E+00 0. -1.
         21   -1    0    0  501  502 -0.00000000000E+00 -0.00000000000E+00 -0.50305176505E+02  0.50305176505E+02  0.00000000000E+00 0. -1.
      99926    2    1    2    0    0  0.00000000000E+00  0.71054273576E-14  0.98387309718E+03  0.10844834502E+04  0.45617768729E+03 0.  0.
      99925    2    3    3    0    0 -0.95758824872E+02  0.57060901369E+02  0.67763215347E+03  0.73540362736E+03  0.26307310905E+03 0.  0.
         25    1    4    4    0    0 -0.31074329685E+02  0.35494844620E+02  0.42302741556E+03  0.44364986236E+03  0.12509000000E+03 0.  0.
         25    1    3    3    0    0  0.95758824872E+02 -0.57060901369E+02  0.30624094371E+03  0.34907982284E+03  0.12509000000E+03 0.  0.
         25    1    4    4    0    0 -0.64684495186E+02  0.21566056748E+02  0.25460473791E+03  0.29175376500E+03  0.12509000000E+03 0.  0.
<mgrwt>
<rscale>  2 0.45617769E+03</rscale>
<asrwt>0</asrwt>
<pdfrwt beam="1">  1       21 0.15208503E+00 0.45617769E+03</pdfrwt>
<pdfrwt beam="2">  1       21 0.73978207E-02 0.45617769E+03</pdfrwt>
<totfact> 0.35707704E+04</totfact>
</mgrwt>
</event>
<event>
 7    0  0.4712189E-002  0.4533062E+03  0.7546771E-02  0.1026741E+00
         21   -1    0    0  502  501  0.00000000000E+00  0.00000000000E+00  0.22583903643E+02  0.22583903643E+02  0.00000000000E+00 0.  1.
         21   -1    0    0  501  502 -0.00000000000E+00 -0.00000000000E+00 -0.22747009989E+04  0.22747009989E+04  0.00000000000E+00 0.  1.
      99926    2    1    2    0    0  0.00000000000E+00 -0.88817841970E-15 -0.22521170953E+04  0.22972849025E+04  0.45330620192E+03 0.  0.
      99925    2    3    3    0    0  0.69916495851E+02  0.55022298270E+01 -0.18596632736E+04  0.18794498858E+04  0.26280371268E+03 0.  0.
         25    1    3    3    0    0 -0.69916495851E+02 -0.55022298270E+01 -0.39245382170E+03  0.41783501671E+03  0.12509000000E+03 0.  0.
         25    1    4    4    0    0  0.56783887929E+01 -0.11226471679E+02 -0.10494936657E+04  0.10569970389E+04  0.12509000000E+03 0.  0.
         25    1    4    4    0    0  0.64238107058E+02  0.16728701506E+02 -0.81016960786E+03  0.82245284695E+03  0.12509000000E+03 0.  0.
<mgrwt>
<rscale>  2 0.45330620E+03</rscale>
<asrwt>0</asrwt>
<pdfrwt beam="1">  1       21 0.33211612E-02 0.45330620E+03</pdfrwt>
<pdfrwt beam="2">  1       21 0.33451496E+00 0.45330620E+03</pdfrwt>
<totfact> 0.95601200E+03</totfact>
</mgrwt>
</event>
<event>
 7    0  0.4712189E-002  0.4556142E+03  0.7546771E-02  0.1026061E+00
         21   -1    0    0  502  501  0.00000000000E+00  0.00000000000E+00  0.33497793521E+03  0.33497793521E+03  0.00000000000E+00 0.  1.
         21   -1    0    0  501  502 -0.00000000000E+00 -0.00000000000E+00 -0.15492385627E+03  0.15492385627E+03  0.00000000000E+00 0.  1.
      99926    2    1    2    0    0  0.00000000000E+00  0.00000000000E+00  0.18005407894E+03  0.48990179148E+03  0.45561419419E+03 0.  0.
      99925    2    3    3    0    0 -0.23617168713E+02 -0.77463638427E+02  0.19963469354E+03  0.33960443786E+03  0.26252386065E+03 0.  0.
         25    1    3    3    0    0  0.23617168713E+02  0.77463638427E+02 -0.19580614604E+02  0.15029735362E+03  0.12509000000E+03 0.  0.
         25    1    4    4    0    0  0.23346320869E+02 -0.40784518043E+02  0.12110417972E+03  0.18033900869E+03  0.12509000000E+03 0.  0.
         25    1    4    4    0    0 -0.46963489582E+02 -0.36679120384E+02  0.78530513821E+02  0.15926542916E+03  0.12509000000E+03 0.  0.
<mgrwt>
<rscale>  2 0.45561419E+03</rscale>
<asrwt>0</asrwt>
<pdfrwt beam="1">  1       21 0.49261461E-01 0.45561419E+03</pdfrwt>
<pdfrwt beam="2">  1       21 0.22782920E-01 0.45561419E+03</pdfrwt>
<totfact> 0.65665317E+04</totfact>
</mgrwt>
</event>
<event>
 7    0  0.4712189E-002  0.4651213E+03  0.7546771E-02  0.1023306E+00
         21   -1    0    0  502  501  0.00000000000E+00  0.00000000000E+00  0.69140059827E+03  0.69140059827E+03  0.00000000000E+00 0. -1.
         21   -1    0    0  501  502 -0.00000000000E+00 -0.00000000000E+00 -0.78224480293E+02  0.78224480293E+02  0.00000000000E+00 0. -1.
      99926    2    1    2    0    0  0.00000000000E+00  0.00000000000E+00  0.61317611797E+03  0.76962507856E+03  0.46512128514E+03 0.  0.
      99925    2    3    3    0    0  0.54798798035E+02 -0.79552083689E+02  0.25800211745E+03  0.38087384572E+03  0.26299876703E+03 0.  0.
         25    1    3    3    0    0 -0.54798798035E+02  0.79552083689E+02  0.35517400052E+03  0.38875123284E+03  0.12509000000E+03 0.  0.
         25    1    4    4    0    0  0.10134446472E+02 -0.52517984387E+02  0.17600302856E+03  0.22245318576E+03  0.12509000000E+03 0.  0.
         25    1    4    4    0    0  0.44664351563E+02 -0.27034099302E+02  0.81999088885E+02  0.15842065996E+03  0.12509000000E+03 0.  0.
<mgrwt>
<rscale>  2 0.46512129E+03</rscale>
<asrwt>0</asrwt>
<pdfrwt beam="1">  1       21 0.10167656E+00 0.46512129E+03</pdfrwt>
<pdfrwt beam="2">  1       21 0.11503600E-01 0.46512129E+03</pdfrwt>
<totfact> 0.45541388E+04</totfact>
</mgrwt>
</event>
<event>
 7    0  0.4712189E-002  0.4578081E+03  0.7546771E-02  0.1025419E+00
         21   -1    0    0  502  501  0.00000000000E+00  0.00000000000E+00  0.34331038839E+03  0.34331038839E+03  0.00000000000E+00 0. -1.
         21   -1    0    0  501  502 -0.00000000000E+00 -0.00000000000E+00 -0.15262299799E+03  0.15262299799E+03  0.00000000000E+00 0. -1.
      99926    2    1    2    0    0 -0.35527136788E-14  0.00000000000E+00  0.19068739040E+03  0.49593338638E+03  0.45780808519E+03 0.  0.
      99925    2    3    3    0    0  0.24379446773E+02 -0.89510517963E+02  0.43860582310E+02  0.28189574968E+03  0.26255470431E+03 0.  0.
         25    1    4    4    0    0 -0.34420590644E+00 -0.46803307768E+02  0.60077507249E+02  0.14644959226E+03  0.12509000000E+03 0.  0.
         25    1    4    4    0    0  0.24723652679E+02 -0.42707210195E+02 -0.16216924940E+02  0.13544615742E+03  0.12509000000E+03 0.  0.
         25    1    3    3    0    0 -0.24379446773E+02  0.89510517963E+02  0.14682680809E+03  0.21403763670E+03  0.12509000000E+03 0.  0.
<mgrwt>
<rscale>  2 0.45780809E+03</rscale>
<asrwt>0</asrwt>
<pdfrwt beam="1">  1       21 0.50486822E-01 0.45780809E+03</pdfrwt>
<pdfrwt beam="2">  1       21 0.22444558E-01 0.45780809E+03</pdfrwt>
<totfact> 0.64116052E+04</totfact>
</mgrwt>
</event>
<event>
 7    0  0.4712189E-002  0.4606160E+03  0.7546771E-02  0.1024603E+00
         21   -1    0    0  502  501  0.00000000000E+00  0.00000000000E+00  0.32277661216E+03  0.32277661216E+03  0.00000000000E+00 0.  1.
         21   -1    0    0  501  502 -0.00000000000E+00 -0.00000000000E+00 -0.16432966975E+03  0.16432966975E+03  0.00000000000E+00 0.  1.
      99926    2    1    2    0    0  0.35527136788E-14  0.35527136788E-14  0.15844694242E+03  0.48710628191E+03  0.46061599659E+03 0.  0.
      99925    2    3    3    0    0  0.30799228917E+02  0.28677277290E+02  0.21727702800E+03  0.34260899541E+03  0.26153515654E+03 0.  0.
         25    1    4    4    0    0  0.31119761084E+02 -0.19912984081E+02  0.11484456934E+03  0.17378650601E+03  0.12509000000E+03 0.  0.
         25    1    4    4    0    0 -0.32053216716E+00  0.48590261370E+02  0.10243245866E+03  0.16882248940E+03  0.12509000000E+03 0.  0.
         25    1    3    3    0    0 -0.30799228917E+02 -0.28677277290E+02 -0.58830085582E+02  0.14449728649E+03  0.12509000000E+03 0.  0.
<mgrwt>
<rscale>  2 0.46061600E+03</rscale>
<asrwt>0</asrwt>
<pdfrwt beam="1">  1       21 0.47467149E-01 0.46061600E+03</pdfrwt>
<pdfrwt beam="2">  1       21 0.24166128E-01 0.46061600E+03</pdfrwt>
<totfact> 0.63316225E+04</totfact>
</mgrwt>
</event>
<event>
 7    0  0.4712189E-002  0.4618068E+03  0.7546771E-02  0.1024259E+00
         21   -1    0    0  502  501  0.00000000000E+00  0.00000000000E+00  0.98736587730E+03  0.98736587730E+03  0.00000000000E+00 0.  1.
         21   -1    0    0  501  502 -0.00000000000E+00 -0.00000000000E+00 -0.53998600648E+02  0.53998600648E+02  0.00000000000E+00 0.  1.
      99926    2    1    2    0    0  0.00000000000E+00  0.00000000000E+00  0.93336727665E+03  0.10413644780E+04  0.46180678082E+03 0.  0.
      99925    2    3    3    0    0 -0.24688658660E+02 -0.15545626570E+02  0.84503483141E+03  0.88547565425E+03  0.26292978455E+03 0.  0.
         25    1    3    3    0    0  0.24688658660E+02  0.15545626570E+02  0.88332445249E+02  0.15588882370E+03  0.12509000000E+03 0.  0.
         25    1    4    4    0    0  0.16585025758E+02 -0.30252202281E+02  0.36060552156E+03  0.38324158060E+03  0.12509000000E+03 0.  0.
         25    1    4    4    0    0 -0.41273684418E+02  0.14706575711E+02  0.48442930984E+03  0.50223407365E+03  0.12509000000E+03 0.  0.
<mgrwt>
<rscale>  2 0.46180678E+03</rscale>
<asrwt>0</asrwt>
<pdfrwt beam="1">  1       21 0.14520085E+00 0.46180678E+03</pdfrwt>
<pdfrwt beam="2">  1       21 0.79409713E-02 0.46180678E+03</pdfrwt>
<totfact> 0.35662930E+04</totfact>
</mgrwt>
</event>
<event>
 7    0  0.4712189E-002  0.4547270E+03  0.7546771E-02  0.1026322E+00
         21   -1    0    0  502  501  0.00000000000E+00  0.00000000000E+00  0.87066376917E+03  0.87066376917E+03  0.00000000000E+00 0.  1.
         21   -1    0    0  501  502 -0.00000000000E+00 -0.00000000000E+00 -0.59373276620E+02  0.59373276620E+02  0.00000000000E+00 0.  1.
      99926    2    1    2    0    0  0.00000000000E+00  0.00000000000E+00  0.81129049255E+03  0.93003704579E+03  0.45472699858E+03 0.  0.
      99925    2    3    3    0    0 -0.10722986610E+03 -0.19372951995E+02  0.57156816627E+03  0.63851027640E+03  0.26292898076E+03 0.  0.
         25    1    4    4    0    0 -0.89515118447E+02  0.22014417635E+00  0.35721685083E+03  0.38892723164E+03  0.12509000000E+03 0.  0.
         25    1    4    4    0    0 -0.17714747654E+02 -0.19593096171E+02  0.21435131543E+03  0.24958304476E+03  0.12509000000E+03 0.  0.
         25    1    3    3    0    0  0.10722986610E+03  0.19372951995E+02  0.23972232629E+03  0.29152676939E+03  0.12509000000E+03 0.  0.
<mgrwt>
<rscale>  2 0.45472700E+03</rscale>
<asrwt>0</asrwt>
<pdfrwt beam="1">  1       21 0.12803878E+00 0.45472700E+03</pdfrwt>
<pdfrwt beam="2">  1       21 0.87313647E-02 0.45472700E+03</pdfrwt>
<totfact> 0.42049658E+04</totfact>
</mgrwt>
</event>
<event>
 7    0  0.4712189E-002  0.4493148E+03  0.7546771E-02  0.1027927E+00
         21   -1    0    0  502  501  0.00000000000E+00  0.00000000000E+00  0.31834527490E+03  0.31834527490E+03  0.00000000000E+00 0.  1.
         21   -1    0    0  501  502 -0.00000000000E+00 -0.00000000000E+00 -0.15854154658E+03  0.15854154658E+03  0.00000000000E+00 0.  1.
      99926    2    1    2    0    0  0.00000000000E+00  0.00000000000E+00  0.15980372832E+03  0.47688682147E+03  0.44931482160E+03 0.  0.
      99925    2    3    3    0    0 -0.82331073588E+02  0.43478657261E+02  0.15874804727E+03  0.32094637810E+03  0.26293884420E+03 0.  0.
         25    1    4    4    0    0 -0.32446776102E+02 -0.12914077350E+02  0.51158935638E+02  0.13958621518E+03  0.12509000000E+03 0.  0.
         25    1    4    4    0    0 -0.49884297486E+02  0.56392734611E+02  0.10758911164E+03  0.18136016292E+03  0.12509000000E+03 0.  0.
         25    1    3    3    0    0  0.82331073588E+02 -0.43478657261E+02  0.10556810454E+01  0.15594044337E+03  0.12509000000E+03 0.  0.
<mgrwt>
<rscale>  2 0.44931482E+03</rscale>
<asrwt>0</asrwt>
<pdfrwt beam="1">  1       21 0.46815482E-01 0.44931482E+03</pdfrwt>
<pdfrwt beam="2">  1       21 0.23314933E-01 0.44931482E+03</pdfrwt>
<totfact> 0.70034847E+04</totfact>
</mgrwt>
</event>
<event>
 7    0  0.4712189E-002  0.4583154E+03  0.7546771E-02  0.1025271E+00
         21   -1    0    0  502  501  0.00000000000E+00  0.00000000000E+00  0.32705998881E+03  0.32705998881E+03  0.00000000000E+00 0.  1.
         21   -1    0    0  501  502 -0.00000000000E+00 -0.00000000000E+00 -0.16056154162E+03  0.16056154162E+03  0.00000000000E+00 0.  1.
      99926    2    1    2    0    0  0.00000000000E+00 -0.44408920985E-15  0.16649844720E+03  0.48762153043E+03  0.45831541980E+03 0.  0.
      99925    2    3    3    0    0 -0.69315932814E+02  0.15415562500E+01  0.50752643757E+01  0.27195505879E+03  0.26291960893E+03 0.  0.
         25    1    4    4    0    0 -0.40275060862E+02  0.79464482075E+01 -0.36853656352E+02  0.13671476384E+03  0.12509000000E+03 0.  0.
         25    1    4    4    0    0 -0.29040871951E+02 -0.64048919574E+01  0.41928920728E+02  0.13524029495E+03  0.12509000000E+03 0.  0.
         25    1    3    3    0    0  0.69315932814E+02 -0.15415562500E+01  0.16142318282E+03  0.21566647164E+03  0.12509000000E+03 0.  0.
<mgrwt>
<rscale>  2 0.45831542E+03</rscale>
<asrwt>0</asrwt>
<pdfrwt beam="1">  1       21 0.48097057E-01 0.45831542E+03</pdfrwt>
<pdfrwt beam="2">  1       21 0.23611991E-01 0.45831542E+03</pdfrwt>
<totfact> 0.64436662E+04</totfact>
</mgrwt>
</event>
<event>
 7    0  0.4712189E-002  0.4527029E+03  0.7546771E-02  0.1026919E+00
         21   -1    0    0  502  501  0.00000000000E+00  0.00000000000E+00  0.32070412980E+03  0.32070412980E+03  0.00000000000E+00 0.  1.
         21   -1    0    0  501  502 -0.00000000000E+00 -0.00000000000E+00 -0.15975776632E+03  0.15975776632E+03  0.00000000000E+00 0.  1.
      99926    2    1    2    0    0  0.00000000000E+00  0.00000000000E+00  0.16094636348E+03  0.48046189611E+03  0.45270288457E+03 0.  0.
      99925    2    3    3    0    0 -0.54994657681E+01 -0.10202689183E+03  0.55548054830E+02  0.28759914090E+03  0.26303602162E+03 0.  0.
         25    1    4    4    0    0  0.70243221641E+00 -0.61300886076E+02  0.68554692841E+02  0.15525960858E+03  0.12509000000E+03 0.  0.
         25    1    3    3    0    0  0.54994657681E+01  0.10202689183E+03  0.10539830865E+03  0.19286275521E+03  0.12509000000E+03 0.  0.
         25    1    4    4    0    0 -0.62018979845E+01 -0.40726005758E+02 -0.13006638011E+02  0.13233953232E+03  0.12509000000E+03 0.  0.
<mgrwt>
<rscale>  2 0.45270288E+03</rscale>
<asrwt>0</asrwt>
<pdfrwt beam="1">  1       21 0.47162372E-01 0.45270288E+03</pdfrwt>
<pdfrwt beam="2">  1       21 0.23493789E-01 0.45270288E+03</pdfrwt>
<totfact> 0.67896100E+04</totfact>
</mgrwt>
</event>
<event>
 7    0  0.4712189E-002  0.4539592E+03  0.7546771E-02  0.1026548E+00
         21   -1    0    0  502  501  0.00000000000E+00  0.00000000000E+00  0.22425618631E+03  0.22425618631E+03  0.00000000000E+00 0. -1.
         21   -1    0    0  501  502 -0.00000000000E+00 -0.00000000000E+00 -0.22973607996E+03  0.22973607996E+03  0.00000000000E+00 0. -1.
      99926    2    1    2    0    0  0.14210854715E-13  0.00000000000E+00 -0.54798936514E+01  0.45399226626E+03  0.45395919265E+03 0.  0.
      99925    2    3    3    0    0 -0.82554464115E+02 -0.74628927509E+02 -0.18034911148E+02  0.28609392520E+03  0.26294440411E+03 0.  0.
         25    1    4    4    0    0 -0.78321992289E+02 -0.22545767446E+02  0.26114515398E+00  0.14929910382E+03  0.12509000000E+03 0.  0.
         25    1    4    4    0    0 -0.42324718266E+01 -0.52083160064E+02 -0.18296056302E+02  0.13679482138E+03  0.12509000000E+03 0.  0.
         25    1    3    3    0    0  0.82554464115E+02  0.74628927509E+02  0.12555017497E+02  0.16789834106E+03  0.12509000000E+03 0.  0.
<mgrwt>
<rscale>  2 0.45395919E+03</rscale>
<asrwt>0</asrwt>
<pdfrwt beam="1">  1       21 0.32978851E-01 0.45395919E+03</pdfrwt>
<pdfrwt beam="2">  1       21 0.33784717E-01 0.45395919E+03</pdfrwt>
<totfact> 0.69192511E+04</totfact>
</mgrwt>
</event>
<event>
 7    0  0.4712189E-002  0.4543541E+03  0.7546771E-02  0.1026432E+00
         21   -1    0    0  502  501  0.00000000000E+00  0.00000000000E+00  0.51483261139E+03  0.51483261139E+03  0.00000000000E+00 0.  1.
         21   -1    0    0  501  502 -0.00000000000E+00 -0.00000000000E+00 -0.10024501296E+03  0.10024501296E+03  0.00000000000E+00 0.  1.
      99926    2    1    2    0    0 -0.14210854715E-13  0.00000000000E+00  0.41458759844E+03  0.61507762435E+03  0.45435405489E+03 0.  0.
      99925    2    3    3    0    0  0.10133507079E+03 -0.48726639873E+02  0.26297382518E+03  0.38863265014E+03  0.26312928764E+03 0.  0.
         25    1    3    3    0    0 -0.10133507079E+03  0.48726639873E+02  0.15161377325E+03  0.22644497421E+03  0.12509000000E+03 0.  0.
         25    1    4    4    0    0  0.23941715277E+02 -0.40315552131E+02  0.88375791294E+02  0.16017595968E+03  0.12509000000E+03 0.  0.
         25    1    4    4    0    0  0.77393355511E+02 -0.84110877420E+01  0.17459803389E+03  0.22845669045E+03  0.12509000000E+03 0.  0.
<mgrwt>
<rscale>  2 0.45435405E+03</rscale>
<asrwt>0</asrwt>
<pdfrwt beam="1">  1       21 0.75710677E-01 0.45435405E+03</pdfrwt>
<pdfrwt beam="2">  1       21 0.14741914E-01 0.45435405E+03</pdfrwt>
<totfact> 0.58055271E+04</totfact>
</mgrwt>
</event>
<event>
 7    0  0.4712189E-002  0.4565673E+03  0.7546771E-02  0.1025782E+00
         21   -1    0    0  502  501  0.00000000000E+00  0.00000000000E+00  0.52570672770E+02  0.52570672770E+02  0.00000000000E+00 0. -1.
         21   -1    0    0  501  502 -0.00000000000E+00 -0.00000000000E+00 -0.99130232214E+03  0.99130232214E+03  0.00000000000E+00 0. -1.
      99926    2    1    2    0    0  0.00000000000E+00 -0.35527136788E-14 -0.93873164937E+03  0.10438729949E+04  0.45656732250E+03 0.  0.
      99925    2    3    3    0    0 -0.63167736562E+02  0.14541021411E+02 -0.37441450726E+03  0.46223483486E+03  0.26319805293E+03 0.  0.
         25    1    4    4    0    0 -0.41700069223E+02  0.46909500486E+02 -0.18630516455E+03  0.23301613559E+03  0.12509000000E+03 0.  0.
         25    1    4    4    0    0 -0.21467667339E+02 -0.32368479076E+02 -0.18810934271E+03  0.22921869926E+03  0.12509000000E+03 0.  0.
         25    1    3    3    0    0  0.63167736562E+02 -0.14541021411E+02 -0.56431714211E+03  0.58163816005E+03  0.12509000000E+03 0.  0.
<mgrwt>
<rscale>  2 0.45656732E+03</rscale>
<asrwt>0</asrwt>
<pdfrwt beam="1">  1       21 0.77309824E-02 0.45656732E+03</pdfrwt>
<pdfrwt beam="2">  1       21 0.14577973E+00 0.45656732E+03</pdfrwt>
<totfact> 0.37047692E+04</totfact>
</mgrwt>
</event>
<event>
 7    0  0.4712189E-002  0.4502350E+03  0.7546771E-02  0.1027652E+00
         21   -1    0    0  502  501  0.00000000000E+00  0.00000000000E+00  0.19563234953E+04  0.19563234953E+04  0.00000000000E+00 0. -1.
         21   -1    0    0  501  502 -0.00000000000E+00 -0.00000000000E+00 -0.25904656726E+02  0.25904656726E+02  0.00000000000E+00 0. -1.
      99926    2    1    2    0    0  0.00000000000E+00  0.35527136788E-14  0.19304188386E+04  0.19822281520E+04  0.45023499905E+03 0.  0.
      99925    2    3    3    0    0 -0.47657030321E+02 -0.21309194104E+02  0.79949981267E+03  0.84321514704E+03  0.26284322216E+03 0.  0.
         25    1    3    3    0    0  0.47657030321E+02  0.21309194104E+02  0.11309190259E+04  0.11390130050E+04  0.12509000000E+03 0.  0.
         25    1    4    4    0    0 -0.34952421735E+02 -0.49416607606E+02  0.39959218182E+03  0.42306629831E+03  0.12509000000E+03 0.  0.
         25    1    4    4    0    0 -0.12704608586E+02  0.28107413502E+02  0.39990763085E+03  0.42014884873E+03  0.12509000000E+03 0.  0.
<mgrwt>
<rscale>  2 0.45023500E+03</rscale>
<asrwt>0</asrwt>
<pdfrwt beam="1">  1       21 0.28769453E+00 0.45023500E+03</pdfrwt>
<pdfrwt beam="2">  1       21 0.38095097E-02 0.45023500E+03</pdfrwt>
<totfact> 0.14532190E+04</totfact>
</mgrwt>
</event>
<event>
 7    0  0.4712189E-002  0.4509788E+03  0.7546771E-02  0.1027431E+00
         21   -1    0    0  502  501  0.00000000000E+00  0.00000000000E+00  0.48852813122E+03  0.48852813122E+03  0.00000000000E+00 0. -1.
         21   -1    0    0  501  502 -0.00000000000E+00 -0.00000000000E+00 -0.10407890055E+03  0.10407890055E+03  0.00000000000E+00 0. -1.
      99926    2    1    2    0    0  0.00000000000E+00 -0.71054273576E-14  0.38444923068E+03  0.59260703177E+03  0.45097880564E+03 0.  0.
      99925    2    3    3    0    0  0.91275080308E+02  0.57717610035E+02  0.26588365570E+03  0.38921635729E+03  0.26293115377E+03 0.  0.
         25    1    4    4    0    0  0.17164537390E+02  0.54606610175E+02  0.14751543793E+03  0.20170477373E+03  0.12509000000E+03 0.  0.
         25    1    4    4    0    0  0.74110542918E+02  0.31109998597E+01  0.11836821776E+03  0.18751158356E+03  0.12509000000E+03 0.  0.
         25    1    3    3    0    0 -0.91275080308E+02 -0.57717610035E+02  0.11856557498E+03  0.20339067448E+03  0.12509000000E+03 0.  0.
<mgrwt>
<rscale>  2 0.45097881E+03</rscale>
<asrwt>0</asrwt>
<pdfrwt beam="1">  1       21 0.71842371E-01 0.45097881E+03</pdfrwt>
<pdfrwt beam="2">  1       21 0.15305721E-01 0.45097881E+03</pdfrwt>
<totfact> 0.61052815E+04</totfact>
</mgrwt>
</event>
<event>
 7    0  0.4712189E-002  0.4542805E+03  0.7546771E-02  0.1026453E+00
         21   -1    0    0  502  501  0.00000000000E+00  0.00000000000E+00  0.65099800888E+03  0.65099800888E+03  0.00000000000E+00 0. -1.
         21   -1    0    0  501  502 -0.00000000000E+00 -0.00000000000E+00 -0.79251678558E+02  0.79251678558E+02  0.00000000000E+00 0. -1.
      99926    2    1    2    0    0  0.00000000000E+00  0.00000000000E+00  0.57174633032E+03  0.73024968744E+03  0.45428046377E+03 0.  0.
      99925    2    3    3    0    0 -0.84231014348E+02  0.55676351002E+02  0.44003423009E+03  0.52242691370E+03  0.26287836857E+03 0.  0.
         25    1    4    4    0    0 -0.22893256339E+02  0.49415675872E+02  0.16536183351E+03  0.21437829715E+03  0.12509000000E+03 0.  0.
         25    1    4    4    0    0 -0.61337758009E+02  0.62606751294E+01  0.27467239658E+03  0.30804861655E+03  0.12509000000E+03 0.  0.
         25    1    3    3    0    0  0.84231014348E+02 -0.55676351002E+02  0.13171210023E+03  0.20782277374E+03  0.12509000000E+03 0.  0.
<mgrwt>
<rscale>  2 0.45428046E+03</rscale>
<asrwt>0</asrwt>
<pdfrwt beam="1">  1       21 0.95734998E-01 0.45428046E+03</pdfrwt>
<pdfrwt beam="2">  1       21 0.11654659E-01 0.45428046E+03</pdfrwt>
<totfact> 0.51582450E+04</totfact>
</mgrwt>
</event>
<event>
 7    0  0.4712189E-002  0.4549071E+03  0.7546771E-02  0.1026269E+00
         21   -1    0    0  502  501  0.00000000000E+00  0.00000000000E+00  0.56517097393E+03  0.56517097393E+03  0.00000000000E+00 0. -1.
         21   -1    0    0  501  502 -0.00000000000E+00 -0.00000000000E+00 -0.91538878739E+02  0.91538878739E+02  0.00000000000E+00 0. -1.
      99926    2    1    2    0    0  0.00000000000E+00  0.00000000000E+00  0.47363209519E+03  0.65670985267E+03  0.45490709930E+03 0.  0.
      99925    2    3    3    0    0 -0.79743216078E+02  0.38728510582E+02  0.19702013099E+03  0.34044957239E+03  0.26311613649E+03 0.  0.
         25    1    4    4    0    0 -0.63085318742E+02 -0.14022645065E+02  0.95963845159E+02  0.17039060917E+03  0.12509000000E+03 0.  0.
         25    1    4    4    0    0 -0.16657897336E+02  0.52751155648E+02  0.10105628583E+03  0.17005896322E+03  0.12509000000E+03 0.  0.
         25    1    3    3    0    0  0.79743216078E+02 -0.38728510582E+02  0.27661196420E+03  0.31626028028E+03  0.12509000000E+03 0.  0.
<mgrwt>
<rscale>  2 0.45490710E+03</rscale>
<asrwt>0</asrwt>
<pdfrwt beam="1">  1       21 0.83113377E-01 0.45490710E+03</pdfrwt>
<pdfrwt beam="2">  1       21 0.13461600E-01 0.45490710E+03</pdfrwt>
<totfact> 0.55357079E+04</totfact>
</mgrwt>
</event>
<event>
 7    0  0.4712189E-002  0.4620443E+03  0.7546771E-02  0.1024190E+00
         21   -1    0    0  502  501  0.00000000000E+00  0.00000000000E+00  0.49459646569E+03  0.49459646569E+03  0.00000000000E+00 0.  1.
         21   -1    0    0  501  502 -0.00000000000E+00 -0.00000000000E+00 -0.10790863275E+03  0.10790863275E+03  0.00000000000E+00 0.  1.
      99926    2    1    2    0    0  0.00000000000E+00 -0.14210854715E-13  0.38668783294E+03  0.60250509844E+03  0.46204427656E+03 0.  0.
      99925    2    3    3    0    0  0.42842501394E+02  0.83812236276E+02  0.33815123814E+03  0.43860488486E+03  0.26299812603E+03 0.  0.
         25    1    4    4    0    0  0.12095463764E+02  0.77871998564E+02  0.15096489741E+03  0.21130134111E+03  0.12509000000E+03 0.  0.
         25    1    4    4    0    0  0.30747037630E+02  0.59402377124E+01  0.18718634073E+03  0.22730354375E+03  0.12509000000E+03 0.  0.
         25    1    3    3    0    0 -0.42842501394E+02 -0.83812236276E+02  0.48536594798E+02  0.16390021358E+03  0.12509000000E+03 0.  0.
<mgrwt>
<rscale>  2 0.46204428E+03</rscale>
<asrwt>0</asrwt>
<pdfrwt beam="1">  1       21 0.72734773E-01 0.46204428E+03</pdfrwt>
<pdfrwt beam="2">  1       21 0.15868917E-01 0.46204428E+03</pdfrwt>
<totfact> 0.55377268E+04</totfact>
</mgrwt>
</event>
<event>
 7    0  0.4712189E-002  0.4573951E+03  0.7546771E-02  0.1025539E+00
         21   -1    0    0  502  501  0.00000000000E+00  0.00000000000E+00  0.36403518264E+03  0.36403518264E+03  0.00000000000E+00 0. -1.
         21   -1    0    0  501  502 -0.00000000000E+00 -0.00000000000E+00 -0.14367450515E+03  0.14367450515E+03  0.00000000000E+00 0. -1.
      99926    2    1    2    0    0  0.00000000000E+00  0.00000000000E+00  0.22036067749E+03  0.50770968779E+03  0.45739512338E+03 0.  0.
      99925    2    3    3    0    0 -0.67927407319E+02  0.92996206509E+02  0.14676639092E+03  0.32243676962E+03  0.26298796514E+03 0.  0.
         25    1    4    4    0    0 -0.10572731343E+02  0.78953271539E+02  0.66703206276E+02  0.16261066251E+03  0.12509000000E+03 0.  0.
         25    1    3    3    0    0  0.67927407319E+02 -0.92996206509E+02  0.73594286575E+02  0.18527291817E+03  0.12509000000E+03 0.  0.
         25    1    4    4    0    0 -0.57354675975E+02  0.14042934970E+02  0.80063184644E+02  0.15982610711E+03  0.12509000000E+03 0.  0.
<mgrwt>
<rscale>  2 0.45739512E+03</rscale>
<asrwt>0</asrwt>
<pdfrwt beam="1">  1       21 0.53534585E-01 0.45739512E+03</pdfrwt>
<pdfrwt beam="2">  1       21 0.21128604E-01 0.45739512E+03</pdfrwt>
<totfact> 0.63516284E+04</totfact>
</mgrwt>
</event>
<event>
 7    0  0.4712189E-002  0.4598277E+03  0.7546771E-02  0.1024831E+00
         21   -1    0    0  502  501  0.00000000000E+00  0.00000000000E+00  0.26496602879E+03  0.26496602879E+03  0.00000000000E+00 0. -1.
         21   -1    0    0  501  502 -0.00000000000E+00 -0.00000000000E+00 -0.19949872331E+03  0.19949872331E+03  0.00000000000E+00 0. -1.
      99926    2    1    2    0    0 -0.71054273576E-14  0.00000000000E+00  0.65467305482E+02  0.46446475211E+03  0.45982772629E+03 0.  0.
      99925    2    3    3    0    0 -0.40794581236E+02 -0.58087118322E+02 -0.53208607388E+02  0.27799815572E+03  0.26346443310E+03 0.  0.
         25    1    4    4    0    0  0.50819066039E+01 -0.53026228314E+02 -0.44614138418E+01  0.13603315396E+03  0.12509000000E+03 0.  0.
         25    1    3    3    0    0  0.40794581236E+02  0.58087118322E+02  0.11867591287E+03  0.18646659639E+03  0.12509000000E+03 0.  0.
         25    1    4    4    0    0 -0.45876487840E+02 -0.50608900087E+01 -0.48747193546E+02  0.14196500175E+03  0.12509000000E+03 0.  0.
<mgrwt>
<rscale>  2 0.45982773E+03</rscale>
<asrwt>0</asrwt>
<pdfrwt beam="1">  1       21 0.38965592E-01 0.45982773E+03</pdfrwt>
<pdfrwt beam="2">  1       21 0.29338048E-01 0.45982773E+03</pdfrwt>
<totfact> 0.65305703E+04</totfact>
</mgrwt>
</event>
<event>
 7    0  0.4712189E-002  0.4588358E+03  0.7546771E-02  0.1025119E+00
         21   -1    0    0  502  501  0.00000000000E+00  0.00000000000E+00  0.81150662483E+03  0.81150662483E+03  0.00000000000E+00 0.  1.
         21   -1    0    0  501  502 -0.00000000000E+00 -0.00000000000E+00 -0.64857834662E+02  0.64857834662E+02  0.00000000000E+00 0.  1.
      99926    2    1    2    0    0  0.00000000000E+00  0.00000000000E+00  0.74664879017E+03  0.87636445950E+03  0.45883575493E+03 0.  0.
      99925    2    3    3    0    0  0.46449902268E+02  0.37777080836E+02  0.65968334265E+03  0.71267206988E+03  0.26293471690E+03 0.  0.
         25    1    3    3    0    0 -0.46449902268E+02 -0.37777080836E+02  0.86965447518E+02  0.16369238962E+03  0.12509000000E+03 0.  0.
         25    1    4    4    0    0  0.28676353246E+02  0.40702610951E+02  0.42910154525E+03  0.44972733963E+03  0.12509000000E+03 0.  0.
         25    1    4    4    0    0  0.17773549023E+02 -0.29255301149E+01  0.23058179740E+03  0.26294473025E+03  0.12509000000E+03 0.  0.
<mgrwt>
<rscale>  2 0.45883575E+03</rscale>
<asrwt>0</asrwt>
<pdfrwt beam="1">  1       21 0.11933920E+00 0.45883575E+03</pdfrwt>
<pdfrwt beam="2">  1       21 0.95379173E-02 0.45883575E+03</pdfrwt>
<totfact> 0.42965965E+04</totfact>
</mgrwt>
</event>
<event>
 7    0  0.4712189E-002  0.4646463E+03  0.7546771E-02  0.1023442E+00
         21   -1    0    0  502  501  0.00000000000E+00  0.00000000000E+00  0.94823094045E+03  0.94823094045E+03  0.00000000000E+00 0. -1.
         21   -1    0    0  501  502 -0.00000000000E+00 -0.00000000000E+00 -0.56920770818E+02  0.56920770818E+02  0.00000000000E+00 0. -1.
      99926    2    1    2    0    0  0.00000000000E+00  0.00000000000E+00  0.89131016963E+03  0.10051517113E+04  0.46464625703E+03 0.  0.
      99925    2    3    3    0    0 -0.56198089554E+02  0.96541078411E+02  0.66231739363E+03  0.72131442575E+03  0.26296723331E+03 0.  0.
         25    1    4    4    0    0 -0.63344283079E+02  0.37257969671E+02  0.38139158718E+03  0.40805355699E+03  0.12509000000E+03 0.  0.
         25    1    4    4    0    0  0.71461935252E+01  0.59283108739E+02  0.28092580645E+03  0.31326086876E+03  0.12509000000E+03 0.  0.
         25    1    3    3    0    0  0.56198089554E+02 -0.96541078411E+02  0.22899277600E+03  0.28383728552E+03  0.12509000000E+03 0.  0.
<mgrwt>
<rscale>  2 0.46464626E+03</rscale>
<asrwt>0</asrwt>
<pdfrwt beam="1">  1       21 0.13944572E+00 0.46464626E+03</pdfrwt>
<pdfrwt beam="2">  1       21 0.83707022E-02 0.46464626E+03</pdfrwt>
<totfact> 0.36164877E+04</totfact>
</mgrwt>
</event>
<event>
 7    0  0.4712189E-002  0.4522162E+03  0.7546771E-02  0.1027063E+00
         21   -1    0    0  502  501  0.00000000000E+00  0.00000000000E+00  0.17223121444E+04  0.17223121444E+04  0.00000000000E+00 0. -1.
         21   -1    0    0  501  502 -0.00000000000E+00 -0.00000000000E+00 -0.29683857771E+02  0.29683857771E+02  0.00000000000E+00 0. -1.
      99926    2    1    2    0    0  0.00000000000E+00  0.00000000000E+00  0.16926282867E+04  0.17519960022E+04  0.45221618163E+03 0.  0.
      99925    2    3    3    0    0  0.57172212482E+02 -0.70866632491E+02  0.13099083244E+04  0.13391851265E+04  0.26318480815E+03 0.  0.
         25    1    4    4    0    0  0.60440992026E+02 -0.62380931240E+02  0.66808166268E+03  0.68521902354E+03  0.12509000000E+03 0.  0.
         25    1    3    3    0    0 -0.57172212482E+02  0.70866632491E+02  0.38271996226E+03  0.41281087569E+03  0.12509000000E+03 0.  0.
         25    1    4    4    0    0 -0.32687795447E+01 -0.84857012509E+01  0.64182666172E+03  0.65396610297E+03  0.12509000000E+03 0.  0.
<mgrwt>
<rscale>  2 0.45221618E+03</rscale>
<asrwt>0</asrwt>
<pdfrwt beam="1">  1       21 0.25328113E+00 0.45221618E+03</pdfrwt>
<pdfrwt beam="2">  1       21 0.43652744E-02 0.45221618E+03</pdfrwt>
<totfact> 0.18599092E+04</totfact>
</mgrwt>
</event>
<event>
 7    0  0.4712189E-002  0.4488978E+03  0.7546771E-02  0.1028051E+00
         21   -1    0    0  502  501  0.00000000000E+00  0.00000000000E+00  0.13838099441E+03  0.13838099441E+03  0.00000000000E+00 0. -1.
         21   -1    0    0  501  502 -0.00000000000E+00 -0.00000000000E+00 -0.36404791155E+03  0.36404791155E+03  0.00000000000E+00 0. -1.
      99926    2    1    2    0    0  0.00000000000E+00  0.00000000000E+00 -0.22566691714E+03  0.50242890596E+03  0.44889781471E+03 0.  0.
      99925    2    3    3    0    0  0.91064724990E+02 -0.56473350235E+02 -0.14522775245E+03  0.31912590342E+03  0.26318856116E+03 0.  0.
         25    1    4    4    0    0  0.87894746578E+02 -0.23683066595E+02 -0.74771297790E+02  0.17182732377E+03  0.12509000000E+03 0.  0.
         25    1    4    4    0    0  0.31699784118E+01 -0.32790283640E+02 -0.70456454662E+02  0.14729857965E+03  0.12509000000E+03 0.  0.
         25    1    3    3    0    0 -0.91064724990E+02  0.56473350235E+02 -0.80439164691E+02  0.18330300254E+03  0.12509000000E+03 0.  0.
<mgrwt>
<rscale>  2 0.44889781E+03</rscale>
<asrwt>0</asrwt>
<pdfrwt beam="1">  1       21 0.20350146E-01 0.44889781E+03</pdfrwt>
<pdfrwt beam="2">  1       21 0.53536458E-01 0.44889781E+03</pdfrwt>
<totfact> 0.68351359E+04</totfact>
</mgrwt>
</event>
<event>
 7    0  0.4712189E-002  0.4570488E+03  0.7546771E-02  0.1025641E+00
         21   -1    0    0  502  501  0.00000000000E+00  0.00000000000E+00  0.70860836027E+02  0.70860836027E+02  0.00000000000E+00 0. -1.
         21   -1    0    0  501  502 -0.00000000000E+00 -0.00000000000E+00 -0.73698531994E+03  0.73698531994E+03  0.00000000000E+00 0. -1.
      99926    2    1    2    0    0  0.00000000000E+00  0.00000000000E+00 -0.66612448391E+03  0.80784615597E+03  0.45704877600E+03 0.  0.
      99925    2    3    3    0    0 -0.54891114810E+02  0.98684575487E+02 -0.37955348075E+03  0.47539747139E+03  0.26304036027E+03 0.  0.
         25    1    4    4    0    0 -0.53200469351E+02  0.29272327647E+02 -0.22741692285E+03  0.26655791866E+03  0.12509000000E+03 0.  0.
         25    1    4    4    0    0 -0.16906454596E+01  0.69412247839E+02 -0.15213655791E+03  0.20883955273E+03  0.12509000000E+03 0.  0.
         25    1    3    3    0    0  0.54891114810E+02 -0.98684575487E+02 -0.28657100316E+03  0.33244868458E+03  0.12509000000E+03 0.  0.
<mgrwt>
<rscale>  2 0.45704878E+03</rscale>
<asrwt>0</asrwt>
<pdfrwt beam="1">  1       21 0.10420711E-01 0.45704878E+03</pdfrwt>
<pdfrwt beam="2">  1       21 0.10838020E+00 0.45704878E+03</pdfrwt>
<totfact> 0.46633359E+04</totfact>
</mgrwt>
</event>
<event>
 7    0  0.4712189E-002  0.4531124E+03  0.7546771E-02  0.1026798E+00
         21   -1    0    0  502  501  0.00000000000E+00  0.00000000000E+00  0.18696181990E+03  0.18696181990E+03  0.00000000000E+00 0. -1.
         21   -1    0    0  501  502 -0.00000000000E+00 -0.00000000000E+00 -0.27453579120E+03  0.27453579120E+03  0.00000000000E+00 0. -1.
      99926    2    1    2    0    0  0.00000000000E+00  0.00000000000E+00 -0.87573971304E+02  0.46149761109E+03  0.45311239731E+03 0.  0.
      99925    2    3    3    0    0 -0.35498270320E+02 -0.87578026698E+02 -0.11427494814E+03  0.30246777672E+03  0.26362464647E+03 0.  0.
         25    1    3    3    0    0  0.35498270320E+02  0.87578026698E+02  0.26700976839E+02  0.15902983437E+03  0.12509000000E+03 0.  0.
         25    1    4    4    0    0 -0.56148789944E+02 -0.52999509547E+02 -0.44003403373E+02  0.15344524181E+03  0.12509000000E+03 0.  0.
         25    1    4    4    0    0  0.20650519623E+02 -0.34578517151E+02 -0.70271544769E+02  0.14902253492E+03  0.12509000000E+03 0.  0.
<mgrwt>
<rscale>  2 0.45311240E+03</rscale>
<asrwt>0</asrwt>
<pdfrwt beam="1">  1       21 0.27494386E-01 0.45311240E+03</pdfrwt>
<pdfrwt beam="2">  1       21 0.40372910E-01 0.45311240E+03</pdfrwt>
<totfact> 0.69102046E+04</totfact>
</mgrwt>
</event>
<event>
 7    0  0.4712189E-002  0.4522346E+03  0.7546771E-02  0.1027058E+00
         21   -1    0    0  502  501  0.00000000000E+00  0.00000000000E+00  0.13013263732E+03  0.13013263732E+03  0.00000000000E+00 0.  1.
         21   -1    0    0  501  502 -0.00000000000E+00 -0.00000000000E+00 -0.39289945358E+03  0.39289945358E+03  0.00000000000E+00 0.  1.
      99926    2    1    2    0    0 -0.88817841970E-15  0.00000000000E+00 -0.26276681627E+03  0.52303209090E+03  0.45223463864E+03 0.  0.
      99925    2    3    3    0    0 -0.65671820906E+01 -0.11008117474E+03 -0.15588277153E+03  0.32495962933E+03  0.26294168426E+03 0.  0.
         25    1    4    4    0    0  0.11176947222E+02 -0.13923669017E+02 -0.69306716106E+02  0.14411704169E+03  0.12509000000E+03 0.  0.
         25    1    4    4    0    0 -0.17744129313E+02 -0.96157505726E+02 -0.86576055426E+02  0.18084258764E+03  0.12509000000E+03 0.  0.
         25    1    3    3    0    0  0.65671820906E+01  0.11008117474E+03 -0.10688404473E+03  0.19807246157E+03  0.12509000000E+03 0.  0.
<mgrwt>
<rscale>  2 0.45223464E+03</rscale>
<asrwt>0</asrwt>
<pdfrwt beam="1">  1       21 0.19137153E-01 0.45223464E+03</pdfrwt>
<pdfrwt beam="2">  1       21 0.57779331E-01 0.45223464E+03</pdfrwt>
<totfact> 0.65096029E+04</totfact>
</mgrwt>
</event>
<event>
 7    0  0.4712189E-002  0.4444704E+03  0.7546771E-02  0.1029384E+00
         21   -1    0    0  502  501  0.00000000000E+00  0.00000000000E+00  0.34172803928E+03  0.34172803928E+03  0.00000000000E+00 0. -1.
         21   -1    0    0  501  502 -0.00000000000E+00 -0.00000000000E+00 -0.14452570191E+03  0.14452570191E+03  0.00000000000E+00 0. -1.
      99926    2    1    2    0    0  0.71054273576E-14  0.71054273576E-14  0.19720233737E+03  0.48625374120E+03  0.44447040280E+03 0.  0.
      99925    2    3    3    0    0 -0.46142232483E+02 -0.58874285374E+02  0.20277079069E+03  0.34039832351E+03  0.26298239103E+03 0.  0.
         25    1    4    4    0    0 -0.11538115587E+02 -0.64043973418E+02  0.82441300149E+02  0.16333656882E+03  0.12509000000E+03 0.  0.
         25    1    3    3    0    0  0.46142232483E+02  0.58874285374E+02 -0.55684533205E+01  0.14585541769E+03  0.12509000000E+03 0.  0.
         25    1    4    4    0    0 -0.34604116896E+02  0.51696880444E+01  0.12032949054E+03  0.17706175469E+03  0.12509000000E+03 0.  0.
<mgrwt>
<rscale>  2 0.44447040E+03</rscale>
<asrwt>0</asrwt>
<pdfrwt beam="1">  1       21 0.50254124E-01 0.44447040E+03</pdfrwt>
<pdfrwt beam="2">  1       21 0.21253780E-01 0.44447040E+03</pdfrwt>
<totfact> 0.72087614E+04</totfact>
</mgrwt>
</event>
<event>
 7    0  0.4712189E-002  0.4517548E+03  0.7546771E-02  0.1027200E+00
         21   -1    0    0  502  501  0.00000000000E+00  0.00000000000E+00  0.11941510870E+04  0.11941510870E+04  0.00000000000E+00 0. -1.
         21   -1    0    0  501  502 -0.00000000000E+00 -0.00000000000E+00 -0.42725422531E+02  0.42725422531E+02  0.00000000000E+00 0. -1.
      99926    2    1    2    0    0 -0.17763568394E-14  0.00000000000E+00  0.11514256645E+04  0.12368765095E+04  0.45175484395E+03 0.  0.
      99925    2    3    3    0    0  0.14416154286E+02  0.10765575478E+03  0.67796999354E+03  0.73527371102E+03  0.26303332666E+03 0.  0.
         25    1    3    3    0    0 -0.14416154286E+02 -0.10765575478E+03  0.47345567094E+03  0.50160279853E+03  0.12509000000E+03 0.  0.
         25    1    4    4    0    0 -0.13400414815E+02  0.84245482896E+02  0.41614299069E+03  0.44283108439E+03  0.12509000000E+03 0.  0.
         25    1    4    4    0    0  0.27816569101E+02  0.23410271880E+02  0.26182700286E+03  0.29244262663E+03  0.12509000000E+03 0.  0.
<mgrwt>
<rscale>  2 0.45175484E+03</rscale>
<asrwt>0</asrwt>
<pdfrwt beam="1">  1       21 0.17561043E+00 0.45175484E+03</pdfrwt>
<pdfrwt beam="2">  1       21 0.62831512E-02 0.45175484E+03</pdfrwt>
<totfact> 0.31800306E+04</totfact>
</mgrwt>
</event>
<event>
 7    0  0.4712189E-002  0.4517015E+03  0.7546771E-02  0.1027216E+00
         21   -1    0    0  502  501  0.00000000000E+00  0.00000000000E+00  0.12537552262E+03  0.12537552262E+03  0.00000000000E+00 0.  1.
         21   -1    0    0  501  502 -0.00000000000E+00 -0.00000000000E+00 -0.40684618771E+03  0.40684618771E+03  0.00000000000E+00 0.  1.
      99926    2    1    2    0    0  0.00000000000E+00  0.00000000000E+00 -0.28147066509E+03  0.53222171034E+03  0.45170146518E+03 0.  0.
      99925    2    3    3    0    0  0.14607892409E+02  0.10682289641E+03 -0.20344611760E+03  0.34957489314E+03  0.26303566570E+03 0.  0.
         25    1    3    3    0    0 -0.14607892409E+02 -0.10682289641E+03 -0.78024547492E+02  0.18264681719E+03  0.12509000000E+03 0.  0.
         25    1    4    4    0    0  0.38201451864E+02  0.39590877294E+02 -0.12709697004E+03  0.18662244341E+03  0.12509000000E+03 0.  0.
         25    1    4    4    0    0 -0.23593559454E+02  0.67232019120E+02 -0.76349147559E+02  0.16295244974E+03  0.12509000000E+03 0.  0.
<mgrwt>
<rscale>  2 0.45170147E+03</rscale>
<asrwt>0</asrwt>
<pdfrwt beam="1">  1       21 0.18437577E-01 0.45170147E+03</pdfrwt>
<pdfrwt beam="2">  1       21 0.59830322E-01 0.45170147E+03</pdfrwt>
<totfact> 0.64730410E+04</totfact>
</mgrwt>
</event>
<event>
 7    0  0.4712189E-002  0.4461223E+03  0.7546771E-02  0.1028885E+00
         21   -1    0    0  502  501  0.00000000000E+00  0.00000000000E+00  0.58475781308E+02  0.58475781308E+02  0.00000000000E+00 0.  1.
         21   -1    0    0  501  502 -0.00000000000E+00 -0.00000000000E+00 -0.85088699695E+03  0.85088699695E+03  0.00000000000E+00 0.  1.
      99926    2    1    2    0    0  0.00000000000E+00  0.00000000000E+00 -0.79241121564E+03  0.90936277826E+03  0.44612232381E+03 0.  0.
      99925    2    3    3    0    0  0.16757391686E+02 -0.44692596758E+02 -0.69241012526E+03  0.74225214258E+03  0.26311256756E+03 0.  0.
         25    1    4    4    0    0  0.42692541041E+02 -0.19582784824E+02 -0.28993352618E+03  0.31924143877E+03  0.12509000000E+03 0.  0.
         25    1    3    3    0    0 -0.16757391686E+02  0.44692596758E+02 -0.10000109038E+03  0.16711063568E+03  0.12509000000E+03 0.  0.
         25    1    4    4    0    0 -0.25935149354E+02 -0.25109811935E+02 -0.40247659908E+03  0.42301070381E+03  0.12509000000E+03 0.  0.
<mgrwt>
<rscale>  2 0.44612232E+03</rscale>
<asrwt>0</asrwt>
<pdfrwt beam="1">  1       21 0.85993799E-02 0.44612232E+03</pdfrwt>
<pdfrwt beam="2">  1       21 0.12513044E+00 0.44612232E+03</pdfrwt>
<totfact> 0.45940379E+04</totfact>
</mgrwt>
</event>
<event>
 7    0  0.4712189E-002  0.4516778E+03  0.7546771E-02  0.1027223E+00
         21   -1    0    0  502  501  0.00000000000E+00  0.00000000000E+00  0.12875942483E+04  0.12875942483E+04  0.00000000000E+00 0.  1.
         21   -1    0    0  501  502 -0.00000000000E+00 -0.00000000000E+00 -0.39611237028E+02  0.39611237028E+02  0.00000000000E+00 0.  1.
      99926    2    1    2    0    0 -0.17763568394E-14  0.00000000000E+00  0.12479830112E+04  0.13272054853E+04  0.45167776551E+03 0.  0.
      99925    2    3    3    0    0 -0.12781736986E+02  0.10568251146E+03  0.87019599234E+03  0.91525560269E+03  0.26290604242E+03 0.  0.
         25    1    4    4    0    0 -0.19137062989E+02  0.65149601340E+02  0.33258618875E+03  0.36176204718E+03  0.12509000000E+03 0.  0.
         25    1    3    3    0    0  0.12781736986E+02 -0.10568251146E+03  0.37778701889E+03  0.41194988259E+03  0.12509000000E+03 0.  0.
         25    1    4    4    0    0  0.63553260027E+01  0.40532910120E+02  0.53760980359E+03  0.55349355551E+03  0.12509000000E+03 0.  0.
<mgrwt>
<rscale>  2 0.45167777E+03</rscale>
<asrwt>0</asrwt>
<pdfrwt beam="1">  1       21 0.18935207E+00 0.45167777E+03</pdfrwt>
<pdfrwt beam="2">  1       21 0.58251828E-02 0.45167777E+03</pdfrwt>
<totfact> 0.29078708E+04</totfact>
</mgrwt>
</event>
<event>
 7    0  0.4712189E-002  0.4565371E+03  0.7546771E-02  0.1025790E+00
         21   -1    0    0  502  501  0.00000000000E+00  0.00000000000E+00  0.15181831736E+03  0.15181831736E+03  0.00000000000E+00 0. -1.
         21   -1    0    0  501  502 -0.00000000000E+00 -0.00000000000E+00 -0.34321636240E+03  0.34321636240E+03  0.00000000000E+00 0. -1.
      99926    2    1    2    0    0  0.35527136788E-14  0.00000000000E+00 -0.19139804504E+03  0.49503467977E+03  0.45653709874E+03 0.  0.
      99925    2    3    3    0    0 -0.31140071706E+02  0.82249167620E+02 -0.19995767365E+03  0.34188310458E+03  0.26299497392E+03 0.  0.
         25    1    4    4    0    0 -0.29643674973E+01  0.38306226371E+02 -0.50889659718E+02  0.14040448718E+03  0.12509000000E+03 0.  0.
         25    1    3    3    0    0  0.31140071706E+02 -0.82249167620E+02  0.85596286065E+01  0.15315157519E+03  0.12509000000E+03 0.  0.
         25    1    4    4    0    0 -0.28175704208E+02  0.43942941249E+02 -0.14906801393E+03  0.20147861740E+03  0.12509000000E+03 0.  0.
<mgrwt>
<rscale>  2 0.45653710E+03</rscale>
<asrwt>0</asrwt>
<pdfrwt beam="1">  1       21 0.22326224E-01 0.45653710E+03</pdfrwt>
<pdfrwt beam="2">  1       21 0.50472993E-01 0.45653710E+03</pdfrwt>
<totfact> 0.64826258E+04</totfact>
</mgrwt>
</event>
<event>
 7    0  0.4712189E-002  0.4452063E+03  0.7546771E-02  0.1029161E+00
         21   -1    0    0  502  501  0.00000000000E+00  0.00000000000E+00  0.32925922309E+04  0.32925922309E+04  0.00000000000E+00 0. -1.
         21   -1    0    0  501  502 -0.00000000000E+00 -0.00000000000E+00 -0.15049588555E+02  0.15049588555E+02  0.00000000000E+00 0. -1.
      99926    2    1    2    0    0  0.00000000000E+00  0.00000000000E+00  0.32775426423E+04  0.33076418194E+04  0.44520628187E+03 0.  0.
      99925    2    3    3    0    0 -0.16082694028E+02 -0.10214056772E+03  0.20178636432E+04  0.20375512567E+04  0.26296405172E+03 0.  0.
         25    1    4    4    0    0  0.11555564021E+02 -0.88535308337E+02  0.10788906300E+04  0.10897818734E+04  0.12509000000E+03 0.  0.
         25    1    3    3    0    0  0.16082694028E+02  0.10214056772E+03  0.12596789992E+04  0.12700905628E+04  0.12509000000E+03 0.  0.
         25    1    4    4    0    0 -0.27638258050E+02 -0.13605259379E+02  0.93897301315E+03  0.94776938330E+03  0.12509000000E+03 0.  0.
<mgrwt>
<rscale>  2 0.44520628E+03</rscale>
<asrwt>0</asrwt>
<pdfrwt beam="1">  1       21 0.48420424E+00 0.44520628E+03</pdfrwt>
<pdfrwt beam="2">  1       21 0.22131771E-02 0.44520628E+03</pdfrwt>
<totfact> 0.20167873E+03</totfact>
</mgrwt>
</event>
<event>
 7    0  0.4712189E-002  0.4512871E+03  0.7546771E-02  0.1027339E+00
         21   -1    0    0  502  501  0.00000000000E+00  0.00000000000E+00  0.19348358664E+04  0.19348358664E+04  0.00000000000E+00 0. -1.
         21   -1    0    0  501  502 -0.00000000000E+00 -0.00000000000E+00 -0.26314903206E+02  0.26314903206E+02  0.00000000000E+00 0. -1.
      99926    2    1    2    0    0 -0.71054273576E-14  0.00000000000E+00  0.19085209632E+04  0.19611507697E+04  0.45128713053E+03 0.  0.
      99925    2    3    3    0    0 -0.55177149396E+02  0.88168818385E+02  0.13563434539E+04  0.13855069837E+04  0.26295204634E+03 0.  0.
         25    1    3    3    0    0  0.55177149396E+02 -0.88168818385E+02  0.55217750937E+03  0.57564378595E+03  0.12509000000E+03 0.  0.
         25    1    4    4    0    0 -0.47680716108E+02  0.66621121137E+02  0.58811155238E+03  0.60682331086E+03  0.12509000000E+03 0.  0.
         25    1    4    4    0    0 -0.74964332881E+01  0.21547697248E+02  0.76823190150E+03  0.77868367284E+03  0.12509000000E+03 0.  0.
<mgrwt>
<rscale>  2 0.45128713E+03</rscale>
<asrwt>0</asrwt>
<pdfrwt beam="1">  1       21 0.28453459E+00 0.45128713E+03</pdfrwt>
<pdfrwt beam="2">  1       21 0.38698400E-02 0.45128713E+03</pdfrwt>
<totfact> 0.14775929E+04</totfact>
</mgrwt>
</event>
<event>
 7    0  0.4712189E-002  0.4609845E+03  0.7546771E-02  0.1024496E+00
         21   -1    0    0  502  501  0.00000000000E+00  0.00000000000E+00  0.37048464525E+02  0.37048464525E+02  0.00000000000E+00 0. -1.
         21   -1    0    0  501  502 -0.00000000000E+00 -0.00000000000E+00 -0.14339779204E+04  0.14339779204E+04  0.00000000000E+00 0. -1.
      99926    2    1    2    0    0  0.00000000000E+00  0.88817841970E-15 -0.13969294558E+04  0.14710263849E+04  0.46098451216E+03 0.  0.
      99925    2    3    3    0    0  0.11836936076E+03  0.45187663643E+01 -0.89565161154E+03  0.94097100089E+03  0.26306442263E+03 0.  0.
         25    1    3    3    0    0 -0.11836936076E+03 -0.45187663643E+01 -0.50127784431E+03  0.53005538400E+03  0.12509000000E+03 0.  0.
         25    1    4    4    0    0  0.48860136657E+02  0.31683118379E+02 -0.35011507296E+03  0.37632327241E+03  0.12509000000E+03 0.  0.
         25    1    4    4    0    0  0.69509224103E+02 -0.27164352014E+02 -0.54553653858E+03  0.56464772848E+03  0.12509000000E+03 0.  0.
<mgrwt>
<rscale>  2 0.46098451E+03</rscale>
<asrwt>0</asrwt>
<pdfrwt beam="1">  1       21 0.54483026E-02 0.46098451E+03</pdfrwt>
<pdfrwt beam="2">  1       21 0.21087915E+00 0.46098451E+03</pdfrwt>
<totfact> 0.23391742E+04</totfact>
</mgrwt>
</event>
<event>
 7    0  0.4712189E-002  0.4522759E+03  0.7546771E-02  0.1027046E+00
         21   -1    0    0  502  501  0.00000000000E+00  0.00000000000E+00  0.52414030897E+03  0.52414030897E+03  0.00000000000E+00 0. -1.
         21   -1    0    0  501  502 -0.00000000000E+00 -0.00000000000E+00 -0.97566184511E+02  0.97566184511E+02  0.00000000000E+00 0. -1.
      99926    2    1    2    0    0  0.35527136788E-14  0.35527136788E-14  0.42657412446E+03  0.62170649348E+03  0.45227588967E+03 0.  0.
      99925    2    3    3    0    0  0.26830403983E+02  0.19811270981E+02  0.41401917109E+03  0.49163923400E+03  0.26303023656E+03 0.  0.
         25    1    4    4    0    0  0.36917705122E+01  0.34823721906E+02  0.15170984951E+03  0.19972407795E+03  0.12509000000E+03 0.  0.
         25    1    4    4    0    0  0.23138633471E+02 -0.15012450925E+02  0.26230932158E+03  0.29191515604E+03  0.12509000000E+03 0.  0.
         25    1    3    3    0    0 -0.26830403983E+02 -0.19811270981E+02  0.12554953376E+02  0.13006725949E+03  0.12509000000E+03 0.  0.
<mgrwt>
<rscale>  2 0.45227589E+03</rscale>
<asrwt>0</asrwt>
<pdfrwt beam="1">  1       21 0.77079456E-01 0.45227589E+03</pdfrwt>
<pdfrwt beam="2">  1       21 0.14347969E-01 0.45227589E+03</pdfrwt>
<totfact> 0.58612264E+04</totfact>
</mgrwt>
</event>
<event>
 7    0  0.4712189E-002  0.4544867E+03  0.7546771E-02  0.1026392E+00
         21   -1    0    0  502  501  0.00000000000E+00  0.00000000000E+00  0.38434063910E+03  0.38434063910E+03  0.00000000000E+00 0.  1.
         21   -1    0    0  501  502 -0.00000000000E+00 -0.00000000000E+00 -0.13435877575E+03  0.13435877575E+03  0.00000000000E+00 0.  1.
      99926    2    1    2    0    0  0.00000000000E+00  0.00000000000E+00  0.24998186334E+03  0.51869941485E+03  0.45448668954E+03 0.  0.
      99925    2    3    3    0    0 -0.82412959637E+02 -0.64576427373E+02  0.20490299237E+03  0.34946105160E+03  0.26301288831E+03 0.  0.
         25    1    3    3    0    0  0.82412959637E+02  0.64576427373E+02  0.45078870972E+02  0.16923836325E+03  0.12509000000E+03 0.  0.
         25    1    4    4    0    0 -0.73611419541E+02 -0.80789562910E+01  0.99040647022E+02  0.17589902923E+03  0.12509000000E+03 0.  0.
         25    1    4    4    0    0 -0.88015400959E+01 -0.56497471082E+02  0.10586234535E+03  0.17356202237E+03  0.12509000000E+03 0.  0.
<mgrwt>
<rscale>  2 0.45448669E+03</rscale>
<asrwt>0</asrwt>
<pdfrwt beam="1">  1       21 0.56520682E-01 0.45448669E+03</pdfrwt>
<pdfrwt beam="2">  1       21 0.19758644E-01 0.45448669E+03</pdfrwt>
<totfact> 0.64237184E+04</totfact>
</mgrwt>
</event>
<event>
 7    0  0.4712189E-002  0.4578794E+03  0.7546771E-02  0.1025398E+00
         21   -1    0    0  502  501  0.00000000000E+00  0.00000000000E+00  0.22587380153E+02  0.22587380153E+02  0.00000000000E+00 0.  1.
         21   -1    0    0  501  502 -0.00000000000E+00 -0.00000000000E+00 -0.23204719885E+04  0.23204719885E+04  0.00000000000E+00 0.  1.
      99926    2    1    2    0    0  0.00000000000E+00  0.00000000000E+00 -0.22978846084E+04  0.23430593687E+04  0.45787938560E+03 0.  0.
      99925    2    3    3    0    0  0.48620853311E+02 -0.52530078515E+02 -0.19083648780E+04  0.19277323589E+04  0.26300597675E+03 0.  0.
         25    1    3    3    0    0 -0.48620853311E+02  0.52530078515E+02 -0.38951973044E+03  0.41532700975E+03  0.12509000000E+03 0.  0.
         25    1    4    4    0    0  0.23912764006E+01 -0.37050521927E+02 -0.71195993385E+03  0.72381828858E+03  0.12509000000E+03 0.  0.
         25    1    4    4    0    0  0.46229576910E+02 -0.15479556588E+02 -0.11964049441E+04  0.12039140704E+04  0.12509000000E+03 0.  0.
<mgrwt>
<rscale>  2 0.45787939E+03</rscale>
<asrwt>0</asrwt>
<pdfrwt beam="1">  1       21 0.33216721E-02 0.45787939E+03</pdfrwt>
<pdfrwt beam="2">  1       21 0.34124603E+00 0.45787939E+03</pdfrwt>
<totfact> 0.86781184E+03</totfact>
</mgrwt>
</event>
<event>
 7    0  0.4712189E-002  0.4567445E+03  0.7546771E-02  0.1025730E+00
         21   -1    0    0  502  501  0.00000000000E+00  0.00000000000E+00  0.27473750250E+03  0.27473750250E+03  0.00000000000E+00 0.  1.
         21   -1    0    0  501  502 -0.00000000000E+00 -0.00000000000E+00 -0.18983170010E+03  0.18983170010E+03  0.00000000000E+00 0.  1.
      99926    2    1    2    0    0  0.00000000000E+00  0.00000000000E+00  0.84905802404E+02  0.46456920260E+03  0.45674451143E+03 0.  0.
      99925    2    3    3    0    0  0.45808234491E+02  0.44807584572E+02  0.15019650938E+03  0.30959662923E+03  0.26303035455E+03 0.  0.
         25    1    4    4    0    0  0.55824555747E+02  0.11587677378E+01  0.63823352861E+02  0.15112462485E+03  0.12509000000E+03 0.  0.
         25    1    4    4    0    0 -0.10016321256E+02  0.43648816834E+02  0.86373156517E+02  0.15847200437E+03  0.12509000000E+03 0.  0.
         25    1    3    3    0    0 -0.45808234491E+02 -0.44807584572E+02 -0.65290706974E+02  0.15497257338E+03  0.12509000000E+03 0.  0.
<mgrwt>
<rscale>  2 0.45674451E+03</rscale>
<asrwt>0</asrwt>
<pdfrwt beam="1">  1       21 0.40402574E-01 0.45674451E+03</pdfrwt>
<pdfrwt beam="2">  1       21 0.27916426E-01 0.45674451E+03</pdfrwt>
<totfact> 0.66909443E+04</totfact>
</mgrwt>
</event>
<event>
 7    0  0.4712189E-002  0.4619000E+03  0.7546771E-02  0.1024232E+00
         21   -1    0    0  502  501  0.00000000000E+00  0.00000000000E+00  0.14273653646E+03  0.14273653646E+03  0.00000000000E+00 0. -1.
         21   -1    0    0  501  502 -0.00000000000E+00 -0.00000000000E+00 -0.37368086504E+03  0.37368086504E+03  0.00000000000E+00 0. -1.
      99926    2    1    2    0    0  0.00000000000E+00  0.00000000000E+00 -0.23094432859E+03  0.51641740150E+03  0.46190004294E+03 0.  0.
      99925    2    3    3    0    0  0.93958392936E+02  0.55819745081E+02 -0.90276627051E+02  0.29875037621E+03  0.26297888575E+03 0.  0.
         25    1    4    4    0    0  0.44351873056E+02  0.65125103012E+02 -0.29268148956E+02  0.15070666982E+03  0.12509000000E+03 0.  0.
         25    1    3    3    0    0 -0.93958392936E+02 -0.55819745081E+02 -0.14066770154E+03  0.21766702529E+03  0.12509000000E+03 0.  0.
         25    1    4    4    0    0  0.49606519880E+02 -0.93053579314E+01 -0.61008478095E+02  0.14804370639E+03  0.12509000000E+03 0.  0.
<mgrwt>
<rscale>  2 0.46190004E+03</rscale>
<asrwt>0</asrwt>
<pdfrwt beam="1">  1       21 0.20990668E-01 0.46190004E+03</pdfrwt>
<pdfrwt beam="2">  1       21 0.54953067E-01 0.46190004E+03</pdfrwt>
<totfact> 0.60737465E+04</totfact>
</mgrwt>
</event>
<event>
 7    0  0.4712189E-002  0.4611858E+03  0.7546771E-02  0.1024438E+00
         21   -1    0    0  502  501  0.00000000000E+00  0.00000000000E+00  0.39123879497E+03  0.39123879497E+03  0.00000000000E+00 0. -1.
         21   -1    0    0  501  502 -0.00000000000E+00 -0.00000000000E+00 -0.13590954311E+03  0.13590954311E+03  0.00000000000E+00 0. -1.
      99926    2    1    2    0    0  0.00000000000E+00  0.00000000000E+00  0.25532925186E+03  0.52714833809E+03  0.46118580149E+03 0.  0.
      99925    2    3    3    0    0  0.10534827325E+03  0.25069520017E+02  0.21576619409E+03  0.35703225081E+03  0.26304037351E+03 0.  0.
         25    1    4    4    0    0  0.82382101588E+02 -0.13615910400E+02  0.13032069477E+03  0.19900551566E+03  0.12509000000E+03 0.  0.
         25    1    4    4    0    0  0.22966171664E+02  0.38685430417E+02  0.85445499317E+02  0.15802673515E+03  0.12509000000E+03 0.  0.
         25    1    3    3    0    0 -0.10534827325E+03 -0.25069520017E+02  0.39563057774E+02  0.17011608728E+03  0.12509000000E+03 0.  0.
<mgrwt>
<rscale>  2 0.46118580E+03</rscale>
<asrwt>0</asrwt>
<pdfrwt beam="1">  1       21 0.57535117E-01 0.46118580E+03</pdfrwt>
<pdfrwt beam="2">  1       21 0.19986698E-01 0.46118580E+03</pdfrwt>
<totfact> 0.60384033E+04</totfact>
</mgrwt>
</event>
<event>
 7    0  0.4712189E-002  0.4571555E+03  0.7546771E-02  0.1025609E+00
         21   -1    0    0  502  501  0.00000000000E+00  0.00000000000E+00  0.62965896937E+03  0.62965896937E+03  0.00000000000E+00 0. -1.
         21   -1    0    0  501  502 -0.00000000000E+00 -0.00000000000E+00 -0.82977900172E+02  0.82977900172E+02  0.00000000000E+00 0. -1.
      99926    2    1    2    0    0  0.35527136788E-14  0.00000000000E+00  0.54668106920E+03  0.71263686954E+03  0.45715546197E+03 0.  0.
      99925    2    3    3    0    0  0.26521640231E+02 -0.18415485737E+02  0.51552553412E+03  0.57974329189E+03  0.26323597901E+03 0.  0.
         25    1    4    4    0    0  0.52833606161E+02 -0.11477744724E+02  0.28986338900E+03  0.32029895558E+03  0.12509000000E+03 0.  0.
         25    1    4    4    0    0 -0.26311965930E+02 -0.69377410139E+01  0.22566214512E+03  0.25944433631E+03  0.12509000000E+03 0.  0.
         25    1    3    3    0    0 -0.26521640231E+02  0.18415485737E+02  0.31155535077E+02  0.13289357765E+03  0.12509000000E+03 0.  0.
<mgrwt>
<rscale>  2 0.45715546E+03</rscale>
<asrwt>0</asrwt>
<pdfrwt beam="1">  1       21 0.92596905E-01 0.45715546E+03</pdfrwt>
<pdfrwt beam="2">  1       21 0.12202633E-01 0.45715546E+03</pdfrwt>
<totfact> 0.51345995E+04</totfact>
</mgrwt>
</event>
<event>
 7    0  0.4712189E-002  0.4599695E+03  0.7546771E-02  0.1024790E+00
         21   -1    0    0  502  501  0.00000000000E+00  0.00000000000E+00  0.29797461008E+03  0.29797461008E+03  0.00000000000E+00 0. -1.
         21   -1    0    0  501  502 -0.00000000000E+00 -0.00000000000E+00 -0.17750833672E+03  0.17750833672E+03  0.00000000000E+00 0. -1.
      99926    2    1    2    0    0  0.00000000000E+00  0.00000000000E+00  0.12046627336E+03  0.47548294680E+03  0.45996946603E+03 0.  0.
      99925    2    3    3    0    0  0.96249713435E+02  0.66982764995E+02  0.64016668518E+02  0.29497044272E+03  0.26298047473E+03 0.  0.
         25    1    4    4    0    0  0.74953757939E+02  0.37965331793E+02  0.66669666979E+02  0.16477798652E+03  0.12509000000E+03 0.  0.
         25    1    3    3    0    0 -0.96249713435E+02 -0.66982764995E+02  0.56449604846E+02  0.18051250408E+03  0.12509000000E+03 0.  0.
         25    1    4    4    0    0  0.21295955496E+02  0.29017433201E+02 -0.26529984611E+01  0.13019245620E+03  0.12509000000E+03 0.  0.
<mgrwt>
<rscale>  2 0.45996947E+03</rscale>
<asrwt>0</asrwt>
<pdfrwt beam="1">  1       21 0.43819796E-01 0.45996947E+03</pdfrwt>
<pdfrwt beam="2">  1       21 0.26104167E-01 0.45996947E+03</pdfrwt>
<totfact> 0.64451331E+04</totfact>
</mgrwt>
</event>
<event>
 7    0  0.4712189E-002  0.4543596E+03  0.7546771E-02  0.1026430E+00
         21   -1    0    0  502  501  0.00000000000E+00  0.00000000000E+00  0.46531445386E+03  0.46531445386E+03  0.00000000000E+00 0.  1.
         21   -1    0    0  501  502 -0.00000000000E+00 -0.00000000000E+00 -0.11091564035E+03  0.11091564035E+03  0.00000000000E+00 0.  1.
      99926    2    1    2    0    0  0.00000000000E+00  0.00000000000E+00  0.35439881350E+03  0.57623009421E+03  0.45435955197E+03 0.  0.
      99925    2    3    3    0    0 -0.73639331962E+02  0.84831203331E+02  0.21336276740E+03  0.35678133329E+03  0.26296418958E+03 0.  0.
         25    1    4    4    0    0 -0.53781751066E+02  0.81039663344E+02  0.10534629788E+03  0.19027678355E+03  0.12509000000E+03 0.  0.
         25    1    4    4    0    0 -0.19857580896E+02  0.37915399871E+01  0.10801646952E+03  0.16650454974E+03  0.12509000000E+03 0.  0.
         25    1    3    3    0    0  0.73639331962E+02 -0.84831203331E+02  0.14103604610E+03  0.21944876092E+03  0.12509000000E+03 0.  0.
<mgrwt>
<rscale>  2 0.45435955E+03</rscale>
<asrwt>0</asrwt>
<pdfrwt beam="1">  1       21 0.68428595E-01 0.45435955E+03</pdfrwt>
<pdfrwt beam="2">  1       21 0.16311124E-01 0.45435955E+03</pdfrwt>
<totfact> 0.60471381E+04</totfact>
</mgrwt>
</event>
<event>
 7    0  0.4712189E-002  0.4700087E+03  0.7546771E-02  0.1021918E+00
         21   -1    0    0  502  501  0.00000000000E+00  0.00000000000E+00  0.18710824455E+04  0.18710824455E+04  0.00000000000E+00 0.  1.
         21   -1    0    0  501  502 -0.00000000000E+00 -0.00000000000E+00 -0.29516096303E+02  0.29516096303E+02  0.00000000000E+00 0.  1.
      99926    2    1    2    0    0  0.14210854715E-13  0.00000000000E+00  0.18415663492E+04  0.19005985418E+04  0.47000872184E+03 0.  0.
      99925    2    3    3    0    0 -0.73201941043E+02 -0.68740244080E+02  0.83074689514E+03  0.87713030970E+03  0.26293236977E+03 0.  0.
         25    1    3    3    0    0  0.73201941043E+02  0.68740244080E+02  0.10108194540E+04  0.10234682321E+04  0.12509000000E+03 0.  0.
         25    1    4    4    0    0 -0.14134274988E+02  0.16475547848E+01  0.39378705760E+03  0.41342260098E+03  0.12509000000E+03 0.  0.
         25    1    4    4    0    0 -0.59067666054E+02 -0.70387798865E+02  0.43695983755E+03  0.46370770872E+03  0.12509000000E+03 0.  0.
<mgrwt>
<rscale>  2 0.47000872E+03</rscale>
<asrwt>0</asrwt>
<pdfrwt beam="1">  1       21 0.27515910E+00 0.47000872E+03</pdfrwt>
<pdfrwt beam="2">  1       21 0.43406037E-02 0.47000872E+03</pdfrwt>
<totfact> 0.13730741E+04</totfact>
</mgrwt>
</event>
<event>
 7    0  0.4712189E-002  0.4068455E+03  0.7546771E-02  0.1041435E+00
         21   -1    0    0  502  501  0.00000000000E+00  0.00000000000E+00  0.21663468373E+03  0.21663468373E+03  0.00000000000E+00 0.  1.
         21   -1    0    0  501  502 -0.00000000000E+00 -0.00000000000E+00 -0.19101658995E+03  0.19101658995E+03  0.00000000000E+00 0.  1.
      99926    2    1    2    0    0  0.00000000000E+00 -0.44408920985E-15  0.25618093786E+02  0.40765127368E+03  0.40684551639E+03 0.  0.
      99925    2    3    3    0    0 -0.29430725199E+02 -0.36252662143E+01 -0.32310566686E+02  0.26664578462E+03  0.26301462240E+03 0.  0.
         25    1    3    3    0    0  0.29430725199E+02  0.36252662143E+01  0.57928660472E+02  0.14100548906E+03  0.12509000000E+03 0.  0.
         25    1    4    4    0    0 -0.55206571226E+02 -0.70092838142E+01 -0.17740358850E+02  0.13805478622E+03  0.12509000000E+03 0.  0.
         25    1    4    4    0    0  0.25775846027E+02  0.33840175999E+01 -0.14570207836E+02  0.12859099840E+03  0.12509000000E+03 0.  0.
<mgrwt>
<rscale>  2 0.40684552E+03</rscale>
<asrwt>0</asrwt>
<pdfrwt beam="1">  1       21 0.31858042E-01 0.40684552E+03</pdfrwt>
<pdfrwt beam="2">  1       21 0.28090675E-01 0.40684552E+03</pdfrwt>
<totfact> 0.10810063E+05</totfact>
</mgrwt>
</event>
<event>
 7    0  0.4712189E-002  0.4520289E+03  0.7546771E-02  0.1027119E+00
         21   -1    0    0  502  501  0.00000000000E+00  0.00000000000E+00  0.99032052073E+02  0.99032052073E+02  0.00000000000E+00 0. -1.
         21   -1    0    0  501  502 -0.00000000000E+00 -0.00000000000E+00 -0.51581816765E+03  0.51581816765E+03  0.00000000000E+00 0. -1.
      99926    2    1    2    0    0 -0.26645352591E-14  0.00000000000E+00 -0.41678611557E+03  0.61485021972E+03  0.45202890013E+03 0.  0.
      99925    2    3    3    0    0  0.66765197861E+01 -0.43933800464E+02 -0.12560450118E+03  0.29483616471E+03  0.26301543408E+03 0.  0.
         25    1    3    3    0    0 -0.66765197861E+01  0.43933800464E+02 -0.29118161440E+03  0.32001405501E+03  0.12509000000E+03 0.  0.
         25    1    4    4    0    0  0.38128549757E+02 -0.15414167984E+02 -0.40777711274E+02  0.13784670006E+03  0.12509000000E+03 0.  0.
         25    1    4    4    0    0 -0.31452029970E+02 -0.28519632480E+02 -0.84826789902E+02  0.15698946465E+03  0.12509000000E+03 0.  0.
<mgrwt>
<rscale>  2 0.45202890E+03</rscale>
<asrwt>0</asrwt>
<pdfrwt beam="1">  1       21 0.14563537E-01 0.45202890E+03</pdfrwt>
<pdfrwt beam="2">  1       21 0.75855612E-01 0.45202890E+03</pdfrwt>
<totfact> 0.59149129E+04</totfact>
</mgrwt>
</event>
<event>
 7    0  0.4712189E-002  0.4592109E+03  0.7546771E-02  0.1025010E+00
         21   -1    0    0  502  501  0.00000000000E+00  0.00000000000E+00  0.37949641089E+02  0.37949641089E+02  0.00000000000E+00 0.  1.
         21   -1    0    0  501  502 -0.00000000000E+00 -0.00000000000E+00 -0.13891744530E+04  0.13891744530E+04  0.00000000000E+00 0.  1.
      99926    2    1    2    0    0  0.00000000000E+00  0.00000000000E+00 -0.13512248119E+04  0.14271240940E+04  0.45921094020E+03 0.  0.
      99925    2    3    3    0    0 -0.12689922042E+02 -0.11592624862E+03 -0.81375193522E+03  0.86309880164E+03  0.26295893231E+03 0.  0.
         25    1    3    3    0    0  0.12689922042E+02  0.11592624862E+03 -0.53747287665E+03  0.56402529241E+03  0.12509000000E+03 0.  0.
         25    1    4    4    0    0 -0.10908486553E+02 -0.17519925374E+02 -0.40801305246E+03  0.42725648262E+03  0.12509000000E+03 0.  0.
         25    1    4    4    0    0 -0.17814354891E+01 -0.98406323243E+02 -0.40573888276E+03  0.43584231902E+03  0.12509000000E+03 0.  0.
<mgrwt>
<rscale>  2 0.45921094E+03</rscale>
<asrwt>0</asrwt>
<pdfrwt beam="1">  1       21 0.55808296E-02 0.45921094E+03</pdfrwt>
<pdfrwt beam="2">  1       21 0.20429036E+00 0.45921094E+03</pdfrwt>
<totfact> 0.24796766E+04</totfact>
</mgrwt>
</event>
<event>
 7    0  0.4712189E-002  0.4451542E+03  0.7546771E-02  0.1029177E+00
         21   -1    0    0  502  501  0.00000000000E+00  0.00000000000E+00  0.83924975073E+03  0.83924975073E+03  0.00000000000E+00 0.  1.
         21   -1    0    0  501  502 -0.00000000000E+00 -0.00000000000E+00 -0.59029593146E+02  0.59029593146E+02  0.00000000000E+00 0.  1.
      99926    2    1    2    0    0  0.71054273576E-14 -0.14210854715E-13  0.78022015759E+03  0.89827934388E+03  0.44515422646E+03 0.  0.
      99925    2    3    3    0    0 -0.35955786052E+02  0.95163288723E+02  0.45563673789E+03  0.53585586987E+03  0.26303575097E+03 0.  0.
         25    1    4    4    0    0  0.16078298967E+02  0.25042395893E+02  0.22970325769E+03  0.26324271687E+03  0.12509000000E+03 0.  0.
         25    1    3    3    0    0  0.35955786052E+02 -0.95163288723E+02  0.32458341969E+03  0.36242347401E+03  0.12509000000E+03 0.  0.
         25    1    4    4    0    0 -0.52034085018E+02  0.70120892830E+02  0.22593348020E+03  0.27261315300E+03  0.12509000000E+03 0.  0.
<mgrwt>
<rscale>  2 0.44515423E+03</rscale>
<asrwt>0</asrwt>
<pdfrwt beam="1">  1       21 0.12341907E+00 0.44515423E+03</pdfrwt>
<pdfrwt beam="2">  1       21 0.86808230E-02 0.44515423E+03</pdfrwt>
<totfact> 0.46812765E+04</totfact>
</mgrwt>
</event>
<event>
 7    0  0.4712189E-002  0.4686037E+03  0.7546771E-02  0.1022315E+00
         21   -1    0    0  502  501  0.00000000000E+00  0.00000000000E+00  0.19009551713E+03  0.19009551713E+03  0.00000000000E+00 0. -1.
         21   -1    0    0  501  502 -0.00000000000E+00 -0.00000000000E+00 -0.28878822101E+03  0.28878822101E+03  0.00000000000E+00 0. -1.
      99926    2    1    2    0    0  0.14210854715E-13  0.00000000000E+00 -0.98692703875E+02  0.47888373813E+03  0.46860365433E+03 0.  0.
      99925    2    3    3    0    0 -0.80238270955E+02  0.45418967440E+02 -0.14837860381E+03  0.31573577008E+03  0.26300533019E+03 0.  0.
         25    1    4    4    0    0 -0.38432091993E+02  0.13623142792E+02 -0.28340706085E+02  0.13458573266E+03  0.12509000000E+03 0.  0.
         25    1    4    4    0    0 -0.41806178962E+02  0.31795824649E+02 -0.12003789773E+03  0.18115003741E+03  0.12509000000E+03 0.  0.
         25    1    3    3    0    0  0.80238270955E+02 -0.45418967440E+02  0.49685899938E+02  0.16314796806E+03  0.12509000000E+03 0.  0.
<mgrwt>
<rscale>  2 0.46860365E+03</rscale>
<asrwt>0</asrwt>
<pdfrwt beam="1">  1       21 0.27955223E-01 0.46860365E+03</pdfrwt>
<pdfrwt beam="2">  1       21 0.42468856E-01 0.46860365E+03</pdfrwt>
<totfact> 0.60032815E+04</totfact>
</mgrwt>
</event>
<event>
 7    0  0.4712189E-002  0.4566112E+03  0.7546771E-02  0.1025769E+00
         21   -1    0    0  502  501  0.00000000000E+00  0.00000000000E+00  0.23368028478E+03  0.23368028478E+03  0.00000000000E+00 0. -1.
         21   -1    0    0  501  502 -0.00000000000E+00 -0.00000000000E+00 -0.22305448606E+03  0.22305448606E+03  0.00000000000E+00 0. -1.
      99926    2    1    2    0    0  0.71054273576E-14  0.00000000000E+00  0.10625798713E+02  0.45673477084E+03  0.45661115109E+03 0.  0.
      99925    2    3    3    0    0  0.53777635898E+02  0.62088427645E+02 -0.73280823575E+02  0.28516893411E+03  0.26306697798E+03 0.  0.
         25    1    4    4    0    0  0.13006431108E+02  0.66936555665E+02 -0.23382470619E+02  0.14437422819E+03  0.12509000000E+03 0.  0.
         25    1    4    4    0    0  0.40771204790E+02 -0.48481280202E+01 -0.49898352956E+02  0.14079470591E+03  0.12509000000E+03 0.  0.
         25    1    3    3    0    0 -0.53777635898E+02 -0.62088427645E+02  0.83906622288E+02  0.17156583673E+03  0.12509000000E+03 0.  0.
<mgrwt>
<rscale>  2 0.45661115E+03</rscale>
<asrwt>0</asrwt>
<pdfrwt beam="1">  1       21 0.34364748E-01 0.45661115E+03</pdfrwt>
<pdfrwt beam="2">  1       21 0.32802130E-01 0.45661115E+03</pdfrwt>
<totfact> 0.67546384E+04</totfact>
</mgrwt>
</event>
<event>
 7    0  0.4712189E-002  0.3923003E+03  0.7546771E-02  0.1046479E+00
         21   -1    0    0  502  501  0.00000000000E+00  0.00000000000E+00  0.23111768585E+03  0.23111768585E+03  0.00000000000E+00 0.  1.
         21   -1    0    0  501  502 -0.00000000000E+00 -0.00000000000E+00 -0.16647313733E+03  0.16647313733E+03  0.00000000000E+00 0.  1.
      99926    2    1    2    0    0  0.00000000000E+00  0.00000000000E+00  0.64644548519E+02  0.39759082318E+03  0.39230032503E+03 0.  0.
      99925    2    3    3    0    0  0.42058247644E+01 -0.25541902890E+02  0.39746852422E+02  0.26744674480E+03  0.26320689820E+03 0.  0.
         25    1    3    3    0    0 -0.42058247644E+01  0.25541902890E+02  0.24897696097E+02  0.13014407838E+03  0.12509000000E+03 0.  0.
         25    1    4    4    0    0  0.39669858412E+01  0.60321362496E+01 -0.17108645027E+02  0.12646081401E+03  0.12509000000E+03 0.  0.
         25    1    4    4    0    0  0.23883892317E+00 -0.31574039140E+02  0.56855497450E+02  0.14098593079E+03  0.12509000000E+03 0.  0.
<mgrwt>
<rscale>  2 0.39230033E+03</rscale>
<asrwt>0</asrwt>
<pdfrwt beam="1">  1       21 0.33987895E-01 0.39230033E+03</pdfrwt>
<pdfrwt beam="2">  1       21 0.24481344E-01 0.39230033E+03</pdfrwt>
<totfact> 0.12454244E+05</totfact>
</mgrwt>
</event>
<event>
 7    0  0.4712189E-002  0.4556989E+03  0.7546771E-02  0.1026036E+00
         21   -1    0    0  502  501  0.00000000000E+00  0.00000000000E+00  0.38757915523E+03  0.38757915523E+03  0.00000000000E+00 0. -1.
         21   -1    0    0  501  502 -0.00000000000E+00 -0.00000000000E+00 -0.13394779425E+03  0.13394779425E+03  0.00000000000E+00 0. -1.
      99926    2    1    2    0    0  0.00000000000E+00  0.00000000000E+00  0.25363136098E+03  0.52152694949E+03  0.45569890472E+03 0.  0.
      99925    2    3    3    0    0 -0.40344481331E+02  0.10628202430E+03  0.15217329052E+03  0.32438539115E+03  0.26295555856E+03 0.  0.
         25    1    4    4    0    0 -0.16964408717E+02  0.67768402556E+02  0.35769538347E+02  0.14767300201E+03  0.12509000000E+03 0.  0.
         25    1    4    4    0    0 -0.23380072614E+02  0.38513621743E+02  0.11640375217E+03  0.17671238914E+03  0.12509000000E+03 0.  0.
         25    1    3    3    0    0  0.40344481331E+02 -0.10628202430E+03  0.10145807046E+03  0.19714155834E+03  0.12509000000E+03 0.  0.
<mgrwt>
<rscale>  2 0.45569890E+03</rscale>
<asrwt>0</asrwt>
<pdfrwt beam="1">  1       21 0.56996934E-01 0.45569890E+03</pdfrwt>
<pdfrwt beam="2">  1       21 0.19698205E-01 0.45569890E+03</pdfrwt>
<totfact> 0.63430902E+04</totfact>
</mgrwt>
</event>
<event>
 6    0  0.6226724E-002  0.4343997E+03  0.7546771E-02  0.1032479E+00
         21   -1    0    0  502  501  0.00000000000E+00  0.00000000000E+00  0.13071923650E+03  0.13071923650E+03  0.00000000000E+00 0.  1.
         21   -1    0    0  501  502 -0.00000000000E+00 -0.00000000000E+00 -0.36089395773E+03  0.36089395773E+03  0.00000000000E+00 0.  1.
      99926    2    1    2    0    0  0.71054273576E-14  0.35527136788E-14 -0.23017472123E+03  0.49161319423E+03  0.43439973578E+03 0.  0.
         25    1    3    3    0    0 -0.60956408346E+02  0.39179412459E+01 -0.65205834711E+02  0.15372164116E+03  0.12509000000E+03 0.  0.
         25    1    3    3    0    0  0.12081977913E+02 -0.34791484747E+02 -0.15080402151E+03  0.19936344350E+03  0.12509000000E+03 0.  0.
         25    1    3    3    0    0  0.48874430434E+02  0.30873543501E+02 -0.14164865008E+02  0.13852810956E+03  0.12509000000E+03 0.  0.
<mgrwt>
<rscale>  2 0.43439974E+03</rscale>
<asrwt>0</asrwt>
<pdfrwt beam="1">  1       21 0.19223417E-01 0.43439974E+03</pdfrwt>
<pdfrwt beam="2">  1       21 0.53072641E-01 0.43439974E+03</pdfrwt>
<totfact> 0.77833036E+04</totfact>
</mgrwt>
</event>
<event>
 7    0  0.4712189E-002  0.4538862E+03  0.7546771E-02  0.1026569E+00
         21   -1    0    0  502  501  0.00000000000E+00  0.00000000000E+00  0.72689997643E+02  0.72689997643E+02  0.00000000000E+00 0.  1.
         21   -1    0    0  501  502 -0.00000000000E+00 -0.00000000000E+00 -0.70853161601E+03  0.70853161601E+03  0.00000000000E+00 0.  1.
      99926    2    1    2    0    0  0.00000000000E+00  0.00000000000E+00 -0.63584161836E+03  0.78122161365E+03  0.45388615973E+03 0.  0.
      99925    2    3    3    0    0 -0.94187918085E+01 -0.10579965239E+03 -0.46177190783E+03  0.54199357953E+03  0.26313773067E+03 0.  0.
         25    1    4    4    0    0 -0.85574829064E+01 -0.16965493330E+02 -0.16520157055E+03  0.20808682200E+03  0.12509000000E+03 0.  0.
         25    1    4    4    0    0 -0.86130890210E+00 -0.88834159059E+02 -0.29657033728E+03  0.33390675753E+03  0.12509000000E+03 0.  0.
         25    1    3    3    0    0  0.94187918085E+01  0.10579965239E+03 -0.17406971053E+03  0.23922803412E+03  0.12509000000E+03 0.  0.
<mgrwt>
<rscale>  2 0.45388616E+03</rscale>
<asrwt>0</asrwt>
<pdfrwt beam="1">  1       21 0.10689705E-01 0.45388616E+03</pdfrwt>
<pdfrwt beam="2">  1       21 0.10419583E+00 0.45388616E+03</pdfrwt>
<totfact> 0.49114534E+04</totfact>
</mgrwt>
</event>
<event>
 7    0  0.4712189E-002  0.4596491E+03  0.7546771E-02  0.1024883E+00
         21   -1    0    0  502  501  0.00000000000E+00  0.00000000000E+00  0.34233331813E+02  0.34233331813E+02  0.00000000000E+00 0.  1.
         21   -1    0    0  501  502 -0.00000000000E+00 -0.00000000000E+00 -0.15429208436E+04  0.15429208436E+04  0.00000000000E+00 0.  1.
      99926    2    1    2    0    0  0.00000000000E+00  0.00000000000E+00 -0.15086875118E+04  0.15771541754E+04  0.45964908876E+03 0.  0.
      99925    2    3    3    0    0 -0.49301977437E+02 -0.96250746217E+02 -0.78441950120E+03  0.83425004271E+03  0.26261052677E+03 0.  0.
         25    1    3    3    0    0  0.49301977437E+02  0.96250746217E+02 -0.72426801055E+03  0.74290413267E+03  0.12509000000E+03 0.  0.
         25    1    4    4    0    0 -0.78400638044E+01 -0.85568310819E+02 -0.42540227769E+03  0.45166138686E+03  0.12509000000E+03 0.  0.
         25    1    4    4    0    0 -0.41461913633E+02 -0.10682435399E+02 -0.35901722350E+03  0.38258865584E+03  0.12509000000E+03 0.  0.
<mgrwt>
<rscale>  2 0.45964909E+03</rscale>
<asrwt>0</asrwt>
<pdfrwt beam="1">  1       21 0.50343148E-02 0.45964909E+03</pdfrwt>
<pdfrwt beam="2">  1       21 0.22690006E+00 0.45964909E+03</pdfrwt>
<totfact> 0.21175066E+04</totfact>
</mgrwt>
</event>
<event>
 7    0  0.4712189E-002  0.4430851E+03  0.7546771E-02  0.1029804E+00
         21   -1    0    0  502  501  0.00000000000E+00  0.00000000000E+00  0.53359967892E+02  0.53359967892E+02  0.00000000000E+00 0.  1.
         21   -1    0    0  501  502 -0.00000000000E+00 -0.00000000000E+00 -0.91981145137E+03  0.91981145137E+03  0.00000000000E+00 0.  1.
      99926    2    1    2    0    0  0.00000000000E+00  0.00000000000E+00 -0.86645148348E+03  0.97317141926E+03  0.44308513634E+03 0.  0.
      99925    2    3    3    0    0  0.47345289940E+02  0.60011065317E+02 -0.69888914652E+03  0.75053371063E+03  0.26270117476E+03 0.  0.
         25    1    3    3    0    0 -0.47345289940E+02 -0.60011065317E+02 -0.16756233695E+03  0.22263770863E+03  0.12509000000E+03 0.  0.
         25    1    4    4    0    0  0.22068308761E+02  0.70170626404E+02 -0.39291986419E+03  0.41886090154E+03  0.12509000000E+03 0.  0.
         25    1    4    4    0    0  0.25276981178E+02 -0.10159561087E+02 -0.30596928233E+03  0.33167280909E+03  0.12509000000E+03 0.  0.
<mgrwt>
<rscale>  2 0.44308514E+03</rscale>
<asrwt>0</asrwt>
<pdfrwt beam="1">  1       21 0.78470542E-02 0.44308514E+03</pdfrwt>
<pdfrwt beam="2">  1       21 0.13526639E+00 0.44308514E+03</pdfrwt>
<totfact> 0.44191302E+04</totfact>
</mgrwt>
</event>
<event>
 7    0  0.4712189E-002  0.4524536E+03  0.7546771E-02  0.1026993E+00
         21   -1    0    0  502  501  0.00000000000E+00  0.00000000000E+00  0.34036701423E+03  0.34036701423E+03  0.00000000000E+00 0. -1.
         21   -1    0    0  501  502 -0.00000000000E+00 -0.00000000000E+00 -0.15036287159E+03  0.15036287159E+03  0.00000000000E+00 0. -1.
      99926    2    1    2    0    0  0.00000000000E+00  0.17763568394E-14  0.19000414263E+03  0.49072988582E+03  0.45245358504E+03 0.  0.
      99925    2    3    3    0    0  0.57487146209E+02 -0.15288497879E+02  0.18277661971E+02  0.27010349935E+03  0.26283705463E+03 0.  0.
         25    1    4    4    0    0 -0.41819524253E+01 -0.29429437429E+01 -0.15291039097E+02  0.12612483348E+03  0.12509000000E+03 0.  0.
         25    1    4    4    0    0  0.61669098634E+02 -0.12345554136E+02  0.33568701068E+02  0.14397866587E+03  0.12509000000E+03 0.  0.
         25    1    3    3    0    0 -0.57487146209E+02  0.15288497879E+02  0.17172648066E+03  0.22062638647E+03  0.12509000000E+03 0.  0.
<mgrwt>
<rscale>  2 0.45245359E+03</rscale>
<asrwt>0</asrwt>
<pdfrwt beam="1">  1       21 0.50053973E-01 0.45245359E+03</pdfrwt>
<pdfrwt beam="2">  1       21 0.22112187E-01 0.45245359E+03</pdfrwt>
<totfact> 0.67276702E+04</totfact>
</mgrwt>
</event>
<event>
 7    0  0.4712189E-002  0.4466428E+03  0.7546771E-02  0.1028728E+00
         21   -1    0    0  502  501  0.00000000000E+00  0.00000000000E+00  0.83287394578E+02  0.83287394578E+02  0.00000000000E+00 0.  1.
         21   -1    0    0  501  502 -0.00000000000E+00 -0.00000000000E+00 -0.59879951588E+03  0.59879951588E+03  0.00000000000E+00 0.  1.
      99926    2    1    2    0    0 -0.71054273576E-14  0.14210854715E-13 -0.51551212130E+03  0.68208691046E+03  0.44664281726E+03 0.  0.
      99925    2    3    3    0    0  0.57762289316E+02 -0.82201802571E+02 -0.27987540016E+03  0.39701535652E+03  0.26305386385E+03 0.  0.
         25    1    4    4    0    0  0.19282283758E+02 -0.76757633636E+02 -0.12159289818E+03  0.19156169183E+03  0.12509000000E+03 0.  0.
         25    1    3    3    0    0 -0.57762289316E+02  0.82201802571E+02 -0.23563672114E+03  0.28507155394E+03  0.12509000000E+03 0.  0.
         25    1    4    4    0    0  0.38480005558E+02 -0.54441689354E+01 -0.15828250198E+03  0.20545366469E+03  0.12509000000E+03 0.  0.
<mgrwt>
<rscale>  2 0.44664282E+03</rscale>
<asrwt>0</asrwt>
<pdfrwt beam="1">  1       21 0.12248147E-01 0.44664282E+03</pdfrwt>
<pdfrwt beam="2">  1       21 0.88058750E-01 0.44664282E+03</pdfrwt>
<totfact> 0.57583169E+04</totfact>
</mgrwt>
</event>
<event>
 7    0  0.4712189E-002  0.4569000E+03  0.7546771E-02  0.1025684E+00
         21   -1    0    0  502  501  0.00000000000E+00  0.00000000000E+00  0.89277132083E+03  0.89277132083E+03  0.00000000000E+00 0.  1.
         21   -1    0    0  501  502 -0.00000000000E+00 -0.00000000000E+00 -0.58457760585E+02  0.58457760585E+02  0.00000000000E+00 0.  1.
      99926    2    1    2    0    0  0.00000000000E+00  0.00000000000E+00  0.83431356025E+03  0.95122908142E+03  0.45690004215E+03 0.  0.
      99925    2    3    3    0    0 -0.73295958226E+02  0.77990046676E+02  0.61115303582E+03  0.67391540950E+03  0.26305741025E+03 0.  0.
         25    1    4    4    0    0 -0.29026002978E+02 -0.23794352748E+01  0.29527642583E+03  0.32199976135E+03  0.12509000000E+03 0.  0.
         25    1    3    3    0    0  0.73295958226E+02 -0.77990046676E+02  0.22316052442E+03  0.27731367192E+03  0.12509000000E+03 0.  0.
         25    1    4    4    0    0 -0.44269955247E+02  0.80369481950E+02  0.31587660999E+03  0.35191564814E+03  0.12509000000E+03 0.  0.
<mgrwt>
<rscale>  2 0.45690004E+03</rscale>
<asrwt>0</asrwt>
<pdfrwt beam="1">  1       21 0.13128989E+00 0.45690004E+03</pdfrwt>
<pdfrwt beam="2">  1       21 0.85967301E-02 0.45690004E+03</pdfrwt>
<totfact> 0.40486193E+04</totfact>
</mgrwt>
</event>
<event>
 7    0  0.4712189E-002  0.4657897E+03  0.7546771E-02  0.1023115E+00
         21   -1    0    0  502  501  0.00000000000E+00  0.00000000000E+00  0.32478647618E+02  0.32478647618E+02  0.00000000000E+00 0. -1.
         21   -1    0    0  501  502 -0.00000000000E+00 -0.00000000000E+00 -0.16700203856E+04  0.16700203856E+04  0.00000000000E+00 0. -1.
      99926    2    1    2    0    0  0.00000000000E+00  0.00000000000E+00 -0.16375417380E+04  0.17024990332E+04  0.46578966763E+03 0.  0.
      99925    2    3    3    0    0  0.77711491498E+02  0.38775381693E+02 -0.13392153773E+04  0.13675531694E+04  0.26298524310E+03 0.  0.
         25    1    4    4    0    0  0.26649201159E+02  0.16418028433E+02 -0.84225950091E+03  0.85207294674E+03  0.12509000000E+03 0.  0.
         25    1    4    4    0    0  0.51062290339E+02  0.22357353260E+02 -0.49695587641E+03  0.51548022264E+03  0.12509000000E+03 0.  0.
         25    1    3    3    0    0 -0.77711491498E+02 -0.38775381693E+02 -0.29832636064E+03  0.33494586382E+03  0.12509000000E+03 0.  0.
<mgrwt>
<rscale>  2 0.46578967E+03</rscale>
<asrwt>0</asrwt>
<pdfrwt beam="1">  1       21 0.47762708E-02 0.46578967E+03</pdfrwt>
<pdfrwt beam="2">  1       21 0.24559128E+00 0.46578967E+03</pdfrwt>
<totfact> 0.17681509E+04</totfact>
</mgrwt>
</event>
<event>
 7    0  0.4712189E-002  0.4265446E+03  0.7546771E-02  0.1034957E+00
         21   -1    0    0  502  501  0.00000000000E+00  0.00000000000E+00  0.43002758143E+03  0.43002758143E+03  0.00000000000E+00 0. -1.
         21   -1    0    0  501  502 -0.00000000000E+00 -0.00000000000E+00 -0.10577247193E+03  0.10577247193E+03  0.00000000000E+00 0. -1.
      99926    2    1    2    0    0 -0.71054273576E-14  0.00000000000E+00  0.32425510949E+03  0.53580005336E+03  0.42654462972E+03 0.  0.
      99925    2    3    3    0    0 -0.60576617518E+02  0.24436415128E+02  0.14396879977E+03  0.30685174796E+03  0.26299109289E+03 0.  0.
         25    1    4    4    0    0 -0.36924901167E+02  0.44084531252E+02  0.10210703042E+03  0.17140667427E+03  0.12509000000E+03 0.  0.
         25    1    3    3    0    0  0.60576617518E+02 -0.24436415128E+02  0.18028630972E+03  0.22894830540E+03  0.12509000000E+03 0.  0.
         25    1    4    4    0    0 -0.23651716350E+02 -0.19648116124E+02  0.41861769353E+02  0.13544507369E+03  0.12509000000E+03 0.  0.
<mgrwt>
<rscale>  2 0.42654463E+03</rscale>
<asrwt>0</asrwt>
<pdfrwt beam="1">  1       21 0.63239350E-01 0.42654463E+03</pdfrwt>
<pdfrwt beam="2">  1       21 0.15554775E-01 0.42654463E+03</pdfrwt>
<totfact> 0.79200912E+04</totfact>
</mgrwt>
</event>
<event>
 7    0  0.4712189E-002  0.4499857E+03  0.7546771E-02  0.1027726E+00
         21   -1    0    0  502  501  0.00000000000E+00  0.00000000000E+00  0.42758832274E+02  0.42758832274E+02  0.00000000000E+00 0.  1.
         21   -1    0    0  501  502 -0.00000000000E+00 -0.00000000000E+00 -0.11838905509E+04  0.11838905509E+04  0.00000000000E+00 0.  1.
      99926    2    1    2    0    0  0.00000000000E+00 -0.22204460493E-14 -0.11411317187E+04  0.12266493832E+04  0.44998567755E+03 0.  0.
      99925    2    3    3    0    0 -0.97015639966E+02 -0.28733635172E+01 -0.59262092106E+03  0.65574493078E+03  0.26340381082E+03 0.  0.
         25    1    3    3    0    0  0.97015639966E+02  0.28733635172E+01 -0.54851079761E+03  0.57090445244E+03  0.12509000000E+03 0.  0.
         25    1    4    4    0    0 -0.36302745456E+02 -0.27277674745E+02 -0.35791815491E+03  0.38185713897E+03  0.12509000000E+03 0.  0.
         25    1    4    4    0    0 -0.60712894511E+02  0.24404311228E+02 -0.23470276614E+03  0.27388779181E+03  0.12509000000E+03 0.  0.
<mgrwt>
<rscale>  2 0.44998568E+03</rscale>
<asrwt>0</asrwt>
<pdfrwt beam="1">  1       21 0.62880636E-02 0.44998568E+03</pdfrwt>
<pdfrwt beam="2">  1       21 0.17410155E+00 0.44998568E+03</pdfrwt>
<totfact> 0.32574879E+04</totfact>
</mgrwt>
</event>
<event>
 7    0  0.4712189E-002  0.4481312E+03  0.7546771E-02  0.1028281E+00
         21   -1    0    0  502  501  0.00000000000E+00  0.00000000000E+00  0.34035810840E+03  0.34035810840E+03  0.00000000000E+00 0. -1.
         21   -1    0    0  501  502 -0.00000000000E+00 -0.00000000000E+00 -0.14750754475E+03  0.14750754475E+03  0.00000000000E+00 0. -1.
      99926    2    1    2    0    0 -0.14210854715E-13  0.00000000000E+00  0.19285056365E+03  0.48786565315E+03  0.44813118127E+03 0.  0.
      99925    2    3    3    0    0 -0.88195491990E+02  0.32420079359E+02  0.17688197967E+03  0.33060151188E+03  0.26302208762E+03 0.  0.
         25    1    4    4    0    0 -0.31927820504E+01  0.16670145858E+02  0.66305488664E+02  0.14259036976E+03  0.12509000000E+03 0.  0.
         25    1    3    3    0    0  0.88195491990E+02 -0.32420079359E+02  0.15968583982E+02  0.15726414126E+03  0.12509000000E+03 0.  0.
         25    1    4    4    0    0 -0.85002709940E+02  0.15749933502E+02  0.11057649100E+03  0.18801114213E+03  0.12509000000E+03 0.  0.
<mgrwt>
<rscale>  2 0.44813118E+03</rscale>
<asrwt>0</asrwt>
<pdfrwt beam="1">  1       21 0.50052663E-01 0.44813118E+03</pdfrwt>
<pdfrwt beam="2">  1       21 0.21692286E-01 0.44813118E+03</pdfrwt>
<totfact> 0.69864480E+04</totfact>
</mgrwt>
</event>
<event>
 7    0  0.4712189E-002  0.4663650E+03  0.7546771E-02  0.1022951E+00
         21   -1    0    0  502  501  0.00000000000E+00  0.00000000000E+00  0.30081017574E+02  0.30081017574E+02  0.00000000000E+00 0.  1.
         21   -1    0    0  501  502 -0.00000000000E+00 -0.00000000000E+00 -0.18075874005E+04  0.18075874005E+04  0.00000000000E+00 0.  1.
      99926    2    1    2    0    0  0.00000000000E+00 -0.71054273576E-14 -0.17775063829E+04  0.18376684181E+04  0.46636495735E+03 0.  0.
      99925    2    3    3    0    0  0.59255784467E+02  0.45272076048E+02 -0.72061695434E+03  0.77079280151E+03  0.26319562898E+03 0.  0.
         25    1    3    3    0    0 -0.59255784467E+02 -0.45272076048E+02 -0.10568894286E+04  0.10668756166E+04  0.12509000000E+03 0.  0.
         25    1    4    4    0    0  0.55604237277E+02  0.40392280511E+02 -0.30551194635E+03  0.33720679855E+03  0.12509000000E+03 0.  0.
         25    1    4    4    0    0  0.36515471894E+01  0.48797955370E+01 -0.41510500800E+03  0.43358600296E+03  0.12509000000E+03 0.  0.
<mgrwt>
<rscale>  2 0.46636496E+03</rscale>
<asrwt>0</asrwt>
<pdfrwt beam="1">  1       21 0.44236796E-02 0.46636496E+03</pdfrwt>
<pdfrwt beam="2">  1       21 0.26582164E+00 0.46636496E+03</pdfrwt>
<totfact> 0.15163952E+04</totfact>
</mgrwt>
</event>
<event>
 7    0  0.4712189E-002  0.4319555E+03  0.7546771E-02  0.1033244E+00
         21   -1    0    0  502  501  0.00000000000E+00  0.00000000000E+00  0.86316604481E+02  0.86316604481E+02  0.00000000000E+00 0. -1.
         21   -1    0    0  501  502 -0.00000000000E+00 -0.00000000000E+00 -0.54041041438E+03  0.54041041438E+03  0.00000000000E+00 0. -1.
      99926    2    1    2    0    0  0.00000000000E+00 -0.35527136788E-14 -0.45409380990E+03  0.62672701886E+03  0.43195551621E+03 0.  0.
      99925    2    3    3    0    0  0.35836472289E+02 -0.28172414950E+02 -0.40392773791E+03  0.48445235285E+03  0.26354985679E+03 0.  0.
         25    1    4    4    0    0 -0.12414297773E+02 -0.20561343232E+02 -0.14670694515E+03  0.19428669404E+03  0.12509000000E+03 0.  0.
         25    1    4    4    0    0  0.48250770062E+02 -0.76110717179E+01 -0.25722079276E+03  0.29016565881E+03  0.12509000000E+03 0.  0.
         25    1    3    3    0    0 -0.35836472289E+02  0.28172414950E+02 -0.50166071985E+02  0.14227466601E+03  0.12509000000E+03 0.  0.
<mgrwt>
<rscale>  2 0.43195552E+03</rscale>
<asrwt>0</asrwt>
<pdfrwt beam="1">  1       21 0.12693618E-01 0.43195552E+03</pdfrwt>
<pdfrwt beam="2">  1       21 0.79472120E-01 0.43195552E+03</pdfrwt>
<totfact> 0.68737334E+04</totfact>
</mgrwt>
</event>
<event>
 7    0  0.4712189E-002  0.4553493E+03  0.7546771E-02  0.1026139E+00
         21   -1    0    0  502  501  0.00000000000E+00  0.00000000000E+00  0.17548524120E+04  0.17548524120E+04  0.00000000000E+00 0.  1.
         21   -1    0    0  501  502 -0.00000000000E+00 -0.00000000000E+00 -0.29538519855E+02  0.29538519855E+02  0.00000000000E+00 0.  1.
      99926    2    1    2    0    0 -0.26645352591E-14 -0.71054273576E-14  0.17253138922E+04  0.17843909319E+04  0.45534928490E+03 0.  0.
      99925    2    3    3    0    0 -0.68561618650E+01 -0.48304716075E+02  0.68487108060E+03  0.73532034093E+03  0.26318672875E+03 0.  0.
         25    1    4    4    0    0  0.36348701992E+02 -0.17184087487E+02  0.31844322982E+03  0.34448529681E+03  0.12509000000E+03 0.  0.
         25    1    3    3    0    0  0.68561618650E+01  0.48304716075E+02  0.10404428116E+04  0.10490705909E+04  0.12509000000E+03 0.  0.
         25    1    4    4    0    0 -0.43204863857E+02 -0.31120628588E+02  0.36642785078E+03  0.39083504412E+03  0.12509000000E+03 0.  0.
<mgrwt>
<rscale>  2 0.45534928E+03</rscale>
<asrwt>0</asrwt>
<pdfrwt beam="1">  1       21 0.25806646E+00 0.45534928E+03</pdfrwt>
<pdfrwt beam="2">  1       21 0.43439012E-02 0.45534928E+03</pdfrwt>
<totfact> 0.17513770E+04</totfact>
</mgrwt>
</event>
<event>
 7    0  0.4712189E-002  0.4489967E+03  0.7546771E-02  0.1028022E+00
         21   -1    0    0  502  501  0.00000000000E+00  0.00000000000E+00  0.27422270750E+04  0.27422270750E+04  0.00000000000E+00 0. -1.
         21   -1    0    0  501  502 -0.00000000000E+00 -0.00000000000E+00 -0.18379044191E+02  0.18379044191E+02  0.00000000000E+00 0. -1.
      99926    2    1    2    0    0  0.88817841970E-15  0.00000000000E+00  0.27238480309E+04  0.27606061192E+04  0.44899671533E+03 0.  0.
      99925    2    3    3    0    0  0.59891388399E+01 -0.10513544658E+03  0.15899826813E+04  0.16150113082E+04  0.26292064786E+03 0.  0.
         25    1    3    3    0    0 -0.59891388399E+01  0.10513544658E+03  0.11338653496E+04  0.11455948110E+04  0.12509000000E+03 0.  0.
         25    1    4    4    0    0  0.40193051664E+02 -0.45888200556E+02  0.86789043971E+03  0.87897811792E+03  0.12509000000E+03 0.  0.
         25    1    4    4    0    0 -0.34203912824E+02 -0.59247246020E+02  0.72209224155E+03  0.73603319030E+03  0.12509000000E+03 0.  0.
<mgrwt>
<rscale>  2 0.44899672E+03</rscale>
<asrwt>0</asrwt>
<pdfrwt beam="1">  1       21 0.40326841E+00 0.44899672E+03</pdfrwt>
<pdfrwt beam="2">  1       21 0.27028025E-02 0.44899672E+03</pdfrwt>
<totfact> 0.50477310E+03</totfact>
</mgrwt>
</event>
<event>
 7    0  0.4712189E-002  0.4553907E+03  0.7546771E-02  0.1026127E+00
         21   -1    0    0  502  501  0.00000000000E+00  0.00000000000E+00  0.10958931800E+04  0.10958931800E+04  0.00000000000E+00 0.  1.
         21   -1    0    0  501  502 -0.00000000000E+00 -0.00000000000E+00 -0.47308597788E+02  0.47308597788E+02  0.00000000000E+00 0.  1.
      99926    2    1    2    0    0  0.00000000000E+00  0.00000000000E+00  0.10485845822E+04  0.11432017778E+04  0.45539068797E+03 0.  0.
      99925    2    3    3    0    0 -0.86608930000E+02 -0.20496049088E+02  0.48233767714E+03  0.55651254115E+03  0.26293607376E+03 0.  0.
         25    1    4    4    0    0 -0.78550156919E+02 -0.30083783491E+02  0.23778919218E+03  0.28154283723E+03  0.12509000000E+03 0.  0.
         25    1    3    3    0    0  0.86608930000E+02  0.20496049088E+02  0.56624690510E+03  0.58668923666E+03  0.12509000000E+03 0.  0.
         25    1    4    4    0    0 -0.80587730806E+01  0.95877344034E+01  0.24454848496E+03  0.27496970392E+03  0.12509000000E+03 0.  0.
<mgrwt>
<rscale>  2 0.45539069E+03</rscale>
<asrwt>0</asrwt>
<pdfrwt beam="1">  1       21 0.16116075E+00 0.45539069E+03</pdfrwt>
<pdfrwt beam="2">  1       21 0.69571474E-02 0.45539069E+03</pdfrwt>
<totfact> 0.33906793E+04</totfact>
</mgrwt>
</event>
<event>
 7    0  0.4712189E-002  0.4496874E+03  0.7546771E-02  0.1027815E+00
         21   -1    0    0  502  501  0.00000000000E+00  0.00000000000E+00  0.10174440239E+03  0.10174440239E+03  0.00000000000E+00 0. -1.
         21   -1    0    0  501  502 -0.00000000000E+00 -0.00000000000E+00 -0.49687933301E+03  0.49687933301E+03  0.00000000000E+00 0. -1.
      99926    2    1    2    0    0  0.00000000000E+00  0.00000000000E+00 -0.39513493062E+03  0.59862373541E+03  0.44968740609E+03 0.  0.
      99925    2    3    3    0    0  0.43723959590E+02 -0.32774833017E+02 -0.12567172409E+03  0.29655767956E+03  0.26299638923E+03 0.  0.
         25    1    4    4    0    0  0.16420775164E+02  0.22893096670E+01 -0.10079036488E+03  0.16149640414E+03  0.12509000000E+03 0.  0.
         25    1    4    4    0    0  0.27303184426E+02 -0.35064142684E+02 -0.24881359202E+02  0.13506127542E+03  0.12509000000E+03 0.  0.
         25    1    3    3    0    0 -0.43723959590E+02  0.32774833017E+02 -0.26946320653E+03  0.30206605585E+03  0.12509000000E+03 0.  0.
<mgrwt>
<rscale>  2 0.44968741E+03</rscale>
<asrwt>0</asrwt>
<pdfrwt beam="1">  1       21 0.14962412E-01 0.44968741E+03</pdfrwt>
<pdfrwt beam="2">  1       21 0.73070491E-01 0.44968741E+03</pdfrwt>
<totfact> 0.61295825E+04</totfact>
</mgrwt>
</event>
<event>
 7    0  0.4712189E-002  0.4538957E+03  0.7546771E-02  0.1026567E+00
         21   -1    0    0  502  501  0.00000000000E+00  0.00000000000E+00  0.47800842850E+03  0.47800842850E+03  0.00000000000E+00 0.  1.
         21   -1    0    0  501  502 -0.00000000000E+00 -0.00000000000E+00 -0.10774981593E+03  0.10774981593E+03  0.00000000000E+00 0.  1.
      99926    2    1    2    0    0 -0.14210854715E-13  0.00000000000E+00  0.37025861257E+03  0.58575824443E+03  0.45389567164E+03 0.  0.
      99925    2    3    3    0    0  0.11050427733E+03  0.18307650374E+02  0.22572443787E+03  0.36420915026E+03  0.26296467047E+03 0.  0.
         25    1    4    4    0    0  0.78429894286E+02  0.15591734856E+02  0.77066356204E+02  0.16727546704E+03  0.12509000000E+03 0.  0.
         25    1    3    3    0    0 -0.11050427733E+03 -0.18307650374E+02  0.14453417470E+03  0.22154909417E+03  0.12509000000E+03 0.  0.
         25    1    4    4    0    0  0.32074383042E+02  0.27159155175E+01  0.14865808167E+03  0.19693368323E+03  0.12509000000E+03 0.  0.
<mgrwt>
<rscale>  2 0.45389567E+03</rscale>
<asrwt>0</asrwt>
<pdfrwt beam="1">  1       21 0.70295356E-01 0.45389567E+03</pdfrwt>
<pdfrwt beam="2">  1       21 0.15845561E-01 0.45389567E+03</pdfrwt>
<totfact> 0.60086342E+04</totfact>
</mgrwt>
</event>
<event>
 7    0  0.4712189E-002  0.4008204E+03  0.7546771E-02  0.1043496E+00
         21   -1    0    0  502  501  0.00000000000E+00  0.00000000000E+00  0.47061774728E+02  0.47061774728E+02  0.00000000000E+00 0. -1.
         21   -1    0    0  501  502 -0.00000000000E+00 -0.00000000000E+00 -0.85343670567E+03  0.85343670567E+03  0.00000000000E+00 0. -1.
      99926    2    1    2    0    0 -0.44408920985E-14 -0.71054273576E-14 -0.80637493094E+03  0.90049848040E+03  0.40082038864E+03 0.  0.
      99925    2    3    3    0    0  0.66183128969E+01  0.40393632695E+02 -0.48376429638E+03  0.55207262421E+03  0.26283234261E+03 0.  0.
         25    1    4    4    0    0  0.39286819551E+02  0.35978201162E+02 -0.26756815757E+03  0.30013015876E+03  0.12509000000E+03 0.  0.
         25    1    4    4    0    0 -0.32668506654E+02  0.44154315330E+01 -0.21619613881E+03  0.25194246545E+03  0.12509000000E+03 0.  0.
         25    1    3    3    0    0 -0.66183128969E+01 -0.40393632695E+02 -0.32261063456E+03  0.34842585618E+03  0.12509000000E+03 0.  0.
<mgrwt>
<rscale>  2 0.40082039E+03</rscale>
<asrwt>0</asrwt>
<pdfrwt beam="1">  1       21 0.69208497E-02 0.40082039E+03</pdfrwt>
<pdfrwt beam="2">  1       21 0.12550539E+00 0.40082039E+03</pdfrwt>
<totfact> 0.67658719E+04</totfact>
</mgrwt>
</event>
<event>
 7    0  0.4712189E-002  0.4388141E+03  0.7546771E-02  0.1031111E+00
         21   -1    0    0  502  501  0.00000000000E+00  0.00000000000E+00  0.66719693710E+03  0.66719693710E+03  0.00000000000E+00 0. -1.
         21   -1    0    0  501  502 -0.00000000000E+00 -0.00000000000E+00 -0.72151788900E+02  0.72151788900E+02  0.00000000000E+00 0. -1.
      99926    2    1    2    0    0  0.00000000000E+00  0.00000000000E+00  0.59504514820E+03  0.73934872600E+03  0.43881409531E+03 0.  0.
      99925    2    3    3    0    0  0.59625832055E+02 -0.71958401728E+02  0.42739019125E+03  0.51024406844E+03  0.26258976060E+03 0.  0.
         25    1    4    4    0    0 -0.78281995105E+01 -0.30025387585E+02  0.17119777683E+03  0.21428717063E+03  0.12509000000E+03 0.  0.
         25    1    3    3    0    0 -0.59625832055E+02  0.71958401728E+02  0.16765495695E+03  0.22910465756E+03  0.12509000000E+03 0.  0.
         25    1    4    4    0    0  0.67454031566E+02 -0.41933014143E+02  0.25619241443E+03  0.29595689781E+03  0.12509000000E+03 0.  0.
<mgrwt>
<rscale>  2 0.43881410E+03</rscale>
<asrwt>0</asrwt>
<pdfrwt beam="1">  1       21 0.98117193E-01 0.43881410E+03</pdfrwt>
<pdfrwt beam="2">  1       21 0.10610558E-01 0.43881410E+03</pdfrwt>
<totfact> 0.57833269E+04</totfact>
</mgrwt>
</event>
<event>
 7    0  0.4712189E-002  0.4539079E+03  0.7546771E-02  0.1026563E+00
         21   -1    0    0  502  501  0.00000000000E+00  0.00000000000E+00  0.75753176343E+02  0.75753176343E+02  0.00000000000E+00 0.  1.
         21   -1    0    0  501  502 -0.00000000000E+00 -0.00000000000E+00 -0.67994622247E+03  0.67994622247E+03  0.00000000000E+00 0.  1.
      99926    2    1    2    0    0 -0.35527136788E-14  0.00000000000E+00 -0.60419304613E+03  0.75569939882E+03  0.45390785891E+03 0.  0.
      99925    2    3    3    0    0  0.18736216642E+02 -0.14290255698E+02 -0.56307517461E+03  0.62193301784E+03  0.26304328387E+03 0.  0.
         25    1    4    4    0    0  0.49925857729E+02 -0.75092070188E+01 -0.27897767354E+03  0.30987905688E+03  0.12509000000E+03 0.  0.
         25    1    3    3    0    0 -0.18736216642E+02  0.14290255698E+02 -0.41117871517E+02  0.13376638098E+03  0.12509000000E+03 0.  0.
         25    1    4    4    0    0 -0.31189641087E+02 -0.67810486789E+01 -0.28409750107E+03  0.31205396095E+03  0.12509000000E+03 0.  0.
<mgrwt>
<rscale>  2 0.45390786E+03</rscale>
<asrwt>0</asrwt>
<pdfrwt beam="1">  1       21 0.11140174E-01 0.45390786E+03</pdfrwt>
<pdfrwt beam="2">  1       21 0.99992085E-01 0.45390786E+03</pdfrwt>
<totfact> 0.50412300E+04</totfact>
</mgrwt>
</event>
<event>
 7    0  0.4712189E-002  0.4483138E+03  0.7546771E-02  0.1028226E+00
         21   -1    0    0  502  501  0.00000000000E+00  0.00000000000E+00  0.10485140165E+04  0.10485140165E+04  0.00000000000E+00 0. -1.
         21   -1    0    0  501  502 -0.00000000000E+00 -0.00000000000E+00 -0.47921446634E+02  0.47921446634E+02  0.00000000000E+00 0. -1.
      99926    2    1    2    0    0 -0.13322676296E-14  0.00000000000E+00  0.10005925698E+04  0.10964354631E+04  0.44831376729E+03 0.  0.
      99925    2    3    3    0    0 -0.34828215424E+01 -0.88506316629E+02  0.48807944179E+03  0.56149367874E+03  0.26307434623E+03 0.  0.
         25    1    4    4    0    0  0.33098225289E+02 -0.64498695371E+02  0.23805736106E+03  0.27852179354E+03  0.12509000000E+03 0.  0.
         25    1    3    3    0    0  0.34828215424E+01  0.88506316629E+02  0.51251312804E+03  0.53494178435E+03  0.12509000000E+03 0.  0.
         25    1    4    4    0    0 -0.36581046831E+02 -0.24007621258E+02  0.25002208073E+03  0.28297188521E+03  0.12509000000E+03 0.  0.
<mgrwt>
<rscale>  2 0.44831377E+03</rscale>
<asrwt>0</asrwt>
<pdfrwt beam="1">  1       21 0.15419322E+00 0.44831377E+03</pdfrwt>
<pdfrwt beam="2">  1       21 0.70472723E-02 0.44831377E+03</pdfrwt>
<totfact> 0.37538244E+04</totfact>
</mgrwt>
</event>
