<event>
 7    0  0.4737014E-002  0.4542585E+03  0.7546771E-02  0.1026460E+00
         21   -1    0    0  502  501  0.00000000000E+00  0.00000000000E+00  0.58294206291E+03  0.58294206291E+03  0.00000000000E+00 0.  1.
         21   -1    0    0  501  502 -0.00000000000E+00 -0.00000000000E+00 -0.88495412377E+02  0.88495412377E+02  0.00000000000E+00 0.  1.
      99926    2    1    2    0    0 -0.14210854715E-13 -0.71054273576E-14  0.49444665053E+03  0.67143747529E+03  0.45425850900E+03 0.  0.
      99925    2    3    3    0    0  0.10347174220E+03  0.40117503885E+02  0.28289739836E+03  0.40177767156E+03  0.26282797380E+03 0.  0.
         25    1    4    4    0    0  0.15004961432E+02  0.15286549920E+02  0.15731438847E+03  0.20212410147E+03  0.12509000000E+03 0.  0.
         25    1    4    4    0    0  0.88466780772E+02  0.24830953965E+02  0.12558300989E+03  0.19965357009E+03  0.12509000000E+03 0.  0.
         25    1    3    3    0    0 -0.10347174220E+03 -0.40117503885E+02  0.21154925217E+03  0.26965980373E+03  0.12509000000E+03 0.  0.
<mgrwt>
<rscale>  2 0.45425851E+03</rscale>
<asrwt>0</asrwt>
<pdfrwt beam="1">  1       21 0.85726772E-01 0.45425851E+03</pdfrwt>
<pdfrwt beam="2">  1       21 0.13014031E-01 0.45425851E+03</pdfrwt>
<totfact> 0.54801087E+04</totfact>
</mgrwt>
</event>
<event>
 7    0  0.4737014E-002  0.4556354E+03  0.7546771E-02  0.1026055E+00
         21   -1    0    0  502  501  0.00000000000E+00  0.00000000000E+00  0.70552042893E+02  0.70552042893E+02  0.00000000000E+00 0. -1.
         21   -1    0    0  501  502 -0.00000000000E+00 -0.00000000000E+00 -0.73564002468E+03  0.73564002468E+03  0.00000000000E+00 0. -1.
      99926    2    1    2    0    0  0.00000000000E+00  0.00000000000E+00 -0.66508798178E+03  0.80619206757E+03  0.45563540940E+03 0.  0.
      99925    2    3    3    0    0  0.10449498043E+03 -0.36841573380E+02 -0.46302720708E+03  0.54398496004E+03  0.26315193290E+03 0.  0.
         25    1    4    4    0    0  0.70488570615E+02  0.12491893417E+02 -0.19855564933E+03  0.24534983181E+03  0.12509000000E+03 0.  0.
         25    1    3    3    0    0 -0.10449498043E+03  0.36841573380E+02 -0.20206077470E+03  0.26220710753E+03  0.12509000000E+03 0.  0.
         25    1    4    4    0    0  0.34006409816E+02 -0.49333466797E+02 -0.26447155776E+03  0.29863512824E+03  0.12509000000E+03 0.  0.
<mgrwt>
<rscale>  2 0.45563541E+03</rscale>
<asrwt>0</asrwt>
<pdfrwt beam="1">  1       21 0.10375300E-01 0.45563541E+03</pdfrwt>
<pdfrwt beam="2">  1       21 0.10818236E+00 0.45563541E+03</pdfrwt>
<totfact> 0.47230811E+04</totfact>
</mgrwt>
</event>
<event>
 7    0  0.4737014E-002  0.4525684E+03  0.7546771E-02  0.1026959E+00
         21   -1    0    0  502  501  0.00000000000E+00  0.00000000000E+00  0.15470245665E+03  0.15470245665E+03  0.00000000000E+00 0.  1.
         21   -1    0    0  501  502 -0.00000000000E+00 -0.00000000000E+00 -0.33098729384E+03  0.33098729384E+03  0.00000000000E+00 0.  1.
      99926    2    1    2    0    0 -0.35527136788E-14 -0.71054273576E-14 -0.17628483719E+03  0.48568975049E+03  0.45256843671E+03 0.  0.
      99925    2    3    3    0    0 -0.19135185188E+02 -0.51018604511E+02 -0.21489112404E+03  0.34389057277E+03  0.26289442278E+03 0.  0.
         25    1    4    4    0    0  0.19689847708E+02  0.32960212865E+01 -0.99471847261E+02  0.16106120066E+03  0.12509000000E+03 0.  0.
         25    1    4    4    0    0 -0.38825032896E+02 -0.54314625798E+02 -0.11541927678E+03  0.18282937211E+03  0.12509000000E+03 0.  0.
         25    1    3    3    0    0  0.19135185188E+02  0.51018604511E+02  0.38606286849E+02  0.14179917772E+03  0.12509000000E+03 0.  0.
<mgrwt>
<rscale>  2 0.45256844E+03</rscale>
<asrwt>0</asrwt>
<pdfrwt beam="1">  1       21 0.22750362E-01 0.45256844E+03</pdfrwt>
<pdfrwt beam="2">  1       21 0.48674601E-01 0.45256844E+03</pdfrwt>
<totfact> 0.67583384E+04</totfact>
</mgrwt>
</event>
<event>
 7    0  0.4737014E-002  0.4535651E+03  0.7546771E-02  0.1026664E+00
         21   -1    0    0  502  501  0.00000000000E+00  0.00000000000E+00  0.51884561037E+03  0.51884561037E+03  0.00000000000E+00 0.  1.
         21   -1    0    0  501  502 -0.00000000000E+00 -0.00000000000E+00 -0.99124509396E+02  0.99124509396E+02  0.00000000000E+00 0.  1.
      99926    2    1    2    0    0  0.00000000000E+00  0.88817841970E-15  0.41972110097E+03  0.61797011976E+03  0.45356506294E+03 0.  0.
      99925    2    3    3    0    0  0.10617820172E+03 -0.58633685464E+01  0.31151308327E+03  0.42133677364E+03  0.26301347145E+03 0.  0.
         25    1    3    3    0    0 -0.10617820172E+03  0.58633685464E+01  0.10820801770E+03  0.19663334612E+03  0.12509000000E+03 0.  0.
         25    1    4    4    0    0  0.27832873062E+02 -0.19908465712E+02  0.10367011429E+03  0.16603016752E+03  0.12509000000E+03 0.  0.
         25    1    4    4    0    0  0.78345328656E+02  0.14045097166E+02  0.20784296898E+03  0.25530660612E+03  0.12509000000E+03 0.  0.
<mgrwt>
<rscale>  2 0.45356506E+03</rscale>
<asrwt>0</asrwt>
<pdfrwt beam="1">  1       21 0.76300824E-01 0.45356506E+03</pdfrwt>
<pdfrwt beam="2">  1       21 0.14577134E-01 0.45356506E+03</pdfrwt>
<totfact> 0.58242760E+04</totfact>
</mgrwt>
</event>
<event>
 7    0  0.4737014E-002  0.4536694E+03  0.7546771E-02  0.1026633E+00
         21   -1    0    0  502  501  0.00000000000E+00  0.00000000000E+00  0.91505410774E+02  0.91505410774E+02  0.00000000000E+00 0. -1.
         21   -1    0    0  501  502 -0.00000000000E+00 -0.00000000000E+00 -0.56230523276E+03  0.56230523276E+03  0.00000000000E+00 0. -1.
      99926    2    1    2    0    0  0.00000000000E+00 -0.71054273576E-14 -0.47079982199E+03  0.65381064354E+03  0.45366935671E+03 0.  0.
      99925    2    3    3    0    0  0.32159316130E+02 -0.48055337481E+02 -0.16170344739E+03  0.31538544653E+03  0.26453059920E+03 0.  0.
         25    1    4    4    0    0  0.26436451578E+02  0.16648927989E+02 -0.90067279100E+02  0.15727585841E+03  0.12509000000E+03 0.  0.
         25    1    4    4    0    0  0.57228645524E+01 -0.64704265470E+02 -0.71636168285E+02  0.15810958812E+03  0.12509000000E+03 0.  0.
         25    1    3    3    0    0 -0.32159316130E+02  0.48055337481E+02 -0.30909637460E+03  0.33842519701E+03  0.12509000000E+03 0.  0.
<mgrwt>
<rscale>  2 0.45366936E+03</rscale>
<asrwt>0</asrwt>
<pdfrwt beam="1">  1       21 0.13456678E-01 0.45366936E+03</pdfrwt>
<pdfrwt beam="2">  1       21 0.82691944E-01 0.45366936E+03</pdfrwt>
<totfact> 0.56068676E+04</totfact>
</mgrwt>
</event>
<event>
 7    0  0.4737014E-002  0.4506649E+03  0.7546771E-02  0.1027524E+00
         21   -1    0    0  502  501  0.00000000000E+00  0.00000000000E+00  0.25994597736E+03  0.25994597736E+03  0.00000000000E+00 0. -1.
         21   -1    0    0  501  502 -0.00000000000E+00 -0.00000000000E+00 -0.19532794979E+03  0.19532794979E+03  0.00000000000E+00 0. -1.
      99926    2    1    2    0    0  0.00000000000E+00  0.00000000000E+00  0.64618027569E+02  0.45527392715E+03  0.45066490795E+03 0.  0.
      99925    2    3    3    0    0 -0.10624398266E+03  0.17701925142E+02  0.21250596200E+02  0.28460060115E+03  0.26257336562E+03 0.  0.
         25    1    4    4    0    0 -0.74426111174E+02  0.29342154707E+01  0.45314576142E+02  0.15247548838E+03  0.12509000000E+03 0.  0.
         25    1    3    3    0    0  0.10624398266E+03 -0.17701925142E+02  0.43367431369E+02  0.17067332600E+03  0.12509000000E+03 0.  0.
         25    1    4    4    0    0 -0.31817871483E+02  0.14767709672E+02 -0.24063979942E+02  0.13212511277E+03  0.12509000000E+03 0.  0.
<mgrwt>
<rscale>  2 0.45066491E+03</rscale>
<asrwt>0</asrwt>
<pdfrwt beam="1">  1       21 0.38227350E-01 0.45066491E+03</pdfrwt>
<pdfrwt beam="2">  1       21 0.28724698E-01 0.45066491E+03</pdfrwt>
<totfact> 0.70947572E+04</totfact>
</mgrwt>
</event>
<event>
 7    0  0.4737014E-002  0.4551717E+03  0.7546771E-02  0.1026191E+00
         21   -1    0    0  502  501  0.00000000000E+00  0.00000000000E+00  0.43645351120E+03  0.43645351120E+03  0.00000000000E+00 0.  1.
         21   -1    0    0  501  502 -0.00000000000E+00 -0.00000000000E+00 -0.11867314055E+03  0.11867314055E+03  0.00000000000E+00 0.  1.
      99926    2    1    2    0    0  0.00000000000E+00  0.00000000000E+00  0.31778037066E+03  0.55512665175E+03  0.45517165499E+03 0.  0.
      99925    2    3    3    0    0 -0.91544496243E+02  0.51855968906E+01  0.28104051228E+03  0.39573841347E+03  0.26309282991E+03 0.  0.
         25    1    4    4    0    0 -0.55296778427E+02 -0.33496085964E+02  0.16633311898E+03  0.21793103508E+03  0.12509000000E+03 0.  0.
         25    1    4    4    0    0 -0.36247717816E+02  0.38681682854E+02  0.11470739330E+03  0.17780737840E+03  0.12509000000E+03 0.  0.
         25    1    3    3    0    0  0.91544496243E+02 -0.51855968906E+01  0.36739858375E+02  0.15938823828E+03  0.12509000000E+03 0.  0.
<mgrwt>
<rscale>  2 0.45517165E+03</rscale>
<asrwt>0</asrwt>
<pdfrwt beam="1">  1       21 0.64184340E-01 0.45517165E+03</pdfrwt>
<pdfrwt beam="2">  1       21 0.17451932E-01 0.45517165E+03</pdfrwt>
<totfact> 0.61445523E+04</totfact>
</mgrwt>
</event>
<event>
 7    0  0.4737014E-002  0.4572338E+03  0.7546771E-02  0.1025587E+00
         21   -1    0    0  502  501  0.00000000000E+00  0.00000000000E+00  0.10414465137E+04  0.10414465137E+04  0.00000000000E+00 0.  1.
         21   -1    0    0  501  502 -0.00000000000E+00 -0.00000000000E+00 -0.50185658116E+02  0.50185658116E+02  0.00000000000E+00 0.  1.
      99926    2    1    2    0    0  0.00000000000E+00  0.00000000000E+00  0.99126085559E+03  0.10916321718E+04  0.45723376377E+03 0.  0.
      99925    2    3    3    0    0 -0.45603472699E+01  0.10147622441E+03  0.75235404834E+03  0.80346175082E+03  0.26305123093E+03 0.  0.
         25    1    3    3    0    0  0.45603472699E+01 -0.10147622441E+03  0.23890680725E+03  0.28817042100E+03  0.12509000000E+03 0.  0.
         25    1    4    4    0    0  0.29689066970E+01  0.78434006238E+02  0.31451209978E+03  0.34745658254E+03  0.12509000000E+03 0.  0.
         25    1    4    4    0    0 -0.75292539669E+01  0.23042218174E+02  0.43784194856E+03  0.45600516828E+03  0.12509000000E+03 0.  0.
<mgrwt>
<rscale>  2 0.45723376E+03</rscale>
<asrwt>0</asrwt>
<pdfrwt beam="1">  1       21 0.15315389E+00 0.45723376E+03</pdfrwt>
<pdfrwt beam="2">  1       21 0.73802445E-02 0.45723376E+03</pdfrwt>
<totfact> 0.35168867E+04</totfact>
</mgrwt>
</event>
<event>
 7    0  0.4737014E-002  0.4567013E+03  0.7546771E-02  0.1025742E+00
         21   -1    0    0  502  501  0.00000000000E+00  0.00000000000E+00  0.15174296118E+03  0.15174296118E+03  0.00000000000E+00 0.  1.
         21   -1    0    0  501  502 -0.00000000000E+00 -0.00000000000E+00 -0.34363391746E+03  0.34363391746E+03  0.00000000000E+00 0.  1.
      99926    2    1    2    0    0  0.00000000000E+00  0.14210854715E-13 -0.19189095628E+03  0.49537687864E+03  0.45670133871E+03 0.  0.
      99925    2    3    3    0    0 -0.57445390325E+02  0.88345700165E+02 -0.17021499337E+03  0.33038508770E+03  0.26282356554E+03 0.  0.
         25    1    4    4    0    0 -0.67668366815E+02  0.59814778353E+02 -0.87137872479E+02  0.17719292451E+03  0.12509000000E+03 0.  0.
         25    1    3    3    0    0  0.57445390325E+02 -0.88345700165E+02 -0.21675962919E+02  0.16499179093E+03  0.12509000000E+03 0.  0.
         25    1    4    4    0    0  0.10222976490E+02  0.28530921812E+02 -0.83077120887E+02  0.15319216319E+03  0.12509000000E+03 0.  0.
<mgrwt>
<rscale>  2 0.45670134E+03</rscale>
<asrwt>0</asrwt>
<pdfrwt beam="1">  1       21 0.22315142E-01 0.45670134E+03</pdfrwt>
<pdfrwt beam="2">  1       21 0.50534399E-01 0.45670134E+03</pdfrwt>
<totfact> 0.64718157E+04</totfact>
</mgrwt>
</event>
<event>
 7    0  0.4737014E-002  0.4651738E+03  0.7546771E-02  0.1023291E+00
         21   -1    0    0  502  501  0.00000000000E+00  0.00000000000E+00  0.41160988448E+03  0.41160988448E+03  0.00000000000E+00 0.  1.
         21   -1    0    0  501  502 -0.00000000000E+00 -0.00000000000E+00 -0.13142701202E+03  0.13142701202E+03  0.00000000000E+00 0.  1.
      99926    2    1    2    0    0  0.00000000000E+00  0.00000000000E+00  0.28018287246E+03  0.54303689650E+03  0.46517376209E+03 0.  0.
      99925    2    3    3    0    0 -0.14007469521E+02 -0.19838613487E+02  0.34548276750E+02  0.26631746730E+03  0.26294796096E+03 0.  0.
         25    1    4    4    0    0  0.18177624432E+02 -0.40849125080E+02  0.24399431280E+02  0.13506264249E+03  0.12509000000E+03 0.  0.
         25    1    4    4    0    0 -0.32185093953E+02  0.21010511593E+02  0.10148845470E+02  0.13125482480E+03  0.12509000000E+03 0.  0.
         25    1    3    3    0    0  0.14007469521E+02  0.19838613487E+02  0.24563459571E+03  0.27671942920E+03  0.12509000000E+03 0.  0.
<mgrwt>
<rscale>  2 0.46517376E+03</rscale>
<asrwt>0</asrwt>
<pdfrwt beam="1">  1       21 0.60530865E-01 0.46517376E+03</pdfrwt>
<pdfrwt beam="2">  1       21 0.19327502E-01 0.46517376E+03</pdfrwt>
<totfact> 0.57550712E+04</totfact>
</mgrwt>
</event>
<event>
 7    0  0.4737014E-002  0.4503958E+03  0.7546771E-02  0.1027604E+00
         21   -1    0    0  502  501  0.00000000000E+00  0.00000000000E+00  0.24611528570E+03  0.24611528570E+03  0.00000000000E+00 0.  1.
         21   -1    0    0  501  502 -0.00000000000E+00 -0.00000000000E+00 -0.20605827991E+03  0.20605827991E+03  0.00000000000E+00 0.  1.
      99926    2    1    2    0    0 -0.49960036108E-14  0.00000000000E+00  0.40057005784E+02  0.45217356561E+03  0.45039579230E+03 0.  0.
      99925    2    3    3    0    0  0.10103575015E+00  0.33132931561E+02 -0.79103697264E+02  0.27626284219E+03  0.26261371193E+03 0.  0.
         25    1    4    4    0    0  0.38630857515E+02  0.21952015028E+02 -0.48916743750E+02  0.14147293040E+03  0.12509000000E+03 0.  0.
         25    1    4    4    0    0 -0.38529821765E+02  0.11180916534E+02 -0.30186953514E+02  0.13478991180E+03  0.12509000000E+03 0.  0.
         25    1    3    3    0    0 -0.10103575015E+00 -0.33132931561E+02  0.11916070305E+03  0.17591072342E+03  0.12509000000E+03 0.  0.
<mgrwt>
<rscale>  2 0.45039579E+03</rscale>
<asrwt>0</asrwt>
<pdfrwt beam="1">  1       21 0.36193424E-01 0.45039579E+03</pdfrwt>
<pdfrwt beam="2">  1       21 0.30302688E-01 0.45039579E+03</pdfrwt>
<totfact> 0.71338206E+04</totfact>
</mgrwt>
</event>
<event>
 7    0  0.4737014E-002  0.4507375E+03  0.7546771E-02  0.1027502E+00
         21   -1    0    0  502  501  0.00000000000E+00  0.00000000000E+00  0.55806784678E+03  0.55806784678E+03  0.00000000000E+00 0.  1.
         21   -1    0    0  501  502 -0.00000000000E+00 -0.00000000000E+00 -0.91012370111E+02  0.91012370111E+02  0.00000000000E+00 0.  1.
      99926    2    1    2    0    0  0.00000000000E+00  0.17763568394E-14  0.46705547666E+03  0.64908021689E+03  0.45073751749E+03 0.  0.
      99925    2    3    3    0    0  0.42596733072E+02 -0.15950533869E+02  0.15248800497E+03  0.30751162414E+03  0.26313856830E+03 0.  0.
         25    1    4    4    0    0  0.12124239500E+02  0.27701461098E+02  0.94755490912E+02  0.15981388954E+03  0.12509000000E+03 0.  0.
         25    1    4    4    0    0  0.30472493572E+02 -0.43651994967E+02  0.57732514056E+02  0.14769773461E+03  0.12509000000E+03 0.  0.
         25    1    3    3    0    0 -0.42596733072E+02  0.15950533869E+02  0.31456747170E+03  0.34156859274E+03  0.12509000000E+03 0.  0.
<mgrwt>
<rscale>  2 0.45073752E+03</rscale>
<asrwt>0</asrwt>
<pdfrwt beam="1">  1       21 0.82068799E-01 0.45073752E+03</pdfrwt>
<pdfrwt beam="2">  1       21 0.13384172E-01 0.45073752E+03</pdfrwt>
<totfact> 0.57669392E+04</totfact>
</mgrwt>
</event>
<event>
 7    0  0.4737014E-002  0.4106834E+03  0.7546771E-02  0.1040142E+00
         21   -1    0    0  502  501  0.00000000000E+00  0.00000000000E+00  0.10630355176E+03  0.10630355176E+03  0.00000000000E+00 0.  1.
         21   -1    0    0  501  502 -0.00000000000E+00 -0.00000000000E+00 -0.39664918485E+03  0.39664918485E+03  0.00000000000E+00 0.  1.
      99926    2    1    2    0    0  0.00000000000E+00  0.00000000000E+00 -0.29034563309E+03  0.50295273661E+03  0.41068341652E+03 0.  0.
      99925    2    3    3    0    0 -0.16378012192E+02  0.16979178398E+02 -0.26331946668E+03  0.37282029041E+03  0.26287125295E+03 0.  0.
         25    1    4    4    0    0 -0.20654034424E+02 -0.23307038894E+02 -0.16078685459E+03  0.20608184759E+03  0.12509000000E+03 0.  0.
         25    1    3    3    0    0  0.16378012192E+02 -0.16979178398E+02 -0.27026166407E+02  0.13013244620E+03  0.12509000000E+03 0.  0.
         25    1    4    4    0    0  0.42760222327E+01  0.40286217293E+02 -0.10253261209E+03  0.16673844281E+03  0.12509000000E+03 0.  0.
<mgrwt>
<rscale>  2 0.41068342E+03</rscale>
<asrwt>0</asrwt>
<pdfrwt beam="1">  1       21 0.15632875E-01 0.41068342E+03</pdfrwt>
<pdfrwt beam="2">  1       21 0.58330762E-01 0.41068342E+03</pdfrwt>
<totfact> 0.93985922E+04</totfact>
</mgrwt>
</event>
<event>
 7    0  0.4737014E-002  0.4646973E+03  0.7546771E-02  0.1023428E+00
         21   -1    0    0  502  501  0.00000000000E+00  0.00000000000E+00  0.27542204971E+03  0.27542204971E+03  0.00000000000E+00 0. -1.
         21   -1    0    0  501  502 -0.00000000000E+00 -0.00000000000E+00 -0.19601154944E+03  0.19601154944E+03  0.00000000000E+00 0. -1.
      99926    2    1    2    0    0  0.00000000000E+00  0.00000000000E+00  0.79410500277E+02  0.47143359915E+03  0.46469733252E+03 0.  0.
      99925    2    3    3    0    0  0.11694975274E+03  0.19013982193E+02  0.79226658798E+02  0.29913641959E+03  0.26299611761E+03 0.  0.
         25    1    3    3    0    0 -0.11694975274E+03 -0.19013982193E+02  0.18384147905E+00  0.17229717955E+03  0.12509000000E+03 0.  0.
         25    1    4    4    0    0  0.46391103773E+02 -0.18279963761E+02  0.89619344330E+01  0.13495968270E+03  0.12509000000E+03 0.  0.
         25    1    4    4    0    0  0.70558648966E+02  0.37293945954E+02  0.70264724365E+02  0.16417673690E+03  0.12509000000E+03 0.  0.
<mgrwt>
<rscale>  2 0.46469733E+03</rscale>
<asrwt>0</asrwt>
<pdfrwt beam="1">  1       21 0.40503243E-01 0.46469733E+03</pdfrwt>
<pdfrwt beam="2">  1       21 0.28825228E-01 0.46469733E+03</pdfrwt>
<totfact> 0.62385569E+04</totfact>
</mgrwt>
</event>
<event>
 7    0  0.4737014E-002  0.4494189E+03  0.7546771E-02  0.1027895E+00
         21   -1    0    0  502  501  0.00000000000E+00  0.00000000000E+00  0.27381345196E+03  0.27381345196E+03  0.00000000000E+00 0. -1.
         21   -1    0    0  501  502 -0.00000000000E+00 -0.00000000000E+00 -0.18441147878E+03  0.18441147878E+03  0.00000000000E+00 0. -1.
      99926    2    1    2    0    0  0.00000000000E+00 -0.14210854715E-13  0.89401973179E+02  0.45822493074E+03  0.44941892967E+03 0.  0.
      99925    2    3    3    0    0 -0.73993132382E+02 -0.77763506692E+02  0.67994445992E+02  0.29200839446E+03  0.26291350505E+03 0.  0.
         25    1    3    3    0    0  0.73993132382E+02  0.77763506692E+02  0.21407527187E+02  0.16621653628E+03  0.12509000000E+03 0.  0.
         25    1    4    4    0    0 -0.42799087885E+02 -0.77330295842E+02  0.20097610701E+02  0.15447704889E+03  0.12509000000E+03 0.  0.
         25    1    4    4    0    0 -0.31194044497E+02 -0.43321084995E+00  0.47896835292E+02  0.13753134557E+03  0.12509000000E+03 0.  0.
<mgrwt>
<rscale>  2 0.44941893E+03</rscale>
<asrwt>0</asrwt>
<pdfrwt beam="1">  1       21 0.40266684E-01 0.44941893E+03</pdfrwt>
<pdfrwt beam="2">  1       21 0.27119335E-01 0.44941893E+03</pdfrwt>
<totfact> 0.71432764E+04</totfact>
</mgrwt>
</event>
<event>
 7    0  0.4737014E-002  0.4517300E+03  0.7546771E-02  0.1027207E+00
         21   -1    0    0  502  501  0.00000000000E+00  0.00000000000E+00  0.88859335523E+02  0.88859335523E+02  0.00000000000E+00 0.  1.
         21   -1    0    0  501  502 -0.00000000000E+00 -0.00000000000E+00 -0.57410951236E+03  0.57410951236E+03  0.00000000000E+00 0.  1.
      99926    2    1    2    0    0  0.13322676296E-14  0.00000000000E+00 -0.48525017684E+03  0.66296884789E+03  0.45172996264E+03 0.  0.
      99925    2    3    3    0    0 -0.33997087842E+01  0.10781916094E+03 -0.33315843086E+03  0.43843391346E+03  0.26380528222E+03 0.  0.
         25    1    4    4    0    0  0.17346607140E+02  0.51006730397E+02 -0.22220416654E+03  0.26062384974E+03  0.12509000000E+03 0.  0.
         25    1    4    4    0    0 -0.20746315924E+02  0.56812430539E+02 -0.11095426433E+03  0.17781006372E+03  0.12509000000E+03 0.  0.
         25    1    3    3    0    0  0.33997087842E+01 -0.10781916094E+03 -0.15209174598E+03  0.22453493443E+03  0.12509000000E+03 0.  0.
<mgrwt>
<rscale>  2 0.45172996E+03</rscale>
<asrwt>0</asrwt>
<pdfrwt beam="1">  1       21 0.13067549E-01 0.45172996E+03</pdfrwt>
<pdfrwt beam="2">  1       21 0.84427870E-01 0.45172996E+03</pdfrwt>
<totfact> 0.56399869E+04</totfact>
</mgrwt>
</event>
<event>
 7    0  0.4737014E-002  0.4528462E+03  0.7546771E-02  0.1026877E+00
         21   -1    0    0  502  501  0.00000000000E+00  0.00000000000E+00  0.15252308352E+04  0.15252308352E+04  0.00000000000E+00 0. -1.
         21   -1    0    0  501  502 -0.00000000000E+00 -0.00000000000E+00 -0.33612890479E+02  0.33612890479E+02  0.00000000000E+00 0. -1.
      99926    2    1    2    0    0  0.00000000000E+00  0.00000000000E+00  0.14916179448E+04  0.15588437257E+04  0.45284618589E+03 0.  0.
      99925    2    3    3    0    0 -0.62975842842E+02 -0.91788479712E+02  0.92203871285E+03  0.96516107370E+03  0.26265838725E+03 0.  0.
         25    1    4    4    0    0 -0.40071398012E+02 -0.69609476121E+02  0.38194113589E+03  0.40985086982E+03  0.12509000000E+03 0.  0.
         25    1    4    4    0    0 -0.22904444830E+02 -0.22179003591E+02  0.54009757696E+03  0.55531020388E+03  0.12509000000E+03 0.  0.
         25    1    3    3    0    0  0.62975842842E+02  0.91788479712E+02  0.56957923191E+03  0.59368265202E+03  0.12509000000E+03 0.  0.
<mgrwt>
<rscale>  2 0.45284619E+03</rscale>
<asrwt>0</asrwt>
<pdfrwt beam="1">  1       21 0.22429861E+00 0.45284619E+03</pdfrwt>
<pdfrwt beam="2">  1       21 0.49430731E-02 0.45284619E+03</pdfrwt>
<totfact> 0.22751330E+04</totfact>
</mgrwt>
</event>
<event>
 7    0  0.4737014E-002  0.4417575E+03  0.7546771E-02  0.1030209E+00
         21   -1    0    0  502  501  0.00000000000E+00  0.00000000000E+00  0.54329273276E+02  0.54329273276E+02  0.00000000000E+00 0.  1.
         21   -1    0    0  501  502 -0.00000000000E+00 -0.00000000000E+00 -0.89799519993E+03  0.89799519993E+03  0.00000000000E+00 0.  1.
      99926    2    1    2    0    0  0.14210854715E-13  0.35527136788E-14 -0.84366592665E+03  0.95232447320E+03  0.44175751999E+03 0.  0.
      99925    2    3    3    0    0  0.87268868410E+02  0.16023729768E+02 -0.63805372763E+03  0.69581618914E+03  0.26301139597E+03 0.  0.
         25    1    4    4    0    0  0.29001922208E+02  0.32781791281E+02 -0.38389878661E+03  0.40612995924E+03  0.12509000000E+03 0.  0.
         25    1    3    3    0    0 -0.87268868410E+02 -0.16023729768E+02 -0.20561219902E+03  0.25650828407E+03  0.12509000000E+03 0.  0.
         25    1    4    4    0    0  0.58266946202E+02 -0.16758061513E+02 -0.25415494102E+03  0.28968622990E+03  0.12509000000E+03 0.  0.
<mgrwt>
<rscale>  2 0.44175752E+03</rscale>
<asrwt>0</asrwt>
<pdfrwt beam="1">  1       21 0.79895994E-02 0.44175752E+03</pdfrwt>
<pdfrwt beam="2">  1       21 0.13205811E+00 0.44175752E+03</pdfrwt>
<totfact> 0.45587454E+04</totfact>
</mgrwt>
</event>
<event>
 7    0  0.4737014E-002  0.4546875E+03  0.7546771E-02  0.1026333E+00
         21   -1    0    0  502  501  0.00000000000E+00  0.00000000000E+00  0.79431805933E+03  0.79431805933E+03  0.00000000000E+00 0. -1.
         21   -1    0    0  501  502 -0.00000000000E+00 -0.00000000000E+00 -0.65068635134E+02  0.65068635134E+02  0.00000000000E+00 0. -1.
      99926    2    1    2    0    0  0.00000000000E+00  0.00000000000E+00  0.72924942420E+03  0.85938669446E+03  0.45468754979E+03 0.  0.
      99925    2    3    3    0    0 -0.42135412467E+02  0.79489557839E+02  0.58767057687E+03  0.65013550355E+03  0.26310736072E+03 0.  0.
         25    1    3    3    0    0  0.42135412467E+02 -0.79489557839E+02  0.14157884732E+03  0.20925119091E+03  0.12509000000E+03 0.  0.
         25    1    4    4    0    0  0.68482982074E+01  0.22424998351E+02  0.21418838888E+03  0.24914645045E+03  0.12509000000E+03 0.  0.
         25    1    4    4    0    0 -0.48983710675E+02  0.57064559488E+02  0.37348218799E+03  0.40098905310E+03  0.12509000000E+03 0.  0.
<mgrwt>
<rscale>  2 0.45468755E+03</rscale>
<asrwt>0</asrwt>
<pdfrwt beam="1">  1       21 0.11681147E+00 0.45468755E+03</pdfrwt>
<pdfrwt beam="2">  1       21 0.95689174E-02 0.45468755E+03</pdfrwt>
<totfact> 0.45132836E+04</totfact>
</mgrwt>
</event>
<event>
 7    0  0.4737014E-002  0.4592773E+03  0.7546771E-02  0.1024991E+00
         21   -1    0    0  502  501  0.00000000000E+00  0.00000000000E+00  0.83726590130E+02  0.83726590130E+02  0.00000000000E+00 0.  1.
         21   -1    0    0  501  502 -0.00000000000E+00 -0.00000000000E+00 -0.62983459315E+03  0.62983459315E+03  0.00000000000E+00 0.  1.
      99926    2    1    2    0    0  0.00000000000E+00  0.14210854715E-13 -0.54610800302E+03  0.71356118328E+03  0.45927727063E+03 0.  0.
      99925    2    3    3    0    0  0.77535751999E+02  0.80858138381E+02 -0.39526531163E+03  0.48783821806E+03  0.26306202509E+03 0.  0.
         25    1    3    3    0    0 -0.77535751999E+02 -0.80858138381E+02 -0.15084269139E+03  0.22572296522E+03  0.12509000000E+03 0.  0.
         25    1    4    4    0    0  0.89123477652E+01  0.78549288149E+01 -0.17404966125E+03  0.21466700382E+03  0.12509000000E+03 0.  0.
         25    1    4    4    0    0  0.68623404234E+02  0.73003209567E+02 -0.22121565038E+03  0.27317121424E+03  0.12509000000E+03 0.  0.
<mgrwt>
<rscale>  2 0.45927727E+03</rscale>
<asrwt>0</asrwt>
<pdfrwt beam="1">  1       21 0.12312734E-01 0.45927727E+03</pdfrwt>
<pdfrwt beam="2">  1       21 0.92622737E-01 0.45927727E+03</pdfrwt>
<totfact> 0.50453588E+04</totfact>
</mgrwt>
</event>
<event>
 7    0  0.4737014E-002  0.4599312E+03  0.7546771E-02  0.1024801E+00
         21   -1    0    0  502  501  0.00000000000E+00  0.00000000000E+00  0.13968439289E+03  0.13968439289E+03  0.00000000000E+00 0.  1.
         21   -1    0    0  501  502 -0.00000000000E+00 -0.00000000000E+00 -0.37859765375E+03  0.37859765375E+03  0.00000000000E+00 0.  1.
      99926    2    1    2    0    0  0.14210854715E-13  0.17763568394E-14 -0.23891326086E+03  0.51828204664E+03  0.45993122710E+03 0.  0.
      99925    2    3    3    0    0  0.74078599402E+02  0.12217630316E+02 -0.25193404565E+03  0.37181034864E+03  0.26293585266E+03 0.  0.
         25    1    4    4    0    0  0.66011594113E+02  0.47275943725E+00 -0.93961858532E+02  0.16980604529E+03  0.12509000000E+03 0.  0.
         25    1    3    3    0    0 -0.74078599402E+02 -0.12217630316E+02  0.13020784795E+02  0.14647169801E+03  0.12509000000E+03 0.  0.
         25    1    4    4    0    0  0.80670052895E+01  0.11744870879E+02 -0.15797218712E+03  0.20200430334E+03  0.12509000000E+03 0.  0.
<mgrwt>
<rscale>  2 0.45993123E+03</rscale>
<asrwt>0</asrwt>
<pdfrwt beam="1">  1       21 0.20541823E-01 0.45993123E+03</pdfrwt>
<pdfrwt beam="2">  1       21 0.55676124E-01 0.45993123E+03</pdfrwt>
<totfact> 0.61560174E+04</totfact>
</mgrwt>
</event>
<event>
 7    0  0.4737014E-002  0.4501798E+03  0.7546771E-02  0.1027668E+00
         21   -1    0    0  502  501  0.00000000000E+00  0.00000000000E+00  0.19116711444E+03  0.19116711444E+03  0.00000000000E+00 0.  1.
         21   -1    0    0  501  502 -0.00000000000E+00 -0.00000000000E+00 -0.26503227887E+03  0.26503227887E+03  0.00000000000E+00 0.  1.
      99926    2    1    2    0    0  0.00000000000E+00 -0.35527136788E-14 -0.73865164431E+02  0.45619939332E+03  0.45017976848E+03 0.  0.
      99925    2    3    3    0    0 -0.64799261779E+02  0.26636964153E+02 -0.13071951934E+03  0.30196451413E+03  0.26303327331E+03 0.  0.
         25    1    4    4    0    0 -0.43115881207E+02  0.37756677511E+02 -0.10213119389E+03  0.17135587173E+03  0.12509000000E+03 0.  0.
         25    1    3    3    0    0  0.64799261779E+02 -0.26636964153E+02  0.56854354908E+02  0.15423487919E+03  0.12509000000E+03 0.  0.
         25    1    4    4    0    0 -0.21683380572E+02 -0.11119713358E+02 -0.28588325444E+02  0.13060864240E+03  0.12509000000E+03 0.  0.
<mgrwt>
<rscale>  2 0.45017977E+03</rscale>
<asrwt>0</asrwt>
<pdfrwt beam="1">  1       21 0.28112811E-01 0.45017977E+03</pdfrwt>
<pdfrwt beam="2">  1       21 0.38975335E-01 0.45017977E+03</pdfrwt>
<totfact> 0.71154385E+04</totfact>
</mgrwt>
</event>
<event>
 7    0  0.4737014E-002  0.4268198E+03  0.7546771E-02  0.1034869E+00
         21   -1    0    0  502  501  0.00000000000E+00  0.00000000000E+00  0.77557186156E+03  0.77557186156E+03  0.00000000000E+00 0. -1.
         21   -1    0    0  501  502 -0.00000000000E+00 -0.00000000000E+00 -0.58722852614E+02  0.58722852614E+02  0.00000000000E+00 0. -1.
      99926    2    1    2    0    0  0.00000000000E+00  0.71054273576E-14  0.71684900895E+03  0.83429471418E+03  0.42681983140E+03 0.  0.
      99925    2    3    3    0    0  0.76376719585E+02 -0.35070150086E+02  0.45970668681E+03  0.53624605933E+03  0.26299482795E+03 0.  0.
         25    1    3    3    0    0 -0.76376719585E+02  0.35070150086E+02  0.25714232213E+03  0.29804865484E+03  0.12509000000E+03 0.  0.
         25    1    4    4    0    0  0.71662630562E+01 -0.23063906406E+02  0.16486477061E+03  0.20835354519E+03  0.12509000000E+03 0.  0.
         25    1    4    4    0    0  0.69210456529E+02 -0.12006243680E+02  0.29484191620E+03  0.32789251414E+03  0.12509000000E+03 0.  0.
<mgrwt>
<rscale>  2 0.42681983E+03</rscale>
<asrwt>0</asrwt>
<pdfrwt beam="1">  1       21 0.11405468E+00 0.42681983E+03</pdfrwt>
<pdfrwt beam="2">  1       21 0.86357141E-02 0.42681983E+03</pdfrwt>
<totfact> 0.57934233E+04</totfact>
</mgrwt>
</event>
<event>
 7    0  0.4737014E-002  0.4564929E+03  0.7546771E-02  0.1025803E+00
         21   -1    0    0  502  501  0.00000000000E+00  0.00000000000E+00  0.68855354480E+02  0.68855354480E+02  0.00000000000E+00 0.  1.
         21   -1    0    0  501  502 -0.00000000000E+00 -0.00000000000E+00 -0.75660683092E+03  0.75660683092E+03  0.00000000000E+00 0.  1.
      99926    2    1    2    0    0 -0.14210854715E-13  0.14210854715E-13 -0.68775147644E+03  0.82546218540E+03  0.45649285447E+03 0.  0.
      99925    2    3    3    0    0 -0.78381222107E+02  0.73643358699E+02 -0.36048162662E+03  0.45896522367E+03  0.26293556843E+03 0.  0.
         25    1    4    4    0    0 -0.76072685463E+02  0.27095914585E+02 -0.21498294096E+03  0.26150796367E+03  0.12509000000E+03 0.  0.
         25    1    3    3    0    0  0.78381222107E+02 -0.73643358699E+02 -0.32726984982E+03  0.36649696173E+03  0.12509000000E+03 0.  0.
         25    1    4    4    0    0 -0.23085366435E+01  0.46547444114E+02 -0.14549868566E+03  0.19745726000E+03  0.12509000000E+03 0.  0.
<mgrwt>
<rscale>  2 0.45649285E+03</rscale>
<asrwt>0</asrwt>
<pdfrwt beam="1">  1       21 0.10125787E-01 0.45649285E+03</pdfrwt>
<pdfrwt beam="2">  1       21 0.11126572E+00 0.45649285E+03</pdfrwt>
<totfact> 0.46016387E+04</totfact>
</mgrwt>
</event>
<event>
 7    0  0.4737014E-002  0.4545059E+03  0.7546771E-02  0.1026387E+00
         21   -1    0    0  502  501  0.00000000000E+00  0.00000000000E+00  0.26166182282E+02  0.26166182282E+02  0.00000000000E+00 0. -1.
         21   -1    0    0  501  502 -0.00000000000E+00 -0.00000000000E+00 -0.19736893220E+04  0.19736893220E+04  0.00000000000E+00 0. -1.
      99926    2    1    2    0    0  0.00000000000E+00  0.00000000000E+00 -0.19475231397E+04  0.19998555043E+04  0.45450594965E+03 0.  0.
      99925    2    3    3    0    0 -0.70063062892E+02 -0.11833801039E+02 -0.83719157569E+03  0.88024282045E+03  0.26246679202E+03 0.  0.
         25    1    4    4    0    0 -0.64288832168E+02 -0.63100927966E+01 -0.53201593541E+03  0.55032838819E+03  0.12509000000E+03 0.  0.
         25    1    4    4    0    0 -0.57742307235E+01 -0.55237082422E+01 -0.30517564028E+03  0.32991443226E+03  0.12509000000E+03 0.  0.
         25    1    3    3    0    0  0.70063062892E+02  0.11833801039E+02 -0.11103315640E+04  0.11196126838E+04  0.12509000000E+03 0.  0.
<mgrwt>
<rscale>  2 0.45450595E+03</rscale>
<asrwt>0</asrwt>
<pdfrwt beam="1">  1       21 0.38479674E-02 0.45450595E+03</pdfrwt>
<pdfrwt beam="2">  1       21 0.29024847E+00 0.45450595E+03</pdfrwt>
<totfact> 0.13764724E+04</totfact>
</mgrwt>
</event>
<event>
 7    0  0.4737014E-002  0.4494171E+03  0.7546771E-02  0.1027896E+00
         21   -1    0    0  502  501  0.00000000000E+00  0.00000000000E+00  0.58551313592E+02  0.58551313592E+02  0.00000000000E+00 0.  1.
         21   -1    0    0  501  502 -0.00000000000E+00 -0.00000000000E+00 -0.86238766796E+03  0.86238766796E+03  0.00000000000E+00 0.  1.
      99926    2    1    2    0    0  0.00000000000E+00  0.00000000000E+00 -0.80383635437E+03  0.92093898155E+03  0.44941709262E+03 0.  0.
      99925    2    3    3    0    0 -0.74786959542E+02 -0.56615730816E+02 -0.40304505942E+03  0.49073019445E+03  0.26376575503E+03 0.  0.
         25    1    4    4    0    0 -0.61339662726E+02 -0.49777143622E+02 -0.26738047334E+03  0.30558164846E+03  0.12509000000E+03 0.  0.
         25    1    4    4    0    0 -0.13447296816E+02 -0.68385871938E+01 -0.13566458608E+03  0.18514854599E+03  0.12509000000E+03 0.  0.
         25    1    3    3    0    0  0.74786959542E+02  0.56615730816E+02 -0.40079129495E+03  0.43020878711E+03  0.12509000000E+03 0.  0.
<mgrwt>
<rscale>  2 0.44941709E+03</rscale>
<asrwt>0</asrwt>
<pdfrwt beam="1">  1       21 0.86104881E-02 0.44941709E+03</pdfrwt>
<pdfrwt beam="2">  1       21 0.12682170E+00 0.44941709E+03</pdfrwt>
<totfact> 0.44241285E+04</totfact>
</mgrwt>
</event>
<event>
 7    0  0.4737014E-002  0.4597263E+03  0.7546771E-02  0.1024861E+00
         21   -1    0    0  502  501  0.00000000000E+00  0.00000000000E+00  0.41770831107E+03  0.41770831107E+03  0.00000000000E+00 0. -1.
         21   -1    0    0  501  502 -0.00000000000E+00 -0.00000000000E+00 -0.12649276264E+03  0.12649276264E+03  0.00000000000E+00 0. -1.
      99926    2    1    2    0    0  0.00000000000E+00  0.00000000000E+00  0.29121554842E+03  0.54420107371E+03  0.45972634576E+03 0.  0.
      99925    2    3    3    0    0 -0.10489738858E+03  0.40489554175E+02  0.13948776235E+03  0.31768022413E+03  0.26233761231E+03 0.  0.
         25    1    4    4    0    0 -0.48531984548E+02  0.31815377214E+02  0.11161566568E+03  0.17740669851E+03  0.12509000000E+03 0.  0.
         25    1    4    4    0    0 -0.56365404028E+02  0.86741769606E+01  0.27872096667E+02  0.14027352562E+03  0.12509000000E+03 0.  0.
         25    1    3    3    0    0  0.10489738858E+03 -0.40489554175E+02  0.15172778607E+03  0.22652084958E+03  0.12509000000E+03 0.  0.
<mgrwt>
<rscale>  2 0.45972635E+03</rscale>
<asrwt>0</asrwt>
<pdfrwt beam="1">  1       21 0.61427692E-01 0.45972635E+03</pdfrwt>
<pdfrwt beam="2">  1       21 0.18601877E-01 0.45972635E+03</pdfrwt>
<totfact> 0.59976524E+04</totfact>
</mgrwt>
</event>
<event>
 7    0  0.4737014E-002  0.4450664E+03  0.7546771E-02  0.1029204E+00
         21   -1    0    0  502  501  0.00000000000E+00  0.00000000000E+00  0.19939629179E+03  0.19939629179E+03  0.00000000000E+00 0. -1.
         21   -1    0    0  501  502 -0.00000000000E+00 -0.00000000000E+00 -0.24835479834E+03  0.24835479834E+03  0.00000000000E+00 0. -1.
      99926    2    1    2    0    0  0.88817841970E-15  0.00000000000E+00 -0.48958506545E+02  0.44775109013E+03  0.44506640330E+03 0.  0.
      99925    2    3    3    0    0 -0.41928279289E+01 -0.99921761007E+02 -0.41695139774E+01  0.28145166114E+03  0.26305078327E+03 0.  0.
         25    1    4    4    0    0  0.34822578908E+00 -0.57002735129E+02 -0.42149737293E+02  0.14378296675E+03  0.12509000000E+03 0.  0.
         25    1    3    3    0    0  0.41928279289E+01  0.99921761007E+02 -0.44788992568E+02  0.16629942899E+03  0.12509000000E+03 0.  0.
         25    1    4    4    0    0 -0.45410537180E+01 -0.42919025877E+02  0.37980223316E+02  0.13766869439E+03  0.12509000000E+03 0.  0.
<mgrwt>
<rscale>  2 0.44506640E+03</rscale>
<asrwt>0</asrwt>
<pdfrwt beam="1">  1       21 0.29322984E-01 0.44506640E+03</pdfrwt>
<pdfrwt beam="2">  1       21 0.36522764E-01 0.44506640E+03</pdfrwt>
<totfact> 0.74837777E+04</totfact>
</mgrwt>
</event>
<event>
 7    0  0.4737014E-002  0.4523115E+03  0.7546771E-02  0.1027035E+00
         21   -1    0    0  502  501  0.00000000000E+00  0.00000000000E+00  0.99103638939E+02  0.99103638939E+02  0.00000000000E+00 0. -1.
         21   -1    0    0  501  502 -0.00000000000E+00 -0.00000000000E+00 -0.51609017279E+03  0.51609017279E+03  0.00000000000E+00 0. -1.
      99926    2    1    2    0    0  0.00000000000E+00  0.00000000000E+00 -0.41698653385E+03  0.61519381173E+03  0.45231145970E+03 0.  0.
      99925    2    3    3    0    0  0.84756039755E+02  0.28841116647E+02 -0.17573163006E+03  0.32907000463E+03  0.26341994203E+03 0.  0.
         25    1    4    4    0    0  0.46061490256E+02 -0.21725684096E+01 -0.43051831147E+02  0.14009764168E+03  0.12509000000E+03 0.  0.
         25    1    3    3    0    0 -0.84756039755E+02 -0.28841116647E+02 -0.24125490379E+03  0.28612380710E+03  0.12509000000E+03 0.  0.
         25    1    4    4    0    0  0.38694549499E+02  0.31013685056E+02 -0.13267979891E+03  0.18897236295E+03  0.12509000000E+03 0.  0.
<mgrwt>
<rscale>  2 0.45231146E+03</rscale>
<asrwt>0</asrwt>
<pdfrwt beam="1">  1       21 0.14574065E-01 0.45231146E+03</pdfrwt>
<pdfrwt beam="2">  1       21 0.75895612E-01 0.45231146E+03</pdfrwt>
<totfact> 0.58995364E+04</totfact>
</mgrwt>
</event>
<event>
 7    0  0.4737014E-002  0.4579721E+03  0.7546771E-02  0.1025371E+00
         21   -1    0    0  502  501  0.00000000000E+00  0.00000000000E+00  0.53889764642E+03  0.53889764642E+03  0.00000000000E+00 0. -1.
         21   -1    0    0  501  502 -0.00000000000E+00 -0.00000000000E+00 -0.97299754846E+02  0.97299754846E+02  0.00000000000E+00 0. -1.
      99926    2    1    2    0    0  0.14210854715E-13  0.00000000000E+00  0.44159789157E+03  0.63619740127E+03  0.45797209034E+03 0.  0.
      99925    2    3    3    0    0 -0.10733401747E+03  0.73963368393E+01  0.33688103104E+03  0.44077880930E+03  0.26310042294E+03 0.  0.
         25    1    3    3    0    0  0.10733401747E+03 -0.73963368393E+01  0.10471686054E+03  0.19541859197E+03  0.12509000000E+03 0.  0.
         25    1    4    4    0    0 -0.66911428057E+02 -0.25914199103E+02  0.13473273665E+03  0.19735527190E+03  0.12509000000E+03 0.  0.
         25    1    4    4    0    0 -0.40422589413E+02  0.33310535942E+02  0.20214829438E+03  0.24342353740E+03  0.12509000000E+03 0.  0.
<mgrwt>
<rscale>  2 0.45797209E+03</rscale>
<asrwt>0</asrwt>
<pdfrwt beam="1">  1       21 0.79249652E-01 0.45797209E+03</pdfrwt>
<pdfrwt beam="2">  1       21 0.14308788E-01 0.45797209E+03</pdfrwt>
<totfact> 0.55197495E+04</totfact>
</mgrwt>
</event>
<event>
 7    0  0.4737014E-002  0.4134725E+03  0.7546771E-02  0.1039212E+00
         21   -1    0    0  502  501  0.00000000000E+00  0.00000000000E+00  0.22802585325E+03  0.22802585325E+03  0.00000000000E+00 0.  1.
         21   -1    0    0  501  502 -0.00000000000E+00 -0.00000000000E+00 -0.18743438666E+03  0.18743438666E+03  0.00000000000E+00 0.  1.
      99926    2    1    2    0    0  0.71054273576E-14  0.00000000000E+00  0.40591466588E+02  0.41546023992E+03  0.41347254297E+03 0.  0.
      99925    2    3    3    0    0  0.43666603003E+02 -0.44641767270E+02  0.52087946507E+02  0.27517718052E+03  0.26288717524E+03 0.  0.
         25    1    4    4    0    0 -0.14959118962E+02 -0.14909908073E+02  0.41479929259E+02  0.13346974650E+03  0.12509000000E+03 0.  0.
         25    1    4    4    0    0  0.58625721965E+02 -0.29731859197E+02  0.10608017249E+02  0.14170743402E+03  0.12509000000E+03 0.  0.
         25    1    3    3    0    0 -0.43666603003E+02  0.44641767270E+02 -0.11496479920E+02  0.14028305940E+03  0.12509000000E+03 0.  0.
<mgrwt>
<rscale>  2 0.41347254E+03</rscale>
<asrwt>0</asrwt>
<pdfrwt beam="1">  1       21 0.33533214E-01 0.41347254E+03</pdfrwt>
<pdfrwt beam="2">  1       21 0.27563880E-01 0.41347254E+03</pdfrwt>
<totfact> 0.10112098E+05</totfact>
</mgrwt>
</event>
<event>
 7    0  0.4737014E-002  0.4576656E+03  0.7546771E-02  0.1025460E+00
         21   -1    0    0  502  501  0.00000000000E+00  0.00000000000E+00  0.10935464474E+03  0.10935464474E+03  0.00000000000E+00 0. -1.
         21   -1    0    0  501  502 -0.00000000000E+00 -0.00000000000E+00 -0.47884979861E+03  0.47884979861E+03  0.00000000000E+00 0. -1.
      99926    2    1    2    0    0  0.00000000000E+00 -0.35527136788E-14 -0.36949515386E+03  0.58820444335E+03  0.45766559675E+03 0.  0.
      99925    2    3    3    0    0 -0.73746489514E+01 -0.17794686398E+02 -0.85613678234E+02  0.27738739650E+03  0.26314070290E+03 0.  0.
         25    1    4    4    0    0 -0.89433999606E+01  0.30469333275E+02 -0.31899231976E+02  0.13294146747E+03  0.12509000000E+03 0.  0.
         25    1    4    4    0    0  0.15687510092E+01 -0.48264019673E+02 -0.53714446258E+02  0.14444592902E+03  0.12509000000E+03 0.  0.
         25    1    3    3    0    0  0.73746489514E+01  0.17794686398E+02 -0.28388147563E+03  0.31081704685E+03  0.12509000000E+03 0.  0.
<mgrwt>
<rscale>  2 0.45766560E+03</rscale>
<asrwt>0</asrwt>
<pdfrwt beam="1">  1       21 0.16081565E-01 0.45766560E+03</pdfrwt>
<pdfrwt beam="2">  1       21 0.70419088E-01 0.45766560E+03</pdfrwt>
<totfact> 0.58174849E+04</totfact>
</mgrwt>
</event>
<event>
 7    0  0.4737014E-002  0.4469222E+03  0.7546771E-02  0.1028644E+00
         21   -1    0    0  502  501  0.00000000000E+00  0.00000000000E+00  0.20056282844E+04  0.20056282844E+04  0.00000000000E+00 0.  1.
         21   -1    0    0  501  502 -0.00000000000E+00 -0.00000000000E+00 -0.24897364169E+02  0.24897364169E+02  0.00000000000E+00 0.  1.
      99926    2    1    2    0    0  0.00000000000E+00 -0.71054273576E-14  0.19807309203E+04  0.20305256486E+04  0.44692217571E+03 0.  0.
      99925    2    3    3    0    0 -0.89081564129E+02  0.55718856180E+02  0.12964996773E+04  0.13270627725E+04  0.26295260621E+03 0.  0.
         25    1    4    4    0    0 -0.33540404058E+02  0.57485740653E+02  0.54003783397E+03  0.55831705983E+03  0.12509000000E+03 0.  0.
         25    1    3    3    0    0  0.89081564129E+02 -0.55718856180E+02  0.68423124302E+03  0.70346287608E+03  0.12509000000E+03 0.  0.
         25    1    4    4    0    0 -0.55541160070E+02 -0.17668844738E+01  0.75646184328E+03  0.76874571270E+03  0.12509000000E+03 0.  0.
<mgrwt>
<rscale>  2 0.44692218E+03</rscale>
<asrwt>0</asrwt>
<pdfrwt beam="1">  1       21 0.29494523E+00 0.44692218E+03</pdfrwt>
<pdfrwt beam="2">  1       21 0.36613785E-02 0.44692218E+03</pdfrwt>
<totfact> 0.14080140E+04</totfact>
</mgrwt>
</event>
<event>
 7    0  0.4737014E-002  0.4382399E+03  0.7546771E-02  0.1031288E+00
         21   -1    0    0  502  501  0.00000000000E+00  0.00000000000E+00  0.37844307051E+03  0.37844307051E+03  0.00000000000E+00 0. -1.
         21   -1    0    0  501  502 -0.00000000000E+00 -0.00000000000E+00 -0.12687129538E+03  0.12687129538E+03  0.00000000000E+00 0. -1.
      99926    2    1    2    0    0  0.00000000000E+00  0.00000000000E+00  0.25157177513E+03  0.50531436589E+03  0.43823994607E+03 0.  0.
      99925    2    3    3    0    0  0.36650825945E+02 -0.44608362674E+02  0.71409662918E+02  0.27851250558E+03  0.26293856077E+03 0.  0.
         25    1    4    4    0    0  0.17207883080E+02 -0.58223064160E+02  0.17105121797E+02  0.14009328939E+03  0.12509000000E+03 0.  0.
         25    1    4    4    0    0  0.19442942865E+02  0.13614701486E+02  0.54304541121E+02  0.13841921619E+03  0.12509000000E+03 0.  0.
         25    1    3    3    0    0 -0.36650825945E+02  0.44608362674E+02  0.18016211221E+03  0.22680186031E+03  0.12509000000E+03 0.  0.
<mgrwt>
<rscale>  2 0.43823995E+03</rscale>
<asrwt>0</asrwt>
<pdfrwt beam="1">  1       21 0.55653393E-01 0.43823995E+03</pdfrwt>
<pdfrwt beam="2">  1       21 0.18657543E-01 0.43823995E+03</pdfrwt>
<totfact> 0.74298652E+04</totfact>
</mgrwt>
</event>
<event>
 7    0  0.4737014E-002  0.4562984E+03  0.7546771E-02  0.1025860E+00
         21   -1    0    0  502  501  0.00000000000E+00  0.00000000000E+00  0.12015390329E+03  0.12015390329E+03  0.00000000000E+00 0. -1.
         21   -1    0    0  501  502 -0.00000000000E+00 -0.00000000000E+00 -0.43321158464E+03  0.43321158464E+03  0.00000000000E+00 0. -1.
      99926    2    1    2    0    0  0.71054273576E-14  0.00000000000E+00 -0.31305768136E+03  0.55336548793E+03  0.45629842359E+03 0.  0.
      99925    2    3    3    0    0  0.51578729406E+02  0.64907679872E+02 -0.29227677116E+03  0.40186391512E+03  0.26305041928E+03 0.  0.
         25    1    4    4    0    0  0.28302543395E+02  0.37344196536E+02 -0.89142629063E+02  0.16059121830E+03  0.12509000000E+03 0.  0.
         25    1    4    4    0    0  0.23276186011E+02  0.27563483336E+02 -0.20313414209E+03  0.24127269683E+03  0.12509000000E+03 0.  0.
         25    1    3    3    0    0 -0.51578729406E+02 -0.64907679872E+02 -0.20780910198E+02  0.15150157280E+03  0.12509000000E+03 0.  0.
<mgrwt>
<rscale>  2 0.45629842E+03</rscale>
<asrwt>0</asrwt>
<pdfrwt beam="1">  1       21 0.17669692E-01 0.45629842E+03</pdfrwt>
<pdfrwt beam="2">  1       21 0.63707585E-01 0.45629842E+03</pdfrwt>
<totfact> 0.61015485E+04</totfact>
</mgrwt>
</event>
<event>
 7    0  0.4737014E-002  0.4668272E+03  0.7546771E-02  0.1022820E+00
         21   -1    0    0  502  501  0.00000000000E+00  0.00000000000E+00  0.90093888352E+03  0.90093888352E+03  0.00000000000E+00 0.  1.
         21   -1    0    0  501  502 -0.00000000000E+00 -0.00000000000E+00 -0.60472364698E+02  0.60472364698E+02  0.00000000000E+00 0.  1.
      99926    2    1    2    0    0  0.00000000000E+00  0.35527136788E-14  0.84046651882E+03  0.96141124821E+03  0.46682718316E+03 0.  0.
      99925    2    3    3    0    0  0.40436321792E+02 -0.24453271353E+02  0.75943314409E+03  0.80505596522E+03  0.26295122778E+03 0.  0.
         25    1    3    3    0    0 -0.40436321792E+02  0.24453271353E+02  0.81033374722E+02  0.15635528299E+03  0.12509000000E+03 0.  0.
         25    1    4    4    0    0  0.24896723049E+02 -0.32598436742E+02  0.49176455292E+03  0.50907994313E+03  0.12509000000E+03 0.  0.
         25    1    4    4    0    0  0.15539598744E+02  0.81451653893E+01  0.26766859118E+03  0.29597602209E+03  0.12509000000E+03 0.  0.
<mgrwt>
<rscale>  2 0.46682718E+03</rscale>
<asrwt>0</asrwt>
<pdfrwt beam="1">  1       21 0.13249100E+00 0.46682718E+03</pdfrwt>
<pdfrwt beam="2">  1       21 0.88929953E-02 0.46682718E+03</pdfrwt>
<totfact> 0.37127932E+04</totfact>
</mgrwt>
</event>
<event>
 7    0  0.4737014E-002  0.4605952E+03  0.7546771E-02  0.1024609E+00
         21   -1    0    0  502  501  0.00000000000E+00  0.00000000000E+00  0.70561515508E+02  0.70561515508E+02  0.00000000000E+00 0.  1.
         21   -1    0    0  501  502 -0.00000000000E+00 -0.00000000000E+00 -0.75164180079E+03  0.75164180079E+03  0.00000000000E+00 0.  1.
      99926    2    1    2    0    0  0.14210854715E-13  0.14210854715E-13 -0.68108028529E+03  0.82220331630E+03  0.46059520008E+03 0.  0.
      99925    2    3    3    0    0 -0.74867993958E+02 -0.72632384395E+02 -0.52492389486E+03  0.59656421031E+03  0.26355849796E+03 0.  0.
         25    1    4    4    0    0 -0.69811074810E+02 -0.48792249684E+02 -0.33797559265E+03  0.37030970703E+03  0.12509000000E+03 0.  0.
         25    1    3    3    0    0  0.74867993958E+02  0.72632384395E+02 -0.15615639043E+03  0.22563910599E+03  0.12509000000E+03 0.  0.
         25    1    4    4    0    0 -0.50569191480E+01 -0.23840134712E+02 -0.18694830221E+03  0.22625450328E+03  0.12509000000E+03 0.  0.
<mgrwt>
<rscale>  2 0.46059520E+03</rscale>
<asrwt>0</asrwt>
<pdfrwt beam="1">  1       21 0.10376693E-01 0.46059520E+03</pdfrwt>
<pdfrwt beam="2">  1       21 0.11053556E+00 0.46059520E+03</pdfrwt>
<totfact> 0.44713907E+04</totfact>
</mgrwt>
</event>
<event>
 7    0  0.4737014E-002  0.4570581E+03  0.7546771E-02  0.1025638E+00
         21   -1    0    0  502  501  0.00000000000E+00  0.00000000000E+00  0.17093646732E+03  0.17093646732E+03  0.00000000000E+00 0.  1.
         21   -1    0    0  501  502 -0.00000000000E+00 -0.00000000000E+00 -0.30552601040E+03  0.30552601040E+03  0.00000000000E+00 0.  1.
      99926    2    1    2    0    0  0.00000000000E+00 -0.14210854715E-13 -0.13458954308E+03  0.47646247773E+03  0.45705814464E+03 0.  0.
      99925    2    3    3    0    0  0.61226905382E+02 -0.97501782784E+02 -0.86821524324E+02  0.29987079246E+03  0.26292429233E+03 0.  0.
         25    1    3    3    0    0 -0.61226905382E+02  0.97501782784E+02 -0.47768018756E+02  0.17659168526E+03  0.12509000000E+03 0.  0.
         25    1    4    4    0    0  0.68856484503E+02 -0.68266773042E+02 -0.44571501170E+02  0.16442534651E+03  0.12509000000E+03 0.  0.
         25    1    4    4    0    0 -0.76295791209E+01 -0.29235009742E+02 -0.42250023154E+02  0.13544544595E+03  0.12509000000E+03 0.  0.
<mgrwt>
<rscale>  2 0.45705814E+03</rscale>
<asrwt>0</asrwt>
<pdfrwt beam="1">  1       21 0.25137716E-01 0.45705814E+03</pdfrwt>
<pdfrwt beam="2">  1       21 0.44930295E-01 0.45705814E+03</pdfrwt>
<totfact> 0.65875962E+04</totfact>
</mgrwt>
</event>
<event>
 7    0  0.4737014E-002  0.4695700E+03  0.7546771E-02  0.1022042E+00
         21   -1    0    0  502  501  0.00000000000E+00  0.00000000000E+00  0.59303640846E+03  0.59303640846E+03  0.00000000000E+00 0. -1.
         21   -1    0    0  501  502 -0.00000000000E+00 -0.00000000000E+00 -0.92952124537E+02  0.92952124537E+02  0.00000000000E+00 0. -1.
      99926    2    1    2    0    0 -0.71054273576E-14 -0.14210854715E-13  0.50008428392E+03  0.68598853300E+03  0.46956999093E+03 0.  0.
      99925    2    3    3    0    0  0.34452819668E+02  0.11365485231E+03  0.24760940457E+03  0.38021820246E+03  0.26296585712E+03 0.  0.
         25    1    4    4    0    0  0.47851113899E+02  0.81270134170E+02  0.11309934706E+03  0.19321887645E+03  0.12509000000E+03 0.  0.
         25    1    4    4    0    0 -0.13398294231E+02  0.32384718136E+02  0.13451005751E+03  0.18699932601E+03  0.12509000000E+03 0.  0.
         25    1    3    3    0    0 -0.34452819668E+02 -0.11365485231E+03  0.25247487935E+03  0.30577033054E+03  0.12509000000E+03 0.  0.
<mgrwt>
<rscale>  2 0.46956999E+03</rscale>
<asrwt>0</asrwt>
<pdfrwt beam="1">  1       21 0.87211235E-01 0.46956999E+03</pdfrwt>
<pdfrwt beam="2">  1       21 0.13669430E-01 0.46956999E+03</pdfrwt>
<totfact> 0.47927344E+04</totfact>
</mgrwt>
</event>
<event>
 7    0  0.4737014E-002  0.4515656E+03  0.7546771E-02  0.1027256E+00
         21   -1    0    0  502  501  0.00000000000E+00  0.00000000000E+00  0.12149168073E+03  0.12149168073E+03  0.00000000000E+00 0.  1.
         21   -1    0    0  501  502 -0.00000000000E+00 -0.00000000000E+00 -0.41959972344E+03  0.41959972344E+03  0.00000000000E+00 0.  1.
      99926    2    1    2    0    0  0.35527136788E-14  0.00000000000E+00 -0.29810804271E+03  0.54109140417E+03  0.45156561267E+03 0.  0.
      99925    2    3    3    0    0  0.19572754685E+02 -0.83077248956E+02 -0.10537724850E+03  0.29598410286E+03  0.26309181406E+03 0.  0.
         25    1    4    4    0    0  0.56377469800E+01  0.99567564581E+00 -0.48903648099E+02  0.13443158282E+03  0.12509000000E+03 0.  0.
         25    1    3    3    0    0 -0.19572754685E+02  0.83077248956E+02 -0.19273079421E+03  0.24510730131E+03  0.12509000000E+03 0.  0.
         25    1    4    4    0    0  0.13935007705E+02 -0.84072924601E+02 -0.56473600404E+02  0.16155252005E+03  0.12509000000E+03 0.  0.
<mgrwt>
<rscale>  2 0.45156561E+03</rscale>
<asrwt>0</asrwt>
<pdfrwt beam="1">  1       21 0.17866424E-01 0.45156561E+03</pdfrwt>
<pdfrwt beam="2">  1       21 0.61705841E-01 0.45156561E+03</pdfrwt>
<totfact> 0.64185835E+04</totfact>
</mgrwt>
</event>
<event>
 7    0  0.4737014E-002  0.4238938E+03  0.7546771E-02  0.1035806E+00
         21   -1    0    0  502  501  0.00000000000E+00  0.00000000000E+00  0.89636685446E+02  0.89636685446E+02  0.00000000000E+00 0. -1.
         21   -1    0    0  501  502 -0.00000000000E+00 -0.00000000000E+00 -0.50115077002E+03  0.50115077002E+03  0.00000000000E+00 0. -1.
      99926    2    1    2    0    0  0.00000000000E+00  0.00000000000E+00 -0.41151408457E+03  0.59078745547E+03  0.42389382601E+03 0.  0.
      99925    2    3    3    0    0 -0.32370278816E+02  0.62743042878E+02 -0.21494681579E+03  0.34733166146E+03  0.26353865950E+03 0.  0.
         25    1    3    3    0    0  0.32370278816E+02 -0.62743042878E+02 -0.19656726878E+03  0.24345579401E+03  0.12509000000E+03 0.  0.
         25    1    4    4    0    0 -0.22030681660E+02  0.53399883900E+02 -0.15664798827E+03  0.20862166441E+03  0.12509000000E+03 0.  0.
         25    1    4    4    0    0 -0.10339597156E+02  0.93431589787E+01 -0.58298827527E+02  0.13870999704E+03  0.12509000000E+03 0.  0.
<mgrwt>
<rscale>  2 0.42389383E+03</rscale>
<asrwt>0</asrwt>
<pdfrwt beam="1">  1       21 0.13181866E-01 0.42389383E+03</pdfrwt>
<pdfrwt beam="2">  1       21 0.73698640E-01 0.42389383E+03</pdfrwt>
<totfact> 0.76357710E+04</totfact>
</mgrwt>
</event>
<event>
 7    0  0.4737014E-002  0.4527568E+03  0.7546771E-02  0.1026903E+00
         21   -1    0    0  502  501  0.00000000000E+00  0.00000000000E+00  0.48236475368E+03  0.48236475368E+03  0.00000000000E+00 0. -1.
         21   -1    0    0  501  502 -0.00000000000E+00 -0.00000000000E+00 -0.10624155510E+03  0.10624155510E+03  0.00000000000E+00 0. -1.
      99926    2    1    2    0    0  0.71054273576E-14  0.00000000000E+00  0.37612319858E+03  0.58860630878E+03  0.45275680694E+03 0.  0.
      99925    2    3    3    0    0  0.49678039140E+02 -0.69120887039E+02  0.32992449730E+03  0.43040569975E+03  0.26297012732E+03 0.  0.
         25    1    4    4    0    0  0.55369419400E+02 -0.79858918973E+01  0.16052683742E+03  0.21105904554E+03  0.12509000000E+03 0.  0.
         25    1    4    4    0    0 -0.56913802599E+01 -0.61134995142E+02  0.16939765988E+03  0.21934665421E+03  0.12509000000E+03 0.  0.
         25    1    3    3    0    0 -0.49678039140E+02  0.69120887039E+02  0.46198701282E+02  0.15820060903E+03  0.12509000000E+03 0.  0.
<mgrwt>
<rscale>  2 0.45275681E+03</rscale>
<asrwt>0</asrwt>
<pdfrwt beam="1">  1       21 0.70935992E-01 0.45275681E+03</pdfrwt>
<pdfrwt beam="2">  1       21 0.15623758E-01 0.45275681E+03</pdfrwt>
<totfact> 0.60449761E+04</totfact>
</mgrwt>
</event>
<event>
 7    0  0.4737014E-002  0.4498268E+03  0.7546771E-02  0.1027774E+00
         21   -1    0    0  502  501  0.00000000000E+00  0.00000000000E+00  0.16693002003E+03  0.16693002003E+03  0.00000000000E+00 0. -1.
         21   -1    0    0  501  502 -0.00000000000E+00 -0.00000000000E+00 -0.30303744880E+03  0.30303744880E+03  0.00000000000E+00 0. -1.
      99926    2    1    2    0    0  0.00000000000E+00  0.00000000000E+00 -0.13610742877E+03  0.46996746883E+03  0.44982684401E+03 0.  0.
      99925    2    3    3    0    0  0.40163840438E+02  0.85173837375E+02 -0.29778123249E+02  0.28070271785E+03  0.26275380593E+03 0.  0.
         25    1    4    4    0    0  0.19750641068E+01  0.29049923841E+02 -0.48224806345E+02  0.13718942744E+03  0.12509000000E+03 0.  0.
         25    1    3    3    0    0 -0.40163840438E+02 -0.85173837375E+02 -0.10632930552E+03  0.18926475098E+03  0.12509000000E+03 0.  0.
         25    1    4    4    0    0  0.38188776331E+02  0.56123913534E+02  0.18446683096E+02  0.14351329041E+03  0.12509000000E+03 0.  0.
<mgrwt>
<rscale>  2 0.44982684E+03</rscale>
<asrwt>0</asrwt>
<pdfrwt beam="1">  1       21 0.24548532E-01 0.44982684E+03</pdfrwt>
<pdfrwt beam="2">  1       21 0.44564331E-01 0.44982684E+03</pdfrwt>
<totfact> 0.70278867E+04</totfact>
</mgrwt>
</event>
<event>
 7    0  0.4737014E-002  0.4518503E+03  0.7546771E-02  0.1027172E+00
         21   -1    0    0  502  501  0.00000000000E+00  0.00000000000E+00  0.23885899354E+03  0.23885899354E+03  0.00000000000E+00 0. -1.
         21   -1    0    0  501  502 -0.00000000000E+00 -0.00000000000E+00 -0.21369160773E+03  0.21369160773E+03  0.00000000000E+00 0. -1.
      99926    2    1    2    0    0 -0.71054273576E-14 -0.35527136788E-14  0.25167385807E+02  0.45255060127E+03  0.45185025108E+03 0.  0.
      99925    2    3    3    0    0  0.56473865741E+02  0.23738710623E+02 -0.75891972144E+02  0.28046537290E+03  0.26296085273E+03 0.  0.
         25    1    4    4    0    0  0.53793697953E+02  0.22525810761E+02 -0.71087549369E+02  0.15524858088E+03  0.12509000000E+03 0.  0.
         25    1    3    3    0    0 -0.56473865741E+02 -0.23738710623E+02  0.10105935795E+03  0.17208522837E+03  0.12509000000E+03 0.  0.
         25    1    4    4    0    0  0.26801677881E+01  0.12128998623E+01 -0.48044227746E+01  0.12521679202E+03  0.12509000000E+03 0.  0.
<mgrwt>
<rscale>  2 0.45185025E+03</rscale>
<asrwt>0</asrwt>
<pdfrwt beam="1">  1       21 0.35126323E-01 0.45185025E+03</pdfrwt>
<pdfrwt beam="2">  1       21 0.31425236E-01 0.45185025E+03</pdfrwt>
<totfact> 0.70480318E+04</totfact>
</mgrwt>
</event>
<event>
 7    0  0.4737014E-002  0.4339953E+03  0.7546771E-02  0.1032605E+00
         21   -1    0    0  502  501  0.00000000000E+00  0.00000000000E+00  0.62065394982E+03  0.62065394982E+03  0.00000000000E+00 0. -1.
         21   -1    0    0  501  502 -0.00000000000E+00 -0.00000000000E+00 -0.75868349270E+02  0.75868349270E+02  0.00000000000E+00 0. -1.
      99926    2    1    2    0    0  0.00000000000E+00  0.00000000000E+00  0.54478560055E+03  0.69652229909E+03  0.43399534855E+03 0.  0.
      99925    2    3    3    0    0 -0.37705090782E+02 -0.47123780557E+02  0.23778430092E+03  0.35956587663E+03  0.26287624713E+03 0.  0.
         25    1    4    4    0    0 -0.34790840261E+02 -0.84337376454E+01  0.73401075008E+02  0.14938793930E+03  0.12509000000E+03 0.  0.
         25    1    4    4    0    0 -0.29142505215E+01 -0.38690042912E+02  0.16438322591E+03  0.21017793733E+03  0.12509000000E+03 0.  0.
         25    1    3    3    0    0  0.37705090782E+02  0.47123780557E+02  0.30700129963E+03  0.33695642246E+03  0.12509000000E+03 0.  0.
<mgrwt>
<rscale>  2 0.43399535E+03</rscale>
<asrwt>0</asrwt>
<pdfrwt beam="1">  1       21 0.91272637E-01 0.43399535E+03</pdfrwt>
<pdfrwt beam="2">  1       21 0.11157111E-01 0.43399535E+03</pdfrwt>
<totfact> 0.62856401E+04</totfact>
</mgrwt>
</event>
<event>
 7    0  0.4737014E-002  0.4882308E+03  0.7546771E-02  0.1016897E+00
         21   -1    0    0  502  501  0.00000000000E+00  0.00000000000E+00  0.22857761052E+03  0.22857761052E+03  0.00000000000E+00 0. -1.
         21   -1    0    0  501  502 -0.00000000000E+00 -0.00000000000E+00 -0.26070938776E+03  0.26070938776E+03  0.00000000000E+00 0. -1.
      99926    2    1    2    0    0  0.00000000000E+00  0.00000000000E+00 -0.32131777238E+02  0.48928699828E+03  0.48823080154E+03 0.  0.
      99925    2    3    3    0    0 -0.53682394628E+02  0.11769759921E+03 -0.78752184904E+02  0.30339591494E+03  0.26289284931E+03 0.  0.
         25    1    4    4    0    0 -0.23900661008E+02  0.97907287180E+02 -0.24752170545E+02  0.16253386271E+03  0.12509000000E+03 0.  0.
         25    1    3    3    0    0  0.53682394628E+02 -0.11769759921E+03  0.46620407666E+02  0.18589108334E+03  0.12509000000E+03 0.  0.
         25    1    4    4    0    0 -0.29781733620E+02  0.19790312034E+02 -0.54000014359E+02  0.14086205223E+03  0.12509000000E+03 0.  0.
<mgrwt>
<rscale>  2 0.48823080E+03</rscale>
<asrwt>0</asrwt>
<pdfrwt beam="1">  1       21 0.33614355E-01 0.48823080E+03</pdfrwt>
<pdfrwt beam="2">  1       21 0.38339616E-01 0.48823080E+03</pdfrwt>
<totfact> 0.51138976E+04</totfact>
</mgrwt>
</event>
<event>
 7    0  0.4737014E-002  0.4373501E+03  0.7546771E-02  0.1031563E+00
         21   -1    0    0  502  501  0.00000000000E+00  0.00000000000E+00  0.57057615277E+03  0.57057615277E+03  0.00000000000E+00 0. -1.
         21   -1    0    0  501  502 -0.00000000000E+00 -0.00000000000E+00 -0.83807885875E+02  0.83807885875E+02  0.00000000000E+00 0. -1.
      99926    2    1    2    0    0  0.00000000000E+00 -0.71054273576E-14  0.48676826689E+03  0.65438403864E+03  0.43735011647E+03 0.  0.
      99925    2    3    3    0    0  0.42247956060E+02  0.62476489418E+02  0.39964866791E+03  0.48430895479E+03  0.26295989125E+03 0.  0.
         25    1    3    3    0    0 -0.42247956060E+02 -0.62476489418E+02  0.87119598982E+02  0.17007508385E+03  0.12509000000E+03 0.  0.
         25    1    4    4    0    0  0.14659286596E+02 -0.54860552647E+01  0.21861715080E+03  0.25236076995E+03  0.12509000000E+03 0.  0.
         25    1    4    4    0    0  0.27588669465E+02  0.67962544683E+02  0.18103151711E+03  0.23194818484E+03  0.12509000000E+03 0.  0.
<mgrwt>
<rscale>  2 0.43735012E+03</rscale>
<asrwt>0</asrwt>
<pdfrwt beam="1">  1       21 0.83908256E-01 0.43735012E+03</pdfrwt>
<pdfrwt beam="2">  1       21 0.12324689E-01 0.43735012E+03</pdfrwt>
<totfact> 0.63884974E+04</totfact>
</mgrwt>
</event>
<event>
 7    0  0.4737014E-002  0.4579456E+03  0.7546771E-02  0.1025379E+00
         21   -1    0    0  502  501  0.00000000000E+00  0.00000000000E+00  0.83328888680E+03  0.83328888680E+03  0.00000000000E+00 0. -1.
         21   -1    0    0  501  502 -0.00000000000E+00 -0.00000000000E+00 -0.62917607706E+02  0.62917607706E+02  0.00000000000E+00 0. -1.
      99926    2    1    2    0    0  0.00000000000E+00  0.00000000000E+00  0.77037127909E+03  0.89620649450E+03  0.45794560064E+03 0.  0.
      99925    2    3    3    0    0  0.27610845415E+02  0.59155467996E+02  0.29603752022E+03  0.40133100402E+03  0.26299550040E+03 0.  0.
         25    1    4    4    0    0  0.19866283432E+02 -0.79328974935E+01  0.11597235449E+03  0.17191479048E+03  0.12509000000E+03 0.  0.
         25    1    4    4    0    0  0.77445619824E+01  0.67088365490E+02  0.18006516574E+03  0.22941621354E+03  0.12509000000E+03 0.  0.
         25    1    3    3    0    0 -0.27610845415E+02 -0.59155467996E+02  0.47433375887E+03  0.49487549048E+03  0.12509000000E+03 0.  0.
<mgrwt>
<rscale>  2 0.45794560E+03</rscale>
<asrwt>0</asrwt>
<pdfrwt beam="1">  1       21 0.12254248E+00 0.45794560E+03</pdfrwt>
<pdfrwt beam="2">  1       21 0.92525899E-02 0.45794560E+03</pdfrwt>
<totfact> 0.42411443E+04</totfact>
</mgrwt>
</event>
<event>
 7    0  0.4737014E-002  0.4558561E+03  0.7546771E-02  0.1025990E+00
         21   -1    0    0  502  501  0.00000000000E+00  0.00000000000E+00  0.13146767070E+04  0.13146767070E+04  0.00000000000E+00 0.  1.
         21   -1    0    0  501  502 -0.00000000000E+00 -0.00000000000E+00 -0.39516331125E+02  0.39516331125E+02  0.00000000000E+00 0.  1.
      99926    2    1    2    0    0  0.00000000000E+00  0.35527136788E-14  0.12751603758E+04  0.13541930381E+04  0.45585611798E+03 0.  0.
      99925    2    3    3    0    0 -0.10559802816E+03  0.27196062949E+02  0.70315878555E+03  0.75860601944E+03  0.26298335621E+03 0.  0.
         25    1    4    4    0    0 -0.72832497269E+02  0.49080327101E+02  0.40485683412E+03  0.43274705707E+03  0.12509000000E+03 0.  0.
         25    1    3    3    0    0  0.10559802816E+03 -0.27196062949E+02  0.57200159029E+03  0.59558701865E+03  0.12509000000E+03 0.  0.
         25    1    4    4    0    0 -0.32765530887E+02 -0.21884264152E+02  0.29830195142E+03  0.32585896237E+03  0.12509000000E+03 0.  0.
<mgrwt>
<rscale>  2 0.45585612E+03</rscale>
<asrwt>0</asrwt>
<pdfrwt beam="1">  1       21 0.19333478E+00 0.45585612E+03</pdfrwt>
<pdfrwt beam="2">  1       21 0.58112260E-02 0.45585612E+03</pdfrwt>
<totfact> 0.27395893E+04</totfact>
</mgrwt>
</event>
<event>
 7    0  0.4737014E-002  0.4488276E+03  0.7546771E-02  0.1028072E+00
         21   -1    0    0  502  501  0.00000000000E+00  0.00000000000E+00  0.25448033692E+03  0.25448033692E+03  0.00000000000E+00 0. -1.
         21   -1    0    0  501  502 -0.00000000000E+00 -0.00000000000E+00 -0.19789958315E+03  0.19789958315E+03  0.00000000000E+00 0. -1.
      99926    2    1    2    0    0  0.00000000000E+00  0.71054273576E-14  0.56580753765E+02  0.45237992007E+03  0.44882759539E+03 0.  0.
      99925    2    3    3    0    0  0.76047703886E+02 -0.48367093511E+02  0.94515835535E+02  0.29360584306E+03  0.26296105968E+03 0.  0.
         25    1    4    4    0    0  0.17478323771E+02 -0.20780808946E+02  0.78842146695E+01  0.12824586841E+03  0.12509000000E+03 0.  0.
         25    1    4    4    0    0  0.58569380116E+02 -0.27586284565E+02  0.86631620866E+02  0.16535997465E+03  0.12509000000E+03 0.  0.
         25    1    3    3    0    0 -0.76047703886E+02  0.48367093511E+02 -0.37935081770E+02  0.15877407701E+03  0.12509000000E+03 0.  0.
<mgrwt>
<rscale>  2 0.44882760E+03</rscale>
<asrwt>0</asrwt>
<pdfrwt beam="1">  1       21 0.37423579E-01 0.44882760E+03</pdfrwt>
<pdfrwt beam="2">  1       21 0.29102880E-01 0.44882760E+03</pdfrwt>
<totfact> 0.72229991E+04</totfact>
</mgrwt>
</event>
<event>
 7    0  0.4737014E-002  0.4554604E+03  0.7546771E-02  0.1026106E+00
         21   -1    0    0  502  501  0.00000000000E+00  0.00000000000E+00  0.55092194269E+03  0.55092194269E+03  0.00000000000E+00 0. -1.
         21   -1    0    0  501  502 -0.00000000000E+00 -0.00000000000E+00 -0.94135005435E+02  0.94135005435E+02  0.00000000000E+00 0. -1.
      99926    2    1    2    0    0 -0.35527136788E-14  0.14210854715E-13  0.45678693725E+03  0.64505694812E+03  0.45546038277E+03 0.  0.
      99925    2    3    3    0    0  0.16043428012E+02  0.11043697725E+03  0.25916817201E+03  0.38591528416E+03  0.26326554586E+03 0.  0.
         25    1    4    4    0    0 -0.31875993269E+02  0.46800596248E+02  0.13387356238E+03  0.19177073176E+03  0.12509000000E+03 0.  0.
         25    1    4    4    0    0  0.47919421281E+02  0.63636381001E+02  0.12529460963E+03  0.19414455240E+03  0.12509000000E+03 0.  0.
         25    1    3    3    0    0 -0.16043428012E+02 -0.11043697725E+03  0.19761876524E+03  0.25914166396E+03  0.12509000000E+03 0.  0.
<mgrwt>
<rscale>  2 0.45546038E+03</rscale>
<asrwt>0</asrwt>
<pdfrwt beam="1">  1       21 0.81017931E-01 0.45546038E+03</pdfrwt>
<pdfrwt beam="2">  1       21 0.13843383E-01 0.45546038E+03</pdfrwt>
<totfact> 0.55784244E+04</totfact>
</mgrwt>
</event>
<event>
 7    0  0.4737014E-002  0.4605659E+03  0.7546771E-02  0.1024617E+00
         21   -1    0    0  502  501  0.00000000000E+00  0.00000000000E+00  0.88618605756E+03  0.88618605756E+03  0.00000000000E+00 0. -1.
         21   -1    0    0  501  502 -0.00000000000E+00 -0.00000000000E+00 -0.59840987089E+02  0.59840987089E+02  0.00000000000E+00 0. -1.
      99926    2    1    2    0    0  0.00000000000E+00  0.14210854715E-13  0.82634507047E+03  0.94602704464E+03  0.46056594937E+03 0.  0.
      99925    2    3    3    0    0 -0.24701552607E+02 -0.11080349239E+03  0.44963588850E+03  0.53317731835E+03  0.26309321532E+03 0.  0.
         25    1    4    4    0    0  0.16103615406E+02 -0.78505644712E+02  0.19990125182E+03  0.24905919228E+03  0.12509000000E+03 0.  0.
         25    1    4    4    0    0 -0.40805168013E+02 -0.32297847677E+02  0.24973463668E+03  0.28411812607E+03  0.12509000000E+03 0.  0.
         25    1    3    3    0    0  0.24701552607E+02  0.11080349239E+03  0.37670918196E+03  0.41284972629E+03  0.12509000000E+03 0.  0.
<mgrwt>
<rscale>  2 0.46056595E+03</rscale>
<asrwt>0</asrwt>
<pdfrwt beam="1">  1       21 0.13032147E+00 0.46056595E+03</pdfrwt>
<pdfrwt beam="2">  1       21 0.88001457E-02 0.46056595E+03</pdfrwt>
<totfact> 0.39552236E+04</totfact>
</mgrwt>
</event>
<event>
 7    0  0.4737014E-002  0.4964215E+03  0.7546771E-02  0.1014717E+00
         21   -1    0    0  502  501  0.00000000000E+00  0.00000000000E+00  0.61183879126E+03  0.61183879126E+03  0.00000000000E+00 0. -1.
         21   -1    0    0  501  502 -0.00000000000E+00 -0.00000000000E+00 -0.10069412336E+03  0.10069412336E+03  0.00000000000E+00 0. -1.
      99926    2    1    2    0    0  0.00000000000E+00  0.00000000000E+00  0.51114466791E+03  0.71253291462E+03  0.49642147706E+03 0.  0.
      99925    2    3    3    0    0  0.39904883128E+02 -0.11138434498E+03  0.44030585387E+03  0.52634881842E+03  0.26301133378E+03 0.  0.
         25    1    4    4    0    0  0.14271358790E+02 -0.78111707442E+02  0.29468754450E+03  0.32983839604E+03  0.12509000000E+03 0.  0.
         25    1    3    3    0    0 -0.39904883128E+02  0.11138434498E+03  0.70838814037E+02  0.18618409620E+03  0.12509000000E+03 0.  0.
         25    1    4    4    0    0  0.25633524338E+02 -0.33272637537E+02  0.14561830937E+03  0.19651042238E+03  0.12509000000E+03 0.  0.
<mgrwt>
<rscale>  2 0.49642148E+03</rscale>
<asrwt>0</asrwt>
<pdfrwt beam="1">  1       21 0.89976291E-01 0.49642148E+03</pdfrwt>
<pdfrwt beam="2">  1       21 0.14807960E-01 0.49642148E+03</pdfrwt>
<totfact> 0.38170717E+04</totfact>
</mgrwt>
</event>
<event>
 7    0  0.4737014E-002  0.4571811E+03  0.7546771E-02  0.1025602E+00
         21   -1    0    0  502  501  0.00000000000E+00  0.00000000000E+00  0.14652320386E+03  0.14652320386E+03  0.00000000000E+00 0.  1.
         21   -1    0    0  501  502 -0.00000000000E+00 -0.00000000000E+00 -0.35662360322E+03  0.35662360322E+03  0.00000000000E+00 0.  1.
      99926    2    1    2    0    0  0.00000000000E+00 -0.17763568394E-14 -0.21010039936E+03  0.50314680709E+03  0.45718107099E+03 0.  0.
      99925    2    3    3    0    0  0.37767913874E+02 -0.24225488686E+01 -0.12661019051E+02  0.26637243969E+03  0.26336607822E+03 0.  0.
         25    1    4    4    0    0  0.44080493747E+02 -0.30258884893E+02 -0.21664448211E+02  0.13775175665E+03  0.12509000000E+03 0.  0.
         25    1    4    4    0    0 -0.63125798737E+01  0.27836336025E+02  0.90034291597E+01  0.12862068304E+03  0.12509000000E+03 0.  0.
         25    1    3    3    0    0 -0.37767913874E+02  0.24225488686E+01 -0.19743938031E+03  0.23677436740E+03  0.12509000000E+03 0.  0.
<mgrwt>
<rscale>  2 0.45718107E+03</rscale>
<asrwt>0</asrwt>
<pdfrwt beam="1">  1       21 0.21547530E-01 0.45718107E+03</pdfrwt>
<pdfrwt beam="2">  1       21 0.52444648E-01 0.45718107E+03</pdfrwt>
<totfact> 0.63936043E+04</totfact>
</mgrwt>
</event>
<event>
 7    0  0.4737014E-002  0.4425261E+03  0.7546771E-02  0.1029975E+00
         21   -1    0    0  502  501  0.00000000000E+00  0.00000000000E+00  0.95112933282E+02  0.95112933282E+02  0.00000000000E+00 0.  1.
         21   -1    0    0  501  502 -0.00000000000E+00 -0.00000000000E+00 -0.51472839571E+03  0.51472839571E+03  0.00000000000E+00 0.  1.
      99926    2    1    2    0    0 -0.71054273576E-14  0.00000000000E+00 -0.41961546242E+03  0.60984132899E+03  0.44252605600E+03 0.  0.
      99925    2    3    3    0    0  0.41755669935E+02 -0.61229454725E+02 -0.36188025853E+03  0.45340142370E+03  0.26291243295E+03 0.  0.
         25    1    4    4    0    0 -0.58262253191E+01 -0.42923694177E+02 -0.22525720306E+03  0.26127515009E+03  0.12509000000E+03 0.  0.
         25    1    4    4    0    0  0.47581895254E+02 -0.18305760547E+02 -0.13662305547E+03  0.19212627361E+03  0.12509000000E+03 0.  0.
         25    1    3    3    0    0 -0.41755669935E+02  0.61229454725E+02 -0.57735203889E+02  0.15643990529E+03  0.12509000000E+03 0.  0.
<mgrwt>
<rscale>  2 0.44252606E+03</rscale>
<asrwt>0</asrwt>
<pdfrwt beam="1">  1       21 0.13987196E-01 0.44252606E+03</pdfrwt>
<pdfrwt beam="2">  1       21 0.75695352E-01 0.44252606E+03</pdfrwt>
<totfact> 0.64168896E+04</totfact>
</mgrwt>
</event>
<event>
 7    0  0.4737014E-002  0.4519242E+03  0.7546771E-02  0.1027150E+00
         21   -1    0    0  502  501  0.00000000000E+00  0.00000000000E+00  0.73415686250E+02  0.73415686250E+02  0.00000000000E+00 0.  1.
         21   -1    0    0  501  502 -0.00000000000E+00 -0.00000000000E+00 -0.69547634258E+03  0.69547634258E+03  0.00000000000E+00 0.  1.
      99926    2    1    2    0    0  0.00000000000E+00 -0.71054273576E-14 -0.62206065633E+03  0.76889202883E+03  0.45192421029E+03 0.  0.
      99925    2    3    3    0    0 -0.84334190806E+01  0.52661046392E+02 -0.22821090145E+03  0.35222736044E+03  0.26294408063E+03 0.  0.
         25    1    3    3    0    0  0.84334190806E+01 -0.52661046392E+02 -0.39384975488E+03  0.41666466839E+03  0.12509000000E+03 0.  0.
         25    1    4    4    0    0 -0.30275237524E+00  0.51184257468E+02 -0.76078948612E+02  0.15509814439E+03  0.12509000000E+03 0.  0.
         25    1    4    4    0    0 -0.81306667054E+01  0.14767889241E+01 -0.15213195284E+03  0.19712921605E+03  0.12509000000E+03 0.  0.
<mgrwt>
<rscale>  2 0.45192421E+03</rscale>
<asrwt>0</asrwt>
<pdfrwt beam="1">  1       21 0.10796424E-01 0.45192421E+03</pdfrwt>
<pdfrwt beam="2">  1       21 0.10227594E+00 0.45192421E+03</pdfrwt>
<totfact> 0.50514915E+04</totfact>
</mgrwt>
</event>
<event>
 7    0  0.4737014E-002  0.4662792E+03  0.7546771E-02  0.1022976E+00
         21   -1    0    0  502  501  0.00000000000E+00  0.00000000000E+00  0.20694573250E+03  0.20694573250E+03  0.00000000000E+00 0.  1.
         21   -1    0    0  501  502 -0.00000000000E+00 -0.00000000000E+00 -0.26264897287E+03  0.26264897287E+03  0.00000000000E+00 0.  1.
      99926    2    1    2    0    0  0.17763568394E-14  0.00000000000E+00 -0.55703240370E+02  0.46959470537E+03  0.46627924715E+03 0.  0.
      99925    2    3    3    0    0  0.12622358572E+02  0.10217384314E+03 -0.10317583159E+03  0.30077535466E+03  0.26310025387E+03 0.  0.
         25    1    3    3    0    0 -0.12622358572E+02 -0.10217384314E+03  0.47472591216E+02  0.16881935071E+03  0.12509000000E+03 0.  0.
         25    1    4    4    0    0 -0.26390281103E+02  0.27017519836E+02 -0.36581523172E+02  0.13569122762E+03  0.12509000000E+03 0.  0.
         25    1    4    4    0    0  0.39012639674E+02  0.75156323309E+02 -0.66594308413E+02  0.16508412704E+03  0.12509000000E+03 0.  0.
<mgrwt>
<rscale>  2 0.46627925E+03</rscale>
<asrwt>0</asrwt>
<pdfrwt beam="1">  1       21 0.30433196E-01 0.46627925E+03</pdfrwt>
<pdfrwt beam="2">  1       21 0.38624849E-01 0.46627925E+03</pdfrwt>
<totfact> 0.61743224E+04</totfact>
</mgrwt>
</event>
<event>
 7    0  0.4737014E-002  0.4536791E+03  0.7546771E-02  0.1026631E+00
         21   -1    0    0  502  501  0.00000000000E+00  0.00000000000E+00  0.11473818841E+03  0.11473818841E+03  0.00000000000E+00 0.  1.
         21   -1    0    0  501  502 -0.00000000000E+00 -0.00000000000E+00 -0.44846612450E+03  0.44846612450E+03  0.00000000000E+00 0.  1.
      99926    2    1    2    0    0  0.00000000000E+00  0.14210854715E-13 -0.33372793610E+03  0.56320431291E+03  0.45367914075E+03 0.  0.
      99925    2    3    3    0    0  0.12602803591E+02  0.11010418815E+03 -0.19049252587E+03  0.34310057884E+03  0.26296167379E+03 0.  0.
         25    1    4    4    0    0  0.10775947584E+02  0.92710921667E+02 -0.12967182876E+03  0.20291310287E+03  0.12509000000E+03 0.  0.
         25    1    4    4    0    0  0.18268560067E+01  0.17393266487E+02 -0.60820697103E+02  0.14018747597E+03  0.12509000000E+03 0.  0.
         25    1    3    3    0    0 -0.12602803591E+02 -0.11010418815E+03 -0.14323541023E+03  0.22010373407E+03  0.12509000000E+03 0.  0.
<mgrwt>
<rscale>  2 0.45367914E+03</rscale>
<asrwt>0</asrwt>
<pdfrwt beam="1">  1       21 0.16873263E-01 0.45367914E+03</pdfrwt>
<pdfrwt beam="2">  1       21 0.65950901E-01 0.45367914E+03</pdfrwt>
<totfact> 0.61643771E+04</totfact>
</mgrwt>
</event>
<event>
 7    0  0.4737014E-002  0.4587344E+03  0.7546771E-02  0.1025149E+00
         21   -1    0    0  502  501  0.00000000000E+00  0.00000000000E+00  0.32167379342E+03  0.32167379342E+03  0.00000000000E+00 0.  1.
         21   -1    0    0  501  502 -0.00000000000E+00 -0.00000000000E+00 -0.16354866761E+03  0.16354866761E+03  0.00000000000E+00 0.  1.
      99926    2    1    2    0    0  0.00000000000E+00  0.00000000000E+00  0.15812512580E+03  0.48522246103E+03  0.45873443437E+03 0.  0.
      99925    2    3    3    0    0  0.35765877685E+02 -0.66615092212E+02  0.19315091313E+03  0.33491915969E+03  0.26295779084E+03 0.  0.
         25    1    3    3    0    0 -0.35765877685E+02  0.66615092212E+02 -0.35025787323E+02  0.15030330134E+03  0.12509000000E+03 0.  0.
         25    1    4    4    0    0  0.11905472998E+02 -0.12829947071E+02  0.49795423852E+02  0.13576980580E+03  0.12509000000E+03 0.  0.
         25    1    4    4    0    0  0.23860404688E+02 -0.53785145140E+02  0.14335548927E+03  0.19914935389E+03  0.12509000000E+03 0.  0.
<mgrwt>
<rscale>  2 0.45873443E+03</rscale>
<asrwt>0</asrwt>
<pdfrwt beam="1">  1       21 0.47304970E-01 0.45873443E+03</pdfrwt>
<pdfrwt beam="2">  1       21 0.24051275E-01 0.45873443E+03</pdfrwt>
<totfact> 0.64391749E+04</totfact>
</mgrwt>
</event>
<event>
 7    0  0.4737014E-002  0.4514942E+03  0.7546771E-02  0.1027277E+00
         21   -1    0    0  502  501  0.00000000000E+00  0.00000000000E+00  0.42390224539E+03  0.42390224539E+03  0.00000000000E+00 0.  1.
         21   -1    0    0  501  502 -0.00000000000E+00 -0.00000000000E+00 -0.12022055279E+03  0.12022055279E+03  0.00000000000E+00 0.  1.
      99926    2    1    2    0    0 -0.71054273576E-14 -0.14210854715E-13  0.30368169260E+03  0.54412279818E+03  0.45149424037E+03 0.  0.
      99925    2    3    3    0    0  0.42925211784E+02  0.98730251657E+02  0.21956015683E+03  0.35888193531E+03  0.26267726324E+03 0.  0.
         25    1    3    3    0    0 -0.42925211784E+02 -0.98730251657E+02  0.84121535772E+02  0.18524086288E+03  0.12509000000E+03 0.  0.
         25    1    4    4    0    0  0.50480268159E+01  0.86195658214E+02  0.10624642125E+03  0.18544806335E+03  0.12509000000E+03 0.  0.
         25    1    4    4    0    0  0.37877184968E+02  0.12534593444E+02  0.11331373557E+03  0.17343387196E+03  0.12509000000E+03 0.  0.
<mgrwt>
<rscale>  2 0.45149424E+03</rscale>
<asrwt>0</asrwt>
<pdfrwt beam="1">  1       21 0.62338565E-01 0.45149424E+03</pdfrwt>
<pdfrwt beam="2">  1       21 0.17679493E-01 0.45149424E+03</pdfrwt>
<totfact> 0.64013989E+04</totfact>
</mgrwt>
</event>
<event>
 7    0  0.4737014E-002  0.4576356E+03  0.7546771E-02  0.1025469E+00
         21   -1    0    0  502  501  0.00000000000E+00  0.00000000000E+00  0.37207642979E+02  0.37207642979E+02  0.00000000000E+00 0.  1.
         21   -1    0    0  501  502 -0.00000000000E+00 -0.00000000000E+00 -0.14071729887E+04  0.14071729887E+04  0.00000000000E+00 0.  1.
      99926    2    1    2    0    0  0.00000000000E+00  0.00000000000E+00 -0.13699653457E+04  0.14443806317E+04  0.45763562000E+03 0.  0.
      99925    2    3    3    0    0  0.38014390629E+02 -0.10416849943E+03 -0.75692781870E+03  0.80896054402E+03  0.26302332385E+03 0.  0.
         25    1    4    4    0    0  0.16088648215E+02 -0.82999825095E+02 -0.48761987655E+03  0.51045907541E+03  0.12509000000E+03 0.  0.
         25    1    4    4    0    0  0.21925742415E+02 -0.21168674331E+02 -0.26930794216E+03  0.29850146861E+03  0.12509000000E+03 0.  0.
         25    1    3    3    0    0 -0.38014390629E+02  0.10416849943E+03 -0.61303752704E+03  0.63542008768E+03  0.12509000000E+03 0.  0.
<mgrwt>
<rscale>  2 0.45763562E+03</rscale>
<asrwt>0</asrwt>
<pdfrwt beam="1">  1       21 0.54717127E-02 0.45763562E+03</pdfrwt>
<pdfrwt beam="2">  1       21 0.20693719E+00 0.45763562E+03</pdfrwt>
<totfact> 0.24664021E+04</totfact>
</mgrwt>
</event>
<event>
 7    0  0.4737014E-002  0.4599922E+03  0.7546771E-02  0.1024783E+00
         21   -1    0    0  502  501  0.00000000000E+00  0.00000000000E+00  0.61657204948E+03  0.61657204948E+03  0.00000000000E+00 0. -1.
         21   -1    0    0  501  502 -0.00000000000E+00 -0.00000000000E+00 -0.85794026767E+02  0.85794026767E+02  0.00000000000E+00 0. -1.
      99926    2    1    2    0    0  0.14210854715E-13  0.00000000000E+00  0.53077802271E+03  0.70236607624E+03  0.45999216914E+03 0.  0.
      99925    2    3    3    0    0  0.81508653340E+02 -0.53826266165E+02  0.23202476597E+03  0.36407338639E+03  0.26300762566E+03 0.  0.
         25    1    4    4    0    0  0.41597157389E+02 -0.67425534607E+02  0.11193744681E+03  0.18561795797E+03  0.12509000000E+03 0.  0.
         25    1    3    3    0    0 -0.81508653340E+02  0.53826266165E+02  0.29875325674E+03  0.33829268985E+03  0.12509000000E+03 0.  0.
         25    1    4    4    0    0  0.39911495951E+02  0.13599268442E+02  0.12008731916E+03  0.17845542842E+03  0.12509000000E+03 0.  0.
<mgrwt>
<rscale>  2 0.45999217E+03</rscale>
<asrwt>0</asrwt>
<pdfrwt beam="1">  1       21 0.90672358E-01 0.45999217E+03</pdfrwt>
<pdfrwt beam="2">  1       21 0.12616769E-01 0.45999217E+03</pdfrwt>
<totfact> 0.50751309E+04</totfact>
</mgrwt>
</event>
<event>
 7    0  0.4737014E-002  0.4706895E+03  0.7546771E-02  0.1021726E+00
         21   -1    0    0  502  501  0.00000000000E+00  0.00000000000E+00  0.21186531038E+03  0.21186531038E+03  0.00000000000E+00 0. -1.
         21   -1    0    0  501  502 -0.00000000000E+00 -0.00000000000E+00 -0.26142629357E+03  0.26142629357E+03  0.00000000000E+00 0. -1.
      99926    2    1    2    0    0  0.00000000000E+00  0.00000000000E+00 -0.49560983188E+02  0.47329160396E+03  0.47068954877E+03 0.  0.
      99925    2    3    3    0    0 -0.64636666014E+02 -0.22339836348E+02 -0.13887500483E+03  0.30506119813E+03  0.26286707811E+03 0.  0.
         25    1    3    3    0    0  0.64636666014E+02  0.22339836348E+02  0.89314021645E+02  0.16823040582E+03  0.12509000000E+03 0.  0.
         25    1    4    4    0    0 -0.32961685318E+02  0.25338686122E+02 -0.87501479455E+02  0.15821674602E+03  0.12509000000E+03 0.  0.
         25    1    4    4    0    0 -0.31674980696E+02 -0.47678522470E+02 -0.51373525379E+02  0.14684445211E+03  0.12509000000E+03 0.  0.
<mgrwt>
<rscale>  2 0.47068955E+03</rscale>
<asrwt>0</asrwt>
<pdfrwt beam="1">  1       21 0.31156663E-01 0.47068955E+03</pdfrwt>
<pdfrwt beam="2">  1       21 0.38445043E-01 0.47068955E+03</pdfrwt>
<totfact> 0.59430696E+04</totfact>
</mgrwt>
</event>
<event>
 7    0  0.4737014E-002  0.4544849E+03  0.7546771E-02  0.1026393E+00
         21   -1    0    0  502  501  0.00000000000E+00  0.00000000000E+00  0.31977856953E+02  0.31977856953E+02  0.00000000000E+00 0. -1.
         21   -1    0    0  501  502 -0.00000000000E+00 -0.00000000000E+00 -0.16148405344E+04  0.16148405344E+04  0.00000000000E+00 0. -1.
      99926    2    1    2    0    0  0.00000000000E+00  0.00000000000E+00 -0.15828626775E+04  0.16468183914E+04  0.45448493754E+03 0.  0.
      99925    2    3    3    0    0  0.75211044303E+02 -0.38772101933E+02 -0.72781509481E+03  0.77853626339E+03  0.26314240271E+03 0.  0.
         25    1    4    4    0    0  0.50575938133E+02 -0.57842998811E+02 -0.41499101710E+03  0.44019176549E+03  0.12509000000E+03 0.  0.
         25    1    3    3    0    0 -0.75211044303E+02  0.38772101933E+02 -0.85504758267E+03  0.86828212800E+03  0.12509000000E+03 0.  0.
         25    1    4    4    0    0  0.24635106170E+02  0.19070896877E+02 -0.31282407771E+03  0.33834449790E+03  0.12509000000E+03 0.  0.
<mgrwt>
<rscale>  2 0.45448494E+03</rscale>
<asrwt>0</asrwt>
<pdfrwt beam="1">  1       21 0.47026261E-02 0.45448494E+03</pdfrwt>
<pdfrwt beam="2">  1       21 0.23747654E+00 0.45448494E+03</pdfrwt>
<totfact> 0.20473932E+04</totfact>
</mgrwt>
</event>
<event>
 7    0  0.4737014E-002  0.4294322E+03  0.7546771E-02  0.1034039E+00
         21   -1    0    0  502  501  0.00000000000E+00  0.00000000000E+00  0.11825697042E+03  0.11825697042E+03  0.00000000000E+00 0.  1.
         21   -1    0    0  501  502 -0.00000000000E+00 -0.00000000000E+00 -0.38985441102E+03  0.38985441102E+03  0.00000000000E+00 0.  1.
      99926    2    1    2    0    0  0.00000000000E+00 -0.71054273576E-14 -0.27159744060E+03  0.50811138143E+03  0.42943219046E+03 0.  0.
      99925    2    3    3    0    0 -0.67259261770E+02 -0.55056504260E+02 -0.18024433074E+03  0.33049402379E+03  0.26302709754E+03 0.  0.
         25    1    3    3    0    0  0.67259261770E+02  0.55056504260E+02 -0.91353109859E+02  0.17761735764E+03  0.12509000000E+03 0.  0.
         25    1    4    4    0    0 -0.35902646570E+02  0.13558972336E+02 -0.89461849098E+02  0.15850481477E+03  0.12509000000E+03 0.  0.
         25    1    4    4    0    0 -0.31356615200E+02 -0.68615476596E+02 -0.90782481646E+02  0.17198920902E+03  0.12509000000E+03 0.  0.
<mgrwt>
<rscale>  2 0.42943219E+03</rscale>
<asrwt>0</asrwt>
<pdfrwt beam="1">  1       21 0.17390731E-01 0.42943219E+03</pdfrwt>
<pdfrwt beam="2">  1       21 0.57331531E-01 0.42943219E+03</pdfrwt>
<totfact> 0.79671398E+04</totfact>
</mgrwt>
</event>
<event>
 7    0  0.4737014E-002  0.4481261E+03  0.7546771E-02  0.1028282E+00
         21   -1    0    0  502  501  0.00000000000E+00  0.00000000000E+00  0.71398564386E+03  0.71398564386E+03  0.00000000000E+00 0.  1.
         21   -1    0    0  501  502 -0.00000000000E+00 -0.00000000000E+00 -0.70315495901E+02  0.70315495901E+02  0.00000000000E+00 0.  1.
      99926    2    1    2    0    0  0.17763568394E-14  0.00000000000E+00  0.64367014796E+03  0.78430113976E+03  0.44812611892E+03 0.  0.
      99925    2    3    3    0    0  0.13821354352E+02 -0.70991719755E+02  0.54446578161E+03  0.60903029646E+03  0.26314266197E+03 0.  0.
         25    1    3    3    0    0 -0.13821354352E+02  0.70991719755E+02  0.99204366349E+02  0.17527084330E+03  0.12509000000E+03 0.  0.
         25    1    4    4    0    0 -0.22451254667E+01 -0.36622867094E+02  0.18322862139E+03  0.22486998639E+03  0.12509000000E+03 0.  0.
         25    1    4    4    0    0  0.16066479819E+02 -0.34368852661E+02  0.36123716022E+03  0.38416031007E+03  0.12509000000E+03 0.  0.
<mgrwt>
<rscale>  2 0.44812612E+03</rscale>
<asrwt>0</asrwt>
<pdfrwt beam="1">  1       21 0.10499788E+00 0.44812612E+03</pdfrwt>
<pdfrwt beam="2">  1       21 0.10340515E-01 0.44812612E+03</pdfrwt>
<totfact> 0.51242811E+04</totfact>
</mgrwt>
</event>
<event>
 7    0  0.4737014E-002  0.4274631E+03  0.7546771E-02  0.1034664E+00
         21   -1    0    0  502  501  0.00000000000E+00  0.00000000000E+00  0.11199135713E+03  0.11199135713E+03  0.00000000000E+00 0.  1.
         21   -1    0    0  501  502 -0.00000000000E+00 -0.00000000000E+00 -0.40789903010E+03  0.40789903010E+03  0.00000000000E+00 0.  1.
      99926    2    1    2    0    0  0.00000000000E+00  0.14210854715E-13 -0.29590767297E+03  0.51989038724E+03  0.42746305550E+03 0.  0.
      99925    2    3    3    0    0 -0.45891998398E+02 -0.70515958263E+02 -0.20350420989E+03  0.34307272982E+03  0.26307101440E+03 0.  0.
         25    1    3    3    0    0  0.45891998398E+02  0.70515958263E+02 -0.92403463082E+02  0.17681765742E+03  0.12509000000E+03 0.  0.
         25    1    4    4    0    0 -0.45825432169E+02 -0.76888461414E+01 -0.75120471372E+02  0.15313288970E+03  0.12509000000E+03 0.  0.
         25    1    4    4    0    0 -0.66566228875E-01 -0.62827112122E+02 -0.12838373851E+03  0.18993984012E+03  0.12509000000E+03 0.  0.
<mgrwt>
<rscale>  2 0.42746306E+03</rscale>
<asrwt>0</asrwt>
<pdfrwt beam="1">  1       21 0.16469317E-01 0.42746306E+03</pdfrwt>
<pdfrwt beam="2">  1       21 0.59985152E-01 0.42746306E+03</pdfrwt>
<totfact> 0.79960597E+04</totfact>
</mgrwt>
</event>
<event>
 7    0  0.4737014E-002  0.4530546E+03  0.7546771E-02  0.1026815E+00
         21   -1    0    0  502  501  0.00000000000E+00  0.00000000000E+00  0.11453907584E+03  0.11453907584E+03  0.00000000000E+00 0. -1.
         21   -1    0    0  501  502 -0.00000000000E+00 -0.00000000000E+00 -0.44800976312E+03  0.44800976312E+03  0.00000000000E+00 0. -1.
      99926    2    1    2    0    0  0.00000000000E+00 -0.71054273576E-14 -0.33347068728E+03  0.56254883897E+03  0.45305462910E+03 0.  0.
      99925    2    3    3    0    0 -0.39598283321E+02 -0.52043771802E+02 -0.98240569503E+02  0.28821820883E+03  0.26294856565E+03 0.  0.
         25    1    4    4    0    0 -0.52976279338E+01 -0.56712512280E+02 -0.26703551495E+02  0.14001771914E+03  0.12509000000E+03 0.  0.
         25    1    3    3    0    0  0.39598283321E+02  0.52043771802E+02 -0.23523011778E+03  0.27433063014E+03  0.12509000000E+03 0.  0.
         25    1    4    4    0    0 -0.34300655388E+02  0.46687404788E+01 -0.71537018009E+02  0.14820048969E+03  0.12509000000E+03 0.  0.
<mgrwt>
<rscale>  2 0.45305463E+03</rscale>
<asrwt>0</asrwt>
<pdfrwt beam="1">  1       21 0.16843982E-01 0.45305463E+03</pdfrwt>
<pdfrwt beam="2">  1       21 0.65883789E-01 0.45305463E+03</pdfrwt>
<totfact> 0.61993183E+04</totfact>
</mgrwt>
</event>
<event>
 7    0  0.4737014E-002  0.4506273E+03  0.7546771E-02  0.1027535E+00
         21   -1    0    0  502  501  0.00000000000E+00  0.00000000000E+00  0.50810687734E+02  0.50810687734E+02  0.00000000000E+00 0. -1.
         21   -1    0    0  501  502 -0.00000000000E+00 -0.00000000000E+00 -0.99912532509E+03  0.99912532509E+03  0.00000000000E+00 0. -1.
      99926    2    1    2    0    0 -0.17763568394E-14  0.00000000000E+00 -0.94831463736E+03  0.10499360128E+04  0.45062731786E+03 0.  0.
      99925    2    3    3    0    0  0.55013325887E+01  0.49595519299E+02 -0.37315428506E+03  0.45921872076E+03  0.26295956503E+03 0.  0.
         25    1    3    3    0    0 -0.55013325887E+01 -0.49595519299E+02 -0.57516035230E+03  0.59071729207E+03  0.12509000000E+03 0.  0.
         25    1    4    4    0    0 -0.19014307038E+02  0.55003325126E+02 -0.16505454867E+03  0.21512187658E+03  0.12509000000E+03 0.  0.
         25    1    4    4    0    0  0.24515639627E+02 -0.54078058262E+01 -0.20809973639E+03  0.24409684418E+03  0.12509000000E+03 0.  0.
<mgrwt>
<rscale>  2 0.45062732E+03</rscale>
<asrwt>0</asrwt>
<pdfrwt beam="1">  1       21 0.74721602E-02 0.45062732E+03</pdfrwt>
<pdfrwt beam="2">  1       21 0.14693019E+00 0.45062732E+03</pdfrwt>
<totfact> 0.38579726E+04</totfact>
</mgrwt>
</event>
<event>
 7    0  0.4737014E-002  0.4223418E+03  0.7546771E-02  0.1036307E+00
         21   -1    0    0  502  501  0.00000000000E+00  0.00000000000E+00  0.35905458262E+03  0.35905458262E+03  0.00000000000E+00 0.  1.
         21   -1    0    0  501  502 -0.00000000000E+00 -0.00000000000E+00 -0.12419599075E+03  0.12419599075E+03  0.00000000000E+00 0.  1.
      99926    2    1    2    0    0  0.44408920985E-15 -0.35527136788E-14  0.23485859187E+03  0.48325057338E+03  0.42234175557E+03 0.  0.
      99925    2    3    3    0    0 -0.21816689183E+01 -0.26764680084E+02  0.67945133476E+02  0.27294432413E+03  0.26298470513E+03 0.  0.
         25    1    4    4    0    0 -0.93453055062E+01 -0.34561135168E+02 -0.18141059244E+00  0.13011282723E+03  0.12509000000E+03 0.  0.
         25    1    3    3    0    0  0.21816689183E+01  0.26764680084E+02  0.16691345839E+03  0.21030624925E+03  0.12509000000E+03 0.  0.
         25    1    4    4    0    0  0.71636365879E+01  0.77964550837E+01  0.68126544069E+02  0.14283149690E+03  0.12509000000E+03 0.  0.
<mgrwt>
<rscale>  2 0.42234176E+03</rscale>
<asrwt>0</asrwt>
<pdfrwt beam="1">  1       21 0.52802145E-01 0.42234176E+03</pdfrwt>
<pdfrwt beam="2">  1       21 0.18264116E-01 0.42234176E+03</pdfrwt>
<totfact> 0.86894823E+04</totfact>
</mgrwt>
</event>
<event>
 7    0  0.4737014E-002  0.4525631E+03  0.7546771E-02  0.1026960E+00
         21   -1    0    0  502  501  0.00000000000E+00  0.00000000000E+00  0.77322803773E+03  0.77322803773E+03  0.00000000000E+00 0.  1.
         21   -1    0    0  501  502 -0.00000000000E+00 -0.00000000000E+00 -0.66220223833E+02  0.66220223833E+02  0.00000000000E+00 0.  1.
      99926    2    1    2    0    0  0.00000000000E+00  0.00000000000E+00  0.70700781390E+03  0.83944826157E+03  0.45256307288E+03 0.  0.
      99925    2    3    3    0    0  0.56786536062E+02 -0.93973444414E+02  0.41696113044E+03  0.50503787653E+03  0.26296568883E+03 0.  0.
         25    1    4    4    0    0  0.83484864939E+01 -0.78620068007E+02  0.24751313264E+03  0.28837661357E+03  0.12509000000E+03 0.  0.
         25    1    4    4    0    0  0.48438049569E+02 -0.15353376406E+02  0.16944799779E+03  0.21666126296E+03  0.12509000000E+03 0.  0.
         25    1    3    3    0    0 -0.56786536062E+02  0.93973444414E+02  0.29004668346E+03  0.33441038504E+03  0.12509000000E+03 0.  0.
<mgrwt>
<rscale>  2 0.45256307E+03</rscale>
<asrwt>0</asrwt>
<pdfrwt beam="1">  1       21 0.11371000E+00 0.45256307E+03</pdfrwt>
<pdfrwt beam="2">  1       21 0.97382687E-02 0.45256307E+03</pdfrwt>
<totfact> 0.46803570E+04</totfact>
</mgrwt>
</event>
<event>
 6    0  0.4737014E-002  0.4700825E+03  0.7546771E-02  0.1021897E+00
         21   -1    0    0  502  501  0.00000000000E+00  0.00000000000E+00  0.54557996285E+03  0.54557996285E+03  0.00000000000E+00 0.  1.
         21   -1    0    0  501  502 -0.00000000000E+00 -0.00000000000E+00 -0.10125810911E+03  0.10125810911E+03  0.00000000000E+00 0.  1.
      99926    2    1    2    0    0  0.00000000000E+00  0.00000000000E+00  0.44432185374E+03  0.64683807196E+03  0.47008252640E+03 0.  0.
         25    1    3    3    0    0 -0.63228997184E+02  0.75108303717E+02  0.98605311344E+02  0.18710873549E+03  0.12509000000E+03 0.  0.
         25    1    3    3    0    0 -0.37697525144E+02 -0.20633108768E+02  0.13250230302E+03  0.18721964904E+03  0.12509000000E+03 0.  0.
         25    1    3    3    0    0  0.10092652233E+03 -0.54475194949E+02  0.21321423937E+03  0.27250968743E+03  0.12509000000E+03 0.  0.
<mgrwt>
<rscale>  2 0.47008253E+03</rscale>
<asrwt>0</asrwt>
<pdfrwt beam="1">  1       21 0.80232346E-01 0.47008253E+03</pdfrwt>
<pdfrwt beam="2">  1       21 0.14890899E-01 0.47008253E+03</pdfrwt>
<totfact> 0.49699697E+04</totfact>
</mgrwt>
</event>
<event>
 7    0  0.4737014E-002  0.4580622E+03  0.7546771E-02  0.1025345E+00
         21   -1    0    0  502  501  0.00000000000E+00  0.00000000000E+00  0.23994883139E+03  0.23994883139E+03  0.00000000000E+00 0.  1.
         21   -1    0    0  501  502 -0.00000000000E+00 -0.00000000000E+00 -0.21861010398E+03  0.21861010398E+03  0.00000000000E+00 0.  1.
      99926    2    1    2    0    0  0.00000000000E+00  0.00000000000E+00  0.21338727416E+02  0.45855893537E+03  0.45806217473E+03 0.  0.
      99925    2    3    3    0    0  0.10450719569E+03  0.39677952458E+02 -0.18174978211E+02  0.28620773899E+03  0.26284681121E+03 0.  0.
         25    1    3    3    0    0 -0.10450719569E+03 -0.39677952458E+02  0.39513705627E+02  0.17235119638E+03  0.12509000000E+03 0.  0.
         25    1    4    4    0    0  0.50049335532E+02  0.39781365193E+02  0.25871250555E+02  0.14284370028E+03  0.12509000000E+03 0.  0.
         25    1    4    4    0    0  0.54457860154E+02 -0.10341273465E+00 -0.44046228766E+02  0.14336403871E+03  0.12509000000E+03 0.  0.
<mgrwt>
<rscale>  2 0.45806217E+03</rscale>
<asrwt>0</asrwt>
<pdfrwt beam="1">  1       21 0.35286593E-01 0.45806217E+03</pdfrwt>
<pdfrwt beam="2">  1       21 0.32148544E-01 0.45806217E+03</pdfrwt>
<totfact> 0.66642670E+04</totfact>
</mgrwt>
</event>
<event>
 7    0  0.4737014E-002  0.4545846E+03  0.7546771E-02  0.1026364E+00
         21   -1    0    0  502  501  0.00000000000E+00  0.00000000000E+00  0.29758585879E+02  0.29758585879E+02  0.00000000000E+00 0.  1.
         21   -1    0    0  501  502 -0.00000000000E+00 -0.00000000000E+00 -0.17360299034E+04  0.17360299034E+04  0.00000000000E+00 0.  1.
      99926    2    1    2    0    0  0.00000000000E+00  0.00000000000E+00 -0.17062713175E+04  0.17657884892E+04  0.45458462344E+03 0.  0.
      99925    2    3    3    0    0  0.63547741090E+02 -0.88103497285E+02 -0.11892037129E+04  0.12228272038E+04  0.26324961169E+03 0.  0.
         25    1    4    4    0    0  0.60180272635E+02 -0.38096272333E+02 -0.48779240736E+03  0.50858817520E+03  0.12509000000E+03 0.  0.
         25    1    4    4    0    0  0.33674684557E+01 -0.50007224952E+02 -0.70141130554E+03  0.71423902864E+03  0.12509000000E+03 0.  0.
         25    1    3    3    0    0 -0.63547741090E+02  0.88103497285E+02 -0.51706760460E+03  0.54296128541E+03  0.12509000000E+03 0.  0.
<mgrwt>
<rscale>  2 0.45458462E+03</rscale>
<asrwt>0</asrwt>
<pdfrwt beam="1">  1       21 0.43762617E-02 0.45458462E+03</pdfrwt>
<pdfrwt beam="2">  1       21 0.25529857E+00 0.45458462E+03</pdfrwt>
<totfact> 0.17984091E+04</totfact>
</mgrwt>
</event>
<event>
 7    0  0.4737014E-002  0.4526470E+03  0.7546771E-02  0.1026936E+00
         21   -1    0    0  502  501  0.00000000000E+00  0.00000000000E+00  0.72516002988E+02  0.72516002988E+02  0.00000000000E+00 0. -1.
         21   -1    0    0  501  502 -0.00000000000E+00 -0.00000000000E+00 -0.70635883736E+03  0.70635883736E+03  0.00000000000E+00 0. -1.
      99926    2    1    2    0    0  0.00000000000E+00 -0.17763568394E-14 -0.63384283437E+03  0.77887484035E+03  0.45264696867E+03 0.  0.
      99925    2    3    3    0    0 -0.10031122612E+03 -0.25709567782E+01 -0.31836238206E+03  0.42497601894E+03  0.26302292383E+03 0.  0.
         25    1    4    4    0    0 -0.75166889126E+02  0.31577554816E+02 -0.17503060818E+03  0.23006613199E+03  0.12509000000E+03 0.  0.
         25    1    3    3    0    0  0.10031122612E+03  0.25709567782E+01 -0.31548045231E+03  0.35389882141E+03  0.12509000000E+03 0.  0.
         25    1    4    4    0    0 -0.25144336991E+02 -0.34148511594E+02 -0.14333177389E+03  0.19490988695E+03  0.12509000000E+03 0.  0.
<mgrwt>
<rscale>  2 0.45264697E+03</rscale>
<asrwt>0</asrwt>
<pdfrwt beam="1">  1       21 0.10664119E-01 0.45264697E+03</pdfrwt>
<pdfrwt beam="2">  1       21 0.10387629E+00 0.45264697E+03</pdfrwt>
<totfact> 0.49715511E+04</totfact>
</mgrwt>
</event>
<event>
 7    0  0.4737014E-002  0.4510577E+03  0.7546771E-02  0.1027407E+00
         21   -1    0    0  502  501  0.00000000000E+00  0.00000000000E+00  0.22734971407E+03  0.22734971407E+03  0.00000000000E+00 0. -1.
         21   -1    0    0  501  502 -0.00000000000E+00 -0.00000000000E+00 -0.22372259852E+03  0.22372259852E+03  0.00000000000E+00 0. -1.
      99926    2    1    2    0    0  0.00000000000E+00  0.00000000000E+00  0.36271155439E+01  0.45107231259E+03  0.45105772936E+03 0.  0.
      99925    2    3    3    0    0 -0.92755372388E+02 -0.71115920188E+01  0.58399984100E+02  0.28584002435E+03  0.26389359130E+03 0.  0.
         25    1    3    3    0    0  0.92755372388E+02  0.71115920188E+01 -0.54772868556E+02  0.16523228824E+03  0.12509000000E+03 0.  0.
         25    1    4    4    0    0 -0.40542752071E+02 -0.12100141728E+02  0.70441902848E+02  0.14966528640E+03  0.12509000000E+03 0.  0.
         25    1    4    4    0    0 -0.52212620317E+02  0.49885497087E+01 -0.12041918748E+02  0.13617473795E+03  0.12509000000E+03 0.  0.
<mgrwt>
<rscale>  2 0.45105773E+03</rscale>
<asrwt>0</asrwt>
<pdfrwt beam="1">  1       21 0.33433781E-01 0.45105773E+03</pdfrwt>
<pdfrwt beam="2">  1       21 0.32900382E-01 0.45105773E+03</pdfrwt>
<totfact> 0.71043005E+04</totfact>
</mgrwt>
</event>
<event>
 7    0  0.4737014E-002  0.4381349E+03  0.7546771E-02  0.1031321E+00
         21   -1    0    0  502  501  0.00000000000E+00  0.00000000000E+00  0.18370061683E+03  0.18370061683E+03  0.00000000000E+00 0.  1.
         21   -1    0    0  501  502 -0.00000000000E+00 -0.00000000000E+00 -0.26124325317E+03  0.26124325317E+03  0.00000000000E+00 0.  1.
      99926    2    1    2    0    0  0.00000000000E+00  0.00000000000E+00 -0.77542636332E+02  0.44494387000E+03  0.43813489589E+03 0.  0.
      99925    2    3    3    0    0 -0.50019983367E+02 -0.75812129307E+02 -0.16349696584E+02  0.27868635389E+03  0.26296253266E+03 0.  0.
         25    1    4    4    0    0 -0.53968414044E+02 -0.15602717040E+02  0.93576672190E+01  0.13744492908E+03  0.12509000000E+03 0.  0.
         25    1    3    3    0    0  0.50019983367E+02  0.75812129307E+02 -0.61192939748E+02  0.16625751610E+03  0.12509000000E+03 0.  0.
         25    1    4    4    0    0  0.39484306779E+01 -0.60209412267E+02 -0.25707363803E+02  0.14124142482E+03  0.12509000000E+03 0.  0.
<mgrwt>
<rscale>  2 0.43813490E+03</rscale>
<asrwt>0</asrwt>
<pdfrwt beam="1">  1       21 0.27014797E-01 0.43813490E+03</pdfrwt>
<pdfrwt beam="2">  1       21 0.38418125E-01 0.43813490E+03</pdfrwt>
<totfact> 0.79450471E+04</totfact>
</mgrwt>
</event>
<event>
 7    0  0.4737014E-002  0.4468064E+03  0.7546771E-02  0.1028679E+00
         21   -1    0    0  502  501  0.00000000000E+00  0.00000000000E+00  0.16557071169E+03  0.16557071169E+03  0.00000000000E+00 0. -1.
         21   -1    0    0  501  502 -0.00000000000E+00 -0.00000000000E+00 -0.30143614718E+03  0.30143614718E+03  0.00000000000E+00 0. -1.
      99926    2    1    2    0    0 -0.14210854715E-13  0.17763568394E-14 -0.13586543550E+03  0.46700685887E+03  0.44680643423E+03 0.  0.
      99925    2    3    3    0    0  0.10055426981E+03  0.12721067065E+02 -0.57189833027E+02  0.28781326175E+03  0.26323527483E+03 0.  0.
         25    1    3    3    0    0 -0.10055426981E+03 -0.12721067065E+02 -0.78675602469E+02  0.17919359712E+03  0.12509000000E+03 0.  0.
         25    1    4    4    0    0  0.62296938330E+02 -0.31603554998E+02 -0.19089811944E+02  0.14453934493E+03  0.12509000000E+03 0.  0.
         25    1    4    4    0    0  0.38257331482E+02  0.44324622063E+02 -0.38100021084E+02  0.14327391682E+03  0.12509000000E+03 0.  0.
<mgrwt>
<rscale>  2 0.44680643E+03</rscale>
<asrwt>0</asrwt>
<pdfrwt beam="1">  1       21 0.24348634E-01 0.44680643E+03</pdfrwt>
<pdfrwt beam="2">  1       21 0.44328845E-01 0.44680643E+03</pdfrwt>
<totfact> 0.72242386E+04</totfact>
</mgrwt>
</event>
<event>
 7    0  0.4737014E-002  0.4431289E+03  0.7546771E-02  0.1029791E+00
         21   -1    0    0  502  501  0.00000000000E+00  0.00000000000E+00  0.37467490191E+03  0.37467490191E+03  0.00000000000E+00 0. -1.
         21   -1    0    0  501  502 -0.00000000000E+00 -0.00000000000E+00 -0.13102240687E+03  0.13102240687E+03  0.00000000000E+00 0. -1.
      99926    2    1    2    0    0  0.00000000000E+00  0.00000000000E+00  0.24365249504E+03  0.50569730879E+03  0.44312890875E+03 0.  0.
      99925    2    3    3    0    0 -0.17890082353E+02  0.48731540339E+02  0.25480014802E+03  0.36980545348E+03  0.26294132411E+03 0.  0.
         25    1    3    3    0    0  0.17890082353E+02 -0.48731540339E+02 -0.11147652983E+02  0.13589185530E+03  0.12509000000E+03 0.  0.
         25    1    4    4    0    0 -0.23593748866E+02  0.54324467817E+02  0.16634011182E+03  0.21638935670E+03  0.12509000000E+03 0.  0.
         25    1    4    4    0    0  0.57036665129E+01 -0.55929274779E+01  0.88460036199E+02  0.15341609679E+03  0.12509000000E+03 0.  0.
<mgrwt>
<rscale>  2 0.44312891E+03</rscale>
<asrwt>0</asrwt>
<pdfrwt beam="1">  1       21 0.55099250E-01 0.44312891E+03</pdfrwt>
<pdfrwt beam="2">  1       21 0.19268001E-01 0.44312891E+03</pdfrwt>
<totfact> 0.71361580E+04</totfact>
</mgrwt>
</event>
<event>
 7    0  0.4737014E-002  0.4545566E+03  0.7546771E-02  0.1026372E+00
         21   -1    0    0  502  501  0.00000000000E+00  0.00000000000E+00  0.93614436964E+02  0.93614436964E+02  0.00000000000E+00 0.  1.
         21   -1    0    0  501  502 -0.00000000000E+00 -0.00000000000E+00 -0.55178903840E+03  0.55178903840E+03  0.00000000000E+00 0.  1.
      99926    2    1    2    0    0  0.14210854715E-13 -0.35527136788E-14 -0.45817460143E+03  0.64540347536E+03  0.45455657581E+03 0.  0.
      99925    2    3    3    0    0 -0.10729660611E+03  0.26857512842E+02 -0.25941929375E+03  0.38581713499E+03  0.26329186087E+03 0.  0.
         25    1    4    4    0    0 -0.42993660265E+02 -0.14380485800E+02 -0.16285460788E+03  0.21029594529E+03  0.12509000000E+03 0.  0.
         25    1    3    3    0    0  0.10729660611E+03 -0.26857512842E+02 -0.19875530768E+03  0.25958634037E+03  0.12509000000E+03 0.  0.
         25    1    4    4    0    0 -0.64302945846E+02  0.41237998643E+02 -0.96564685871E+02  0.17552118970E+03  0.12509000000E+03 0.  0.
<mgrwt>
<rscale>  2 0.45455658E+03</rscale>
<asrwt>0</asrwt>
<pdfrwt beam="1">  1       21 0.13766829E-01 0.45455658E+03</pdfrwt>
<pdfrwt beam="2">  1       21 0.81145449E-01 0.45455658E+03</pdfrwt>
<totfact> 0.56163311E+04</totfact>
</mgrwt>
</event>
<event>
 7    0  0.4737014E-002  0.4667139E+03  0.7546771E-02  0.1022852E+00
         21   -1    0    0  502  501  0.00000000000E+00  0.00000000000E+00  0.27209899376E+03  0.27209899376E+03  0.00000000000E+00 0. -1.
         21   -1    0    0  501  502 -0.00000000000E+00 -0.00000000000E+00 -0.20013107654E+03  0.20013107654E+03  0.00000000000E+00 0. -1.
      99926    2    1    2    0    0  0.00000000000E+00  0.00000000000E+00  0.71967917223E+02  0.47223007030E+03  0.46671389328E+03 0.  0.
      99925    2    3    3    0    0  0.10903812646E+03  0.58827751889E+02  0.38910086777E+02  0.29309228627E+03  0.26275288010E+03 0.  0.
         25    1    4    4    0    0  0.26699662547E+02  0.10466065494E+02  0.43914246383E+02  0.13564062681E+03  0.12509000000E+03 0.  0.
         25    1    3    3    0    0 -0.10903812646E+03 -0.58827751889E+02  0.33057830447E+02  0.17913778403E+03  0.12509000000E+03 0.  0.
         25    1    4    4    0    0  0.82338463915E+02  0.48361686395E+02 -0.50041596066E+01  0.15745165945E+03  0.12509000000E+03 0.  0.
<mgrwt>
<rscale>  2 0.46671389E+03</rscale>
<asrwt>0</asrwt>
<pdfrwt beam="1">  1       21 0.40014558E-01 0.46671389E+03</pdfrwt>
<pdfrwt beam="2">  1       21 0.29431041E-01 0.46671389E+03</pdfrwt>
<totfact> 0.61360809E+04</totfact>
</mgrwt>
</event>
<event>
 7    0  0.4737014E-002  0.4584475E+03  0.7546771E-02  0.1025232E+00
         21   -1    0    0  502  501  0.00000000000E+00  0.00000000000E+00  0.51122911737E+03  0.51122911737E+03  0.00000000000E+00 0. -1.
         21   -1    0    0  501  502 -0.00000000000E+00 -0.00000000000E+00 -0.10277882150E+03  0.10277882150E+03  0.00000000000E+00 0. -1.
      99926    2    1    2    0    0  0.35527136788E-14  0.00000000000E+00  0.40845029587E+03  0.61400793887E+03  0.45844749405E+03 0.  0.
      99925    2    3    3    0    0 -0.27064036792E+02 -0.10380693440E+03  0.31677334174E+03  0.42543298365E+03  0.26294397089E+03 0.  0.
         25    1    3    3    0    0  0.27064036792E+02  0.10380693440E+03  0.91676954138E+02  0.18857495522E+03  0.12509000000E+03 0.  0.
         25    1    4    4    0    0 -0.37067120695E+02 -0.73318665128E+02  0.12924755532E+03  0.19774234940E+03  0.12509000000E+03 0.  0.
         25    1    4    4    0    0  0.10003083903E+02 -0.30488269276E+02  0.18752578642E+03  0.22769063425E+03  0.12509000000E+03 0.  0.
<mgrwt>
<rscale>  2 0.45844749E+03</rscale>
<asrwt>0</asrwt>
<pdfrwt beam="1">  1       21 0.75180751E-01 0.45844749E+03</pdfrwt>
<pdfrwt beam="2">  1       21 0.15114533E-01 0.45844749E+03</pdfrwt>
<totfact> 0.56276168E+04</totfact>
</mgrwt>
</event>
<event>
 7    0  0.4737014E-002  0.4687127E+03  0.7546771E-02  0.1022284E+00
         21   -1    0    0  502  501  0.00000000000E+00  0.00000000000E+00  0.48650197347E+03  0.48650197347E+03  0.00000000000E+00 0.  1.
         21   -1    0    0  501  502 -0.00000000000E+00 -0.00000000000E+00 -0.11289348457E+03  0.11289348457E+03  0.00000000000E+00 0.  1.
      99926    2    1    2    0    0  0.00000000000E+00  0.00000000000E+00  0.37360848889E+03  0.59939545804E+03  0.46871271814E+03 0.  0.
      99925    2    3    3    0    0 -0.65706562440E+02  0.64417280085E+02  0.12279195959E+03  0.30439820755E+03  0.26289439914E+03 0.  0.
         25    1    4    4    0    0 -0.27463978706E+02  0.16730479864E+02  0.18574465396E+02  0.13048638989E+03  0.12509000000E+03 0.  0.
         25    1    3    3    0    0  0.65706562440E+02 -0.64417280085E+02  0.25081652931E+03  0.29499725049E+03  0.12509000000E+03 0.  0.
         25    1    4    4    0    0 -0.38242583735E+02  0.47686800221E+02  0.10421749419E+03  0.17391181766E+03  0.12509000000E+03 0.  0.
<mgrwt>
<rscale>  2 0.46871272E+03</rscale>
<asrwt>0</asrwt>
<pdfrwt beam="1">  1       21 0.71544407E-01 0.46871272E+03</pdfrwt>
<pdfrwt beam="2">  1       21 0.16601983E-01 0.46871272E+03</pdfrwt>
<totfact> 0.52761724E+04</totfact>
</mgrwt>
</event>
<event>
 7    0  0.4737014E-002  0.4059844E+03  0.7546771E-02  0.1041727E+00
         21   -1    0    0  502  501  0.00000000000E+00  0.00000000000E+00  0.23174118168E+02  0.23174118168E+02  0.00000000000E+00 0. -1.
         21   -1    0    0  501  502 -0.00000000000E+00 -0.00000000000E+00 -0.17780973061E+04  0.17780973061E+04  0.00000000000E+00 0. -1.
      99926    2    1    2    0    0  0.00000000000E+00  0.00000000000E+00 -0.17549231879E+04  0.18012714243E+04  0.40598441884E+03 0.  0.
      99925    2    3    3    0    0  0.42602526850E+02 -0.33068374592E+02 -0.10955699639E+04  0.11279938627E+04  0.26303633955E+03 0.  0.
         25    1    4    4    0    0  0.16600583138E+02  0.39441984954E+01 -0.38779376680E+03  0.40782673984E+03  0.12509000000E+03 0.  0.
         25    1    3    3    0    0 -0.42602526850E+02  0.33068374592E+02 -0.65935322405E+03  0.67327756152E+03  0.12509000000E+03 0.  0.
         25    1    4    4    0    0  0.26001943712E+02 -0.37012573088E+02 -0.70777619707E+03  0.72016712288E+03  0.12509000000E+03 0.  0.
<mgrwt>
<rscale>  2 0.40598442E+03</rscale>
<asrwt>0</asrwt>
<pdfrwt beam="1">  1       21 0.34079588E-02 0.40598442E+03</pdfrwt>
<pdfrwt beam="2">  1       21 0.26148488E+00 0.40598442E+03</pdfrwt>
<totfact> 0.25715182E+04</totfact>
</mgrwt>
</event>
<event>
 7    0  0.4737014E-002  0.4586165E+03  0.7546771E-02  0.1025183E+00
         21   -1    0    0  502  501  0.00000000000E+00  0.00000000000E+00  0.21774283106E+03  0.21774283106E+03  0.00000000000E+00 0.  1.
         21   -1    0    0  501  502 -0.00000000000E+00 -0.00000000000E+00 -0.24148798437E+03  0.24148798437E+03  0.00000000000E+00 0.  1.
      99926    2    1    2    0    0  0.00000000000E+00  0.00000000000E+00 -0.23745153313E+02  0.45923081543E+03  0.45861651686E+03 0.  0.
      99925    2    3    3    0    0 -0.11112491421E+03  0.32554811102E+02 -0.27883798594E+02  0.28872216823E+03  0.26301030763E+03 0.  0.
         25    1    4    4    0    0 -0.94010807752E+02  0.16242671405E+02 -0.35193528027E+02  0.16120778165E+03  0.12509000000E+03 0.  0.
         25    1    4    4    0    0 -0.17114106462E+02  0.16312139697E+02  0.73097294328E+01  0.12751438658E+03  0.12509000000E+03 0.  0.
         25    1    3    3    0    0  0.11112491421E+03 -0.32554811102E+02  0.41386452811E+01  0.17050864720E+03  0.12509000000E+03 0.  0.
<mgrwt>
<rscale>  2 0.45861652E+03</rscale>
<asrwt>0</asrwt>
<pdfrwt beam="1">  1       21 0.32021005E-01 0.45861652E+03</pdfrwt>
<pdfrwt beam="2">  1       21 0.35512939E-01 0.45861652E+03</pdfrwt>
<totfact> 0.66303009E+04</totfact>
</mgrwt>
</event>
<event>
 7    0  0.4737014E-002  0.4710130E+03  0.7546771E-02  0.1021635E+00
         21   -1    0    0  502  501  0.00000000000E+00  0.00000000000E+00  0.28228033916E+03  0.28228033916E+03  0.00000000000E+00 0. -1.
         21   -1    0    0  501  502 -0.00000000000E+00 -0.00000000000E+00 -0.19648307851E+03  0.19648307851E+03  0.00000000000E+00 0. -1.
      99926    2    1    2    0    0  0.00000000000E+00  0.00000000000E+00  0.85797260652E+02  0.47876341767E+03  0.47101299362E+03 0.  0.
      99925    2    3    3    0    0  0.94030971566E+02  0.83597534937E+02  0.75543817269E+02  0.30104731636E+03  0.26285404106E+03 0.  0.
         25    1    3    3    0    0 -0.94030971566E+02 -0.83597534937E+02  0.10253443383E+02  0.17771610130E+03  0.12509000000E+03 0.  0.
         25    1    4    4    0    0  0.35037207398E+02  0.32006227698E+02  0.75116950858E+02  0.15343424950E+03  0.12509000000E+03 0.  0.
         25    1    4    4    0    0  0.58993764167E+02  0.51591307239E+02  0.42686641104E+00  0.14761306686E+03  0.12509000000E+03 0.  0.
<mgrwt>
<rscale>  2 0.47101299E+03</rscale>
<asrwt>0</asrwt>
<pdfrwt beam="1">  1       21 0.41511814E-01 0.47101299E+03</pdfrwt>
<pdfrwt beam="2">  1       21 0.28894571E-01 0.47101299E+03</pdfrwt>
<totfact> 0.58933824E+04</totfact>
</mgrwt>
</event>
<event>
 7    0  0.4737014E-002  0.4520175E+03  0.7546771E-02  0.1027122E+00
         21   -1    0    0  502  501  0.00000000000E+00  0.00000000000E+00  0.15344354477E+03  0.15344354477E+03  0.00000000000E+00 0.  1.
         21   -1    0    0  501  502 -0.00000000000E+00 -0.00000000000E+00 -0.33289088402E+03  0.33289088402E+03  0.00000000000E+00 0.  1.
      99926    2    1    2    0    0  0.00000000000E+00  0.00000000000E+00 -0.17944733925E+03  0.48633442879E+03  0.45201750968E+03 0.  0.
      99925    2    3    3    0    0  0.86048752697E+02 -0.53023531324E+02 -0.16084503610E+03  0.32444114141E+03  0.26301149383E+03 0.  0.
         25    1    4    4    0    0  0.13666293046E+01 -0.15077008699E+02 -0.70587707522E+02  0.14442754730E+03  0.12509000000E+03 0.  0.
         25    1    3    3    0    0 -0.86048752697E+02  0.53023531324E+02 -0.18602303153E+02  0.16189328738E+03  0.12509000000E+03 0.  0.
         25    1    4    4    0    0  0.84682123392E+02 -0.37946522625E+02 -0.90257328576E+02  0.18001359411E+03  0.12509000000E+03 0.  0.
<mgrwt>
<rscale>  2 0.45201751E+03</rscale>
<asrwt>0</asrwt>
<pdfrwt beam="1">  1       21 0.22565227E-01 0.45201751E+03</pdfrwt>
<pdfrwt beam="2">  1       21 0.48954542E-01 0.45201751E+03</pdfrwt>
<totfact> 0.67833731E+04</totfact>
</mgrwt>
</event>
<event>
 7    0  0.4737014E-002  0.4541155E+03  0.7546771E-02  0.1026502E+00
         21   -1    0    0  502  501  0.00000000000E+00  0.00000000000E+00  0.30771508594E+03  0.30771508594E+03  0.00000000000E+00 0. -1.
         21   -1    0    0  501  502 -0.00000000000E+00 -0.00000000000E+00 -0.16754205884E+03  0.16754205884E+03  0.00000000000E+00 0. -1.
      99926    2    1    2    0    0 -0.71054273576E-14 -0.35527136788E-14  0.14017302709E+03  0.47525714478E+03  0.45411548767E+03 0.  0.
      99925    2    3    3    0    0  0.37370146110E+02  0.28424812440E+02 -0.18484034976E+02  0.26783470331E+03  0.26303853513E+03 0.  0.
         25    1    4    4    0    0  0.23850493644E+02  0.51821270135E+02 -0.24804149384E+02  0.13970341446E+03  0.12509000000E+03 0.  0.
         25    1    4    4    0    0  0.13519652466E+02 -0.23396457695E+02  0.63201144077E+01  0.12813128885E+03  0.12509000000E+03 0.  0.
         25    1    3    3    0    0 -0.37370146110E+02 -0.28424812440E+02  0.15865706207E+03  0.20742244148E+03  0.12509000000E+03 0.  0.
<mgrwt>
<rscale>  2 0.45411549E+03</rscale>
<asrwt>0</asrwt>
<pdfrwt beam="1">  1       21 0.45252219E-01 0.45411549E+03</pdfrwt>
<pdfrwt beam="2">  1       21 0.24638538E-01 0.45411549E+03</pdfrwt>
<totfact> 0.67519717E+04</totfact>
</mgrwt>
</event>
<event>
 7    0  0.4737014E-002  0.4560926E+03  0.7546771E-02  0.1025921E+00
         21   -1    0    0  502  501  0.00000000000E+00  0.00000000000E+00  0.93299986104E+02  0.93299986104E+02  0.00000000000E+00 0. -1.
         21   -1    0    0  501  502 -0.00000000000E+00 -0.00000000000E+00 -0.55739692934E+03  0.55739692934E+03  0.00000000000E+00 0. -1.
      99926    2    1    2    0    0  0.00000000000E+00  0.00000000000E+00 -0.46409694324E+03  0.65069691545E+03  0.45609264744E+03 0.  0.
      99925    2    3    3    0    0  0.11093051834E+03 -0.26793670081E+02 -0.29998508322E+03  0.41489256571E+03  0.26290931948E+03 0.  0.
         25    1    4    4    0    0  0.75592561194E+02  0.28156553016E+01 -0.20243358926E+03  0.24969787621E+03  0.12509000000E+03 0.  0.
         25    1    4    4    0    0  0.35337957148E+02 -0.29609325383E+02 -0.97551493956E+02  0.16519468950E+03  0.12509000000E+03 0.  0.
         25    1    3    3    0    0 -0.11093051834E+03  0.26793670081E+02 -0.16411186002E+03  0.23580434974E+03  0.12509000000E+03 0.  0.
<mgrwt>
<rscale>  2 0.45609265E+03</rscale>
<asrwt>0</asrwt>
<pdfrwt beam="1">  1       21 0.13720587E-01 0.45609265E+03</pdfrwt>
<pdfrwt beam="2">  1       21 0.81970134E-01 0.45609265E+03</pdfrwt>
<totfact> 0.55184147E+04</totfact>
</mgrwt>
</event>
<event>
 7    0  0.4737014E-002  0.4357816E+03  0.7546771E-02  0.1032049E+00
         21   -1    0    0  502  501  0.00000000000E+00  0.00000000000E+00  0.35946726500E+03  0.35946726500E+03  0.00000000000E+00 0.  1.
         21   -1    0    0  501  502 -0.00000000000E+00 -0.00000000000E+00 -0.13207433064E+03  0.13207433064E+03  0.00000000000E+00 0.  1.
      99926    2    1    2    0    0  0.14210854715E-13  0.00000000000E+00  0.22739293436E+03  0.49154159564E+03  0.43578158938E+03 0.  0.
      99925    2    3    3    0    0 -0.88273712152E+02  0.11816397575E+02  0.18017357602E+03  0.33088963825E+03  0.26285653825E+03 0.  0.
         25    1    4    4    0    0 -0.53871889180E+02  0.28990779759E+01  0.45365566145E+02  0.14358317377E+03  0.12509000000E+03 0.  0.
         25    1    3    3    0    0  0.88273712152E+02 -0.11816397575E+02  0.47219358344E+02  0.16065195738E+03  0.12509000000E+03 0.  0.
         25    1    4    4    0    0 -0.34401822972E+02  0.89173195995E+01  0.13480800987E+03  0.18730646449E+03  0.12509000000E+03 0.  0.
<mgrwt>
<rscale>  2 0.43578159E+03</rscale>
<asrwt>0</asrwt>
<pdfrwt beam="1">  1       21 0.52862833E-01 0.43578159E+03</pdfrwt>
<pdfrwt beam="2">  1       21 0.19422696E-01 0.43578159E+03</pdfrwt>
<totfact> 0.76955212E+04</totfact>
</mgrwt>
</event>
<event>
 7    0  0.4737014E-002  0.4313502E+03  0.7546771E-02  0.1033434E+00
         21   -1    0    0  502  501  0.00000000000E+00  0.00000000000E+00  0.53056665064E+03  0.53056665064E+03  0.00000000000E+00 0.  1.
         21   -1    0    0  501  502 -0.00000000000E+00 -0.00000000000E+00 -0.87671844512E+02  0.87671844512E+02  0.00000000000E+00 0.  1.
      99926    2    1    2    0    0  0.00000000000E+00  0.17763568394E-14  0.44289480613E+03  0.61823849515E+03  0.43135023773E+03 0.  0.
      99925    2    3    3    0    0  0.86890621588E+02 -0.90174057226E+01  0.25965028295E+03  0.37979068723E+03  0.26304258771E+03 0.  0.
         25    1    4    4    0    0  0.47748125367E+01 -0.90436098970E+01  0.95769082667E+02  0.15787276842E+03  0.12509000000E+03 0.  0.
         25    1    3    3    0    0 -0.86890621588E+02  0.90174057226E+01  0.18324452317E+03  0.23844780791E+03  0.12509000000E+03 0.  0.
         25    1    4    4    0    0  0.82115809051E+02  0.26204174332E-01  0.16388120028E+03  0.22191791881E+03  0.12509000000E+03 0.  0.
<mgrwt>
<rscale>  2 0.43135024E+03</rscale>
<asrwt>0</asrwt>
<pdfrwt beam="1">  1       21 0.78024506E-01 0.43135024E+03</pdfrwt>
<pdfrwt beam="2">  1       21 0.12892919E-01 0.43135024E+03</pdfrwt>
<totfact> 0.69701155E+04</totfact>
</mgrwt>
</event>
<event>
 7    0  0.4737014E-002  0.4529569E+03  0.7546771E-02  0.1026844E+00
         21   -1    0    0  502  501  0.00000000000E+00  0.00000000000E+00  0.40569629942E+03  0.40569629942E+03  0.00000000000E+00 0.  1.
         21   -1    0    0  501  502 -0.00000000000E+00 -0.00000000000E+00 -0.12643075434E+03  0.12643075434E+03  0.00000000000E+00 0.  1.
      99926    2    1    2    0    0  0.00000000000E+00 -0.71054273576E-14  0.27926554508E+03  0.53212705376E+03  0.45295690377E+03 0.  0.
      99925    2    3    3    0    0 -0.22034857540E+02 -0.57789267429E+02  0.67146914587E+02  0.27822361566E+03  0.26282035271E+03 0.  0.
         25    1    4    4    0    0 -0.36777796713E+01 -0.28721893481E+02  0.74214629313E+02  0.14830304290E+03  0.12509000000E+03 0.  0.
         25    1    4    4    0    0 -0.18357077869E+02 -0.29067373948E+02 -0.70677147260E+01  0.12992057276E+03  0.12509000000E+03 0.  0.
         25    1    3    3    0    0  0.22034857540E+02  0.57789267429E+02  0.21211863049E+03  0.25390343810E+03  0.12509000000E+03 0.  0.
<mgrwt>
<rscale>  2 0.45295690E+03</rscale>
<asrwt>0</asrwt>
<pdfrwt beam="1">  1       21 0.59661220E-01 0.45295690E+03</pdfrwt>
<pdfrwt beam="2">  1       21 0.18592758E-01 0.45295690E+03</pdfrwt>
<totfact> 0.64093498E+04</totfact>
</mgrwt>
</event>
<event>
 7    0  0.4737014E-002  0.4583128E+03  0.7546771E-02  0.1025272E+00
         21   -1    0    0  502  501  0.00000000000E+00  0.00000000000E+00  0.54269515650E+02  0.54269515650E+02  0.00000000000E+00 0.  1.
         21   -1    0    0  501  502 -0.00000000000E+00 -0.00000000000E+00 -0.96762707980E+03  0.96762707980E+03  0.00000000000E+00 0.  1.
      99926    2    1    2    0    0  0.00000000000E+00  0.17763568394E-14 -0.91335756415E+03  0.10218965954E+04  0.45831278817E+03 0.  0.
      99925    2    3    3    0    0  0.59998586617E+02  0.12289773754E+02 -0.35336426004E+03  0.44484297777E+03  0.26318834636E+03 0.  0.
         25    1    3    3    0    0 -0.59998586617E+02 -0.12289773754E+02 -0.55999330410E+03  0.57705361768E+03  0.12509000000E+03 0.  0.
         25    1    4    4    0    0  0.67710059223E+02  0.19146511806E+02 -0.16766402909E+03  0.22070336605E+03  0.12509000000E+03 0.  0.
         25    1    4    4    0    0 -0.77114726059E+01 -0.68567380511E+01 -0.18570023095E+03  0.22413961172E+03  0.12509000000E+03 0.  0.
<mgrwt>
<rscale>  2 0.45831279E+03</rscale>
<asrwt>0</asrwt>
<pdfrwt beam="1">  1       21 0.79808109E-02 0.45831279E+03</pdfrwt>
<pdfrwt beam="2">  1       21 0.14229810E+00 0.45831279E+03</pdfrwt>
<totfact> 0.37350307E+04</totfact>
</mgrwt>
</event>
<event>
 7    0  0.4737014E-002  0.4563711E+03  0.7546771E-02  0.1025839E+00
         21   -1    0    0  502  501  0.00000000000E+00  0.00000000000E+00  0.99538495598E+02  0.99538495598E+02  0.00000000000E+00 0. -1.
         21   -1    0    0  501  502 -0.00000000000E+00 -0.00000000000E+00 -0.52310049770E+03  0.52310049770E+03  0.00000000000E+00 0. -1.
      99926    2    1    2    0    0 -0.14210854715E-13  0.00000000000E+00 -0.42356200210E+03  0.62263899330E+03  0.45637106213E+03 0.  0.
      99925    2    3    3    0    0  0.89841005512E+02 -0.39886511152E+02 -0.18621036769E+03  0.33690196997E+03  0.26299485982E+03 0.  0.
         25    1    3    3    0    0 -0.89841005512E+02  0.39886511152E+02 -0.23735163441E+03  0.28573702333E+03  0.12509000000E+03 0.  0.
         25    1    4    4    0    0  0.80876290600E+02 -0.40789963325E+02 -0.89233106004E+02  0.17836717971E+03  0.12509000000E+03 0.  0.
         25    1    4    4    0    0  0.89647149117E+01  0.90345217323E+00 -0.96977261688E+02  0.15853479026E+03  0.12509000000E+03 0.  0.
<mgrwt>
<rscale>  2 0.45637106E+03</rscale>
<asrwt>0</asrwt>
<pdfrwt beam="1">  1       21 0.14638014E-01 0.45637106E+03</pdfrwt>
<pdfrwt beam="2">  1       21 0.76926542E-01 0.45637106E+03</pdfrwt>
<totfact> 0.56689766E+04</totfact>
</mgrwt>
</event>
<event>
 7    0  0.4737014E-002  0.4585298E+03  0.7546771E-02  0.1025208E+00
         21   -1    0    0  502  501  0.00000000000E+00  0.00000000000E+00  0.74994111785E+02  0.74994111785E+02  0.00000000000E+00 0. -1.
         21   -1    0    0  501  502 -0.00000000000E+00 -0.00000000000E+00 -0.70088707765E+03  0.70088707765E+03  0.00000000000E+00 0. -1.
      99926    2    1    2    0    0  0.71054273576E-14  0.00000000000E+00 -0.62589296586E+03  0.77588118943E+03  0.45852984134E+03 0.  0.
      99925    2    3    3    0    0  0.35629392470E+02  0.49793901638E+02 -0.56013224130E+03  0.62186538751E+03  0.26309607787E+03 0.  0.
         25    1    3    3    0    0 -0.35629392470E+02 -0.49793901638E+02 -0.65760724569E+02  0.15401580193E+03  0.12509000000E+03 0.  0.
         25    1    4    4    0    0  0.17209247147E+02  0.57319927005E+00 -0.34647526969E+03  0.36876700957E+03  0.12509000000E+03 0.  0.
         25    1    4    4    0    0  0.18420145322E+02  0.49220702368E+02 -0.21365697161E+03  0.25309837793E+03  0.12509000000E+03 0.  0.
<mgrwt>
<rscale>  2 0.45852984E+03</rscale>
<asrwt>0</asrwt>
<pdfrwt beam="1">  1       21 0.11028546E-01 0.45852984E+03</pdfrwt>
<pdfrwt beam="2">  1       21 0.10307162E+00 0.45852984E+03</pdfrwt>
<totfact> 0.47620341E+04</totfact>
</mgrwt>
</event>
<event>
 7    0  0.4737014E-002  0.4559388E+03  0.7546771E-02  0.1025966E+00
         21   -1    0    0  502  501  0.00000000000E+00  0.00000000000E+00  0.38860451888E+03  0.38860451888E+03  0.00000000000E+00 0.  1.
         21   -1    0    0  501  502 -0.00000000000E+00 -0.00000000000E+00 -0.13373503757E+03  0.13373503757E+03  0.00000000000E+00 0.  1.
      99926    2    1    2    0    0  0.00000000000E+00 -0.35527136788E-14  0.25486948132E+03  0.52233955645E+03  0.45593876752E+03 0.  0.
      99925    2    3    3    0    0  0.98333092763E+02  0.21694508725E+02  0.22120654908E+03  0.35826411664E+03  0.26321244476E+03 0.  0.
         25    1    4    4    0    0  0.17610610752E+02  0.37603451341E+02  0.95423650543E+02  0.16271857407E+03  0.12509000000E+03 0.  0.
         25    1    3    3    0    0 -0.98333092763E+02 -0.21694508725E+02  0.33662932240E+02  0.16407543981E+03  0.12509000000E+03 0.  0.
         25    1    4    4    0    0  0.80722482011E+02 -0.15908942616E+02  0.12578289853E+03  0.19554554257E+03  0.12509000000E+03 0.  0.
<mgrwt>
<rscale>  2 0.45593877E+03</rscale>
<asrwt>0</asrwt>
<pdfrwt beam="1">  1       21 0.57147723E-01 0.45593877E+03</pdfrwt>
<pdfrwt beam="2">  1       21 0.19666917E-01 0.45593877E+03</pdfrwt>
<totfact> 0.63255714E+04</totfact>
</mgrwt>
</event>
<event>
 7    0  0.4737014E-002  0.4306035E+03  0.7546771E-02  0.1033670E+00
         21   -1    0    0  502  501  0.00000000000E+00  0.00000000000E+00  0.80195550073E+03  0.80195550073E+03  0.00000000000E+00 0. -1.
         21   -1    0    0  501  502 -0.00000000000E+00 -0.00000000000E+00 -0.57802251371E+02  0.57802251371E+02  0.00000000000E+00 0. -1.
      99926    2    1    2    0    0  0.00000000000E+00  0.00000000000E+00  0.74415324936E+03  0.85975775210E+03  0.43060345304E+03 0.  0.
      99925    2    3    3    0    0  0.57471584671E+02 -0.64587509189E+02  0.44349527337E+03  0.52283453234E+03  0.26304631022E+03 0.  0.
         25    1    3    3    0    0 -0.57471584671E+02  0.64587509189E+02  0.30065797599E+03  0.33692321976E+03  0.12509000000E+03 0.  0.
         25    1    4    4    0    0  0.33605159256E+02 -0.13871511869E+02  0.14844028310E+03  0.19749367412E+03  0.12509000000E+03 0.  0.
         25    1    4    4    0    0  0.23866425415E+02 -0.50715997320E+02  0.29505499027E+03  0.32534085822E+03  0.12509000000E+03 0.  0.
<mgrwt>
<rscale>  2 0.43060345E+03</rscale>
<asrwt>0</asrwt>
<pdfrwt beam="1">  1       21 0.11793463E+00 0.43060345E+03</pdfrwt>
<pdfrwt beam="2">  1       21 0.85003316E-02 0.43060345E+03</pdfrwt>
<totfact> 0.54752216E+04</totfact>
</mgrwt>
</event>
<event>
 7    0  0.4737014E-002  0.4522273E+03  0.7546771E-02  0.1027060E+00
         21   -1    0    0  502  501  0.00000000000E+00  0.00000000000E+00  0.25475811286E+02  0.25475811286E+02  0.00000000000E+00 0.  1.
         21   -1    0    0  501  502 -0.00000000000E+00 -0.00000000000E+00 -0.20068988356E+04  0.20068988356E+04  0.00000000000E+00 0.  1.
      99926    2    1    2    0    0  0.00000000000E+00  0.00000000000E+00 -0.19814230243E+04  0.20323746469E+04  0.45222727032E+03 0.  0.
      99925    2    3    3    0    0 -0.11483219018E+02 -0.10972369026E+03 -0.12791976097E+04  0.13106134720E+04  0.26303991301E+03 0.  0.
         25    1    4    4    0    0 -0.36004663731E+02 -0.45625591833E+02 -0.74665873909E+03  0.75929230946E+03  0.12509000000E+03 0.  0.
         25    1    4    4    0    0  0.24521444713E+02 -0.64098098425E+02 -0.53253887064E+03  0.55132116259E+03  0.12509000000E+03 0.  0.
         25    1    3    3    0    0  0.11483219018E+02  0.10972369026E+03 -0.70222541458E+03  0.72176117484E+03  0.12509000000E+03 0.  0.
<mgrwt>
<rscale>  2 0.45222727E+03</rscale>
<asrwt>0</asrwt>
<pdfrwt beam="1">  1       21 0.37464417E-02 0.45222727E+03</pdfrwt>
<pdfrwt beam="2">  1       21 0.29513227E+00 0.45222727E+03</pdfrwt>
<totfact> 0.13476011E+04</totfact>
</mgrwt>
</event>
<event>
 7    0  0.4737014E-002  0.4561311E+03  0.7546771E-02  0.1025909E+00
         21   -1    0    0  502  501  0.00000000000E+00  0.00000000000E+00  0.41445849508E+03  0.41445849508E+03  0.00000000000E+00 0.  1.
         21   -1    0    0  501  502 -0.00000000000E+00 -0.00000000000E+00 -0.12549845336E+03  0.12549845336E+03  0.00000000000E+00 0.  1.
      99926    2    1    2    0    0  0.00000000000E+00 -0.14210854715E-13  0.28896004172E+03  0.53995694844E+03  0.45613112199E+03 0.  0.
      99925    2    3    3    0    0  0.56561929896E+02 -0.92691574012E+02  0.13947274847E+03  0.31683156048E+03  0.26294221864E+03 0.  0.
         25    1    4    4    0    0  0.10623379577E+01 -0.44556883945E+02  0.10074340160E+03  0.16668288915E+03  0.12509000000E+03 0.  0.
         25    1    3    3    0    0 -0.56561929896E+02  0.92691574012E+02  0.14948729326E+03  0.22312538796E+03  0.12509000000E+03 0.  0.
         25    1    4    4    0    0  0.55499591938E+02 -0.48134690067E+02  0.38729346867E+02  0.15014867133E+03  0.12509000000E+03 0.  0.
<mgrwt>
<rscale>  2 0.45613112E+03</rscale>
<asrwt>0</asrwt>
<pdfrwt beam="1">  1       21 0.60949778E-01 0.45613112E+03</pdfrwt>
<pdfrwt beam="2">  1       21 0.18455655E-01 0.45613112E+03</pdfrwt>
<totfact> 0.61978409E+04</totfact>
</mgrwt>
</event>
<event>
 7    0  0.4737014E-002  0.4575213E+03  0.7546771E-02  0.1025503E+00
         21   -1    0    0  502  501  0.00000000000E+00  0.00000000000E+00  0.56573342775E+03  0.56573342775E+03  0.00000000000E+00 0.  1.
         21   -1    0    0  501  502 -0.00000000000E+00 -0.00000000000E+00 -0.92501931378E+02  0.92501931378E+02  0.00000000000E+00 0.  1.
      99926    2    1    2    0    0  0.00000000000E+00 -0.22204460493E-14  0.47323149638E+03  0.65823535913E+03  0.45752129879E+03 0.  0.
      99925    2    3    3    0    0 -0.11075271996E+03 -0.21760901403E+01  0.34308045256E+03  0.44643898841E+03  0.26331098171E+03 0.  0.
         25    1    4    4    0    0 -0.39995144192E+02 -0.36159585499E+02  0.13991424570E+03  0.19527066199E+03  0.12509000000E+03 0.  0.
         25    1    3    3    0    0  0.11075271996E+03  0.21760901403E+01  0.13015104381E+03  0.21179637073E+03  0.12509000000E+03 0.  0.
         25    1    4    4    0    0 -0.70757575771E+02  0.33983495359E+02  0.20316620686E+03  0.25116832642E+03  0.12509000000E+03 0.  0.
<mgrwt>
<rscale>  2 0.45752130E+03</rscale>
<asrwt>0</asrwt>
<pdfrwt beam="1">  1       21 0.83196090E-01 0.45752130E+03</pdfrwt>
<pdfrwt beam="2">  1       21 0.13603226E-01 0.45752130E+03</pdfrwt>
<totfact> 0.54144671E+04</totfact>
</mgrwt>
</event>
<event>
 7    0  0.4737014E-002  0.4548523E+03  0.7546771E-02  0.1026285E+00
         21   -1    0    0  502  501  0.00000000000E+00  0.00000000000E+00  0.97064863813E+03  0.97064863813E+03  0.00000000000E+00 0.  1.
         21   -1    0    0  501  502 -0.00000000000E+00 -0.00000000000E+00 -0.53286697645E+02  0.53286697645E+02  0.00000000000E+00 0.  1.
      99926    2    1    2    0    0  0.14210854715E-13  0.26645352591E-14  0.91736194048E+03  0.10239353358E+04  0.45485232988E+03 0.  0.
      99925    2    3    3    0    0 -0.11048859703E+03 -0.64675326169E+01  0.52548681640E+03  0.59795038296E+03  0.26298043124E+03 0.  0.
         25    1    4    4    0    0 -0.37842501087E+02  0.24745342266E+02  0.30096172906E+03  0.32904385317E+03  0.12509000000E+03 0.  0.
         25    1    3    3    0    0  0.11048859703E+03  0.64675326169E+01  0.39187512408E+03  0.42598495281E+03  0.12509000000E+03 0.  0.
         25    1    4    4    0    0 -0.72646095942E+02 -0.31212874883E+02  0.22452508734E+03  0.26890652978E+03  0.12509000000E+03 0.  0.
<mgrwt>
<rscale>  2 0.45485233E+03</rscale>
<asrwt>0</asrwt>
<pdfrwt beam="1">  1       21 0.14274244E+00 0.45485233E+03</pdfrwt>
<pdfrwt beam="2">  1       21 0.78362796E-02 0.45485233E+03</pdfrwt>
<totfact> 0.38292683E+04</totfact>
</mgrwt>
</event>
<event>
 7    0  0.4737014E-002  0.4478562E+03  0.7546771E-02  0.1028363E+00
         21   -1    0    0  502  501  0.00000000000E+00  0.00000000000E+00  0.64454828717E+03  0.64454828717E+03  0.00000000000E+00 0. -1.
         21   -1    0    0  501  502 -0.00000000000E+00 -0.00000000000E+00 -0.77796813084E+02  0.77796813084E+02  0.00000000000E+00 0. -1.
      99926    2    1    2    0    0  0.00000000000E+00  0.00000000000E+00  0.56675147409E+03  0.72234510025E+03  0.44785623863E+03 0.  0.
      99925    2    3    3    0    0  0.79040830658E+02  0.31360549068E+02  0.46159683434E+03  0.53812799109E+03  0.26320934705E+03 0.  0.
         25    1    3    3    0    0 -0.79040830658E+02 -0.31360549068E+02  0.10515463975E+03  0.18421710917E+03  0.12509000000E+03 0.  0.
         25    1    4    4    0    0 -0.16661920020E+01  0.19172165813E+02  0.23059070607E+03  0.26303978780E+03  0.12509000000E+03 0.  0.
         25    1    4    4    0    0  0.80707022660E+02  0.12188383255E+02  0.23100612826E+03  0.27508820329E+03  0.12509000000E+03 0.  0.
<mgrwt>
<rscale>  2 0.44785624E+03</rscale>
<asrwt>0</asrwt>
<pdfrwt beam="1">  1       21 0.94786510E-01 0.44785624E+03</pdfrwt>
<pdfrwt beam="2">  1       21 0.11440708E-01 0.44785624E+03</pdfrwt>
<totfact> 0.54716639E+04</totfact>
</mgrwt>
</event>
<event>
 7    0  0.4737014E-002  0.4547304E+03  0.7546771E-02  0.1026321E+00
         21   -1    0    0  502  501  0.00000000000E+00  0.00000000000E+00  0.38957529214E+03  0.38957529214E+03  0.00000000000E+00 0. -1.
         21   -1    0    0  501  502 -0.00000000000E+00 -0.00000000000E+00 -0.13269564679E+03  0.13269564679E+03  0.00000000000E+00 0. -1.
      99926    2    1    2    0    0  0.35527136788E-14  0.00000000000E+00  0.25687964535E+03  0.52227093893E+03  0.45473044923E+03 0.  0.
      99925    2    3    3    0    0 -0.30715508526E+02 -0.46031176351E+02  0.48560250781E+02  0.27305859992E+03  0.26294598186E+03 0.  0.
         25    1    4    4    0    0 -0.12086123083E+02 -0.16193765996E+02  0.64429933218E+02  0.14215145734E+03  0.12509000000E+03 0.  0.
         25    1    4    4    0    0 -0.18629385444E+02 -0.29837410355E+02 -0.15869682437E+02  0.13090714258E+03  0.12509000000E+03 0.  0.
         25    1    3    3    0    0  0.30715508526E+02  0.46031176351E+02  0.20831939457E+03  0.24921233901E+03  0.12509000000E+03 0.  0.
<mgrwt>
<rscale>  2 0.45473045E+03</rscale>
<asrwt>0</asrwt>
<pdfrwt beam="1">  1       21 0.57290484E-01 0.45473045E+03</pdfrwt>
<pdfrwt beam="2">  1       21 0.19514066E-01 0.45473045E+03</pdfrwt>
<totfact> 0.63869086E+04</totfact>
</mgrwt>
</event>
<event>
 7    0  0.4737014E-002  0.4532901E+03  0.7546771E-02  0.1026745E+00
         21   -1    0    0  502  501  0.00000000000E+00  0.00000000000E+00  0.48778104139E+03  0.48778104139E+03  0.00000000000E+00 0.  1.
         21   -1    0    0  501  502 -0.00000000000E+00 -0.00000000000E+00 -0.10530952119E+03  0.10530952119E+03  0.00000000000E+00 0.  1.
      99926    2    1    2    0    0  0.00000000000E+00  0.00000000000E+00  0.38247152020E+03  0.59309056258E+03  0.45329014070E+03 0.  0.
      99925    2    3    3    0    0 -0.10158010242E+03 -0.45274588290E+02  0.22865886839E+03  0.36577108363E+03  0.26293592751E+03 0.  0.
         25    1    3    3    0    0  0.10158010242E+03  0.45274588290E+02  0.15381265182E+03  0.22731947895E+03  0.12509000000E+03 0.  0.
         25    1    4    4    0    0 -0.93685346696E+02 -0.19108517151E+02  0.12635509968E+03  0.20187916913E+03  0.12509000000E+03 0.  0.
         25    1    4    4    0    0 -0.78947557268E+01 -0.26166071139E+02  0.10230376871E+03  0.16389191450E+03  0.12509000000E+03 0.  0.
<mgrwt>
<rscale>  2 0.45329014E+03</rscale>
<asrwt>0</asrwt>
<pdfrwt beam="1">  1       21 0.71732505E-01 0.45329014E+03</pdfrwt>
<pdfrwt beam="2">  1       21 0.15486694E-01 0.45329014E+03</pdfrwt>
<totfact> 0.59911049E+04</totfact>
</mgrwt>
</event>
<event>
 6    0  0.4737014E-002  0.3850907E+03  0.7546771E-02  0.1049068E+00
         21   -1    0    0  502  501  0.00000000000E+00  0.00000000000E+00  0.92154772678E+02  0.92154772678E+02  0.00000000000E+00 0. -1.
         21   -1    0    0  501  502 -0.00000000000E+00 -0.00000000000E+00 -0.40229825458E+03  0.40229825458E+03  0.00000000000E+00 0. -1.
      99926    2    1    2    0    0  0.00000000000E+00 -0.22204460493E-15 -0.31014348190E+03  0.49445302726E+03  0.38509066049E+03 0.  0.
         25    1    3    3    0    0 -0.64592395718E+01 -0.25071838889E+02 -0.10018101476E+03  0.16233934427E+03  0.12509000000E+03 0.  0.
         25    1    3    3    0    0  0.26306274252E+02 -0.83179284595E+00 -0.11122337381E+03  0.16944278954E+03  0.12509000000E+03 0.  0.
         25    1    3    3    0    0 -0.19847034680E+02  0.25903631735E+02 -0.98739093332E+02  0.16267089345E+03  0.12509000000E+03 0.  0.
<mgrwt>
<rscale>  2 0.38509066E+03</rscale>
<asrwt>0</asrwt>
<pdfrwt beam="1">  1       21 0.13552173E-01 0.38509066E+03</pdfrwt>
<pdfrwt beam="2">  1       21 0.59161508E-01 0.38509066E+03</pdfrwt>
<totfact> 0.11926376E+05</totfact>
</mgrwt>
</event>
<event>
 7    0  0.4737014E-002  0.4618849E+03  0.7546771E-02  0.1024236E+00
         21   -1    0    0  502  501  0.00000000000E+00  0.00000000000E+00  0.42276429733E+03  0.42276429733E+03  0.00000000000E+00 0. -1.
         21   -1    0    0  501  502 -0.00000000000E+00 -0.00000000000E+00 -0.12615640204E+03  0.12615640204E+03  0.00000000000E+00 0. -1.
      99926    2    1    2    0    0  0.00000000000E+00  0.00000000000E+00  0.29660789529E+03  0.54892069937E+03  0.46188493226E+03 0.  0.
      99925    2    3    3    0    0 -0.93764415416E+02  0.33213407789E+02  0.26577345216E+03  0.38615348204E+03  0.26188563871E+03 0.  0.
         25    1    3    3    0    0  0.93764415416E+02 -0.33213407789E+02  0.30834443126E+02  0.16276721733E+03  0.12509000000E+03 0.  0.
         25    1    4    4    0    0 -0.65101047639E+02  0.14647734481E+02  0.18614500891E+03  0.23398755303E+03  0.12509000000E+03 0.  0.
         25    1    4    4    0    0 -0.28663367776E+02  0.18565673308E+02  0.79628443249E+02  0.15216592901E+03  0.12509000000E+03 0.  0.
<mgrwt>
<rscale>  2 0.46188493E+03</rscale>
<asrwt>0</asrwt>
<pdfrwt beam="1">  1       21 0.62171220E-01 0.46188493E+03</pdfrwt>
<pdfrwt beam="2">  1       21 0.18552412E-01 0.46188493E+03</pdfrwt>
<totfact> 0.58675584E+04</totfact>
</mgrwt>
</event>
<event>
 7    0  0.4737014E-002  0.4601952E+03  0.7546771E-02  0.1024725E+00
         21   -1    0    0  502  501  0.00000000000E+00  0.00000000000E+00  0.59263496582E+03  0.59263496582E+03  0.00000000000E+00 0.  1.
         21   -1    0    0  501  502 -0.00000000000E+00 -0.00000000000E+00 -0.89338123573E+02  0.89338123573E+02  0.00000000000E+00 0.  1.
      99926    2    1    2    0    0  0.00000000000E+00  0.00000000000E+00  0.50329684225E+03  0.68197308940E+03  0.46019515778E+03 0.  0.
      99925    2    3    3    0    0  0.80666727840E+02 -0.58032931568E+02  0.41077373355E+03  0.49735733744E+03  0.26221044755E+03 0.  0.
         25    1    4    4    0    0  0.65126801339E+02 -0.24008734821E+01  0.18142193483E+03  0.22980141641E+03  0.12509000000E+03 0.  0.
         25    1    4    4    0    0  0.15539926501E+02 -0.55632058086E+02  0.22935179872E+03  0.26755592103E+03  0.12509000000E+03 0.  0.
         25    1    3    3    0    0 -0.80666727840E+02  0.58032931568E+02  0.92523108700E+02  0.18461575196E+03  0.12509000000E+03 0.  0.
<mgrwt>
<rscale>  2 0.46019516E+03</rscale>
<asrwt>0</asrwt>
<pdfrwt beam="1">  1       21 0.87152199E-01 0.46019516E+03</pdfrwt>
<pdfrwt beam="2">  1       21 0.13137960E-01 0.46019516E+03</pdfrwt>
<totfact> 0.51742554E+04</totfact>
</mgrwt>
</event>
<event>
 7    0  0.4737014E-002  0.4573629E+03  0.7546771E-02  0.1025549E+00
         21   -1    0    0  502  501  0.00000000000E+00  0.00000000000E+00  0.10117479383E+04  0.10117479383E+04  0.00000000000E+00 0.  1.
         21   -1    0    0  501  502 -0.00000000000E+00 -0.00000000000E+00 -0.51687985847E+02  0.51687985847E+02  0.00000000000E+00 0.  1.
      99926    2    1    2    0    0 -0.35527136788E-14  0.00000000000E+00  0.96005995249E+03  0.10634359242E+04  0.45736293298E+03 0.  0.
      99925    2    3    3    0    0  0.14271316416E+02  0.93099369670E+01  0.86819377530E+03  0.90730377499E+03  0.26296266514E+03 0.  0.
         25    1    3    3    0    0 -0.14271316416E+02 -0.93099369670E+01  0.91866177195E+02  0.15613214919E+03  0.12509000000E+03 0.  0.
         25    1    4    4    0    0 -0.30727982257E+02  0.64485287434E+00  0.37880586014E+03  0.40010750119E+03  0.12509000000E+03 0.  0.
         25    1    4    4    0    0  0.44999298672E+02  0.86650840927E+01  0.48938791515E+03  0.50719627381E+03  0.12509000000E+03 0.  0.
<mgrwt>
<rscale>  2 0.45736293E+03</rscale>
<asrwt>0</asrwt>
<pdfrwt beam="1">  1       21 0.14878645E+00 0.45736293E+03</pdfrwt>
<pdfrwt beam="2">  1       21 0.76011750E-02 0.45736293E+03</pdfrwt>
<totfact> 0.36117575E+04</totfact>
</mgrwt>
</event>
<event>
 7    0  0.4737014E-002  0.4571329E+03  0.7546771E-02  0.1025616E+00
         21   -1    0    0  502  501  0.00000000000E+00  0.00000000000E+00  0.24696803856E+03  0.24696803856E+03  0.00000000000E+00 0.  1.
         21   -1    0    0  501  502 -0.00000000000E+00 -0.00000000000E+00 -0.21153592018E+03  0.21153592018E+03  0.00000000000E+00 0.  1.
      99926    2    1    2    0    0  0.00000000000E+00  0.00000000000E+00  0.35432118375E+02  0.45850395874E+03  0.45713285286E+03 0.  0.
      99925    2    3    3    0    0 -0.93445065439E+02 -0.53588754889E+02  0.63312619179E+02  0.29108661994E+03  0.26290530168E+03 0.  0.
         25    1    3    3    0    0  0.93445065439E+02  0.53588754889E+02 -0.27880500805E+02  0.16741733880E+03  0.12509000000E+03 0.  0.
         25    1    4    4    0    0 -0.56276276677E+02 -0.22157743118E+02 -0.78430165946E+01  0.13916539047E+03  0.12509000000E+03 0.  0.
         25    1    4    4    0    0 -0.37168788762E+02 -0.31431011772E+02  0.71155635774E+02  0.15192122946E+03  0.12509000000E+03 0.  0.
<mgrwt>
<rscale>  2 0.45713285E+03</rscale>
<asrwt>0</asrwt>
<pdfrwt beam="1">  1       21 0.36318829E-01 0.45713285E+03</pdfrwt>
<pdfrwt beam="2">  1       21 0.31108223E-01 0.45713285E+03</pdfrwt>
<totfact> 0.67140042E+04</totfact>
</mgrwt>
</event>
<event>
 7    0  0.4737014E-002  0.4554923E+03  0.7546771E-02  0.1026097E+00
         21   -1    0    0  502  501  0.00000000000E+00  0.00000000000E+00  0.11109300640E+03  0.11109300640E+03  0.00000000000E+00 0. -1.
         21   -1    0    0  501  502 -0.00000000000E+00 -0.00000000000E+00 -0.46689082968E+03  0.46689082968E+03  0.00000000000E+00 0. -1.
      99926    2    1    2    0    0  0.00000000000E+00  0.00000000000E+00 -0.35579782327E+03  0.57798383608E+03  0.45549228722E+03 0.  0.
      99925    2    3    3    0    0 -0.30234243120E+02  0.97025911777E+02 -0.15551022133E+03  0.32090258704E+03  0.26166181307E+03 0.  0.
         25    1    4    4    0    0 -0.18253746306E+02  0.47632409656E+02 -0.12143455709E+03  0.18164775104E+03  0.12509000000E+03 0.  0.
         25    1    3    3    0    0  0.30234243120E+02 -0.97025911777E+02 -0.20028760194E+03  0.25708124903E+03  0.12509000000E+03 0.  0.
         25    1    4    4    0    0 -0.11980496814E+02  0.49393502121E+02 -0.34075664244E+02  0.13925483600E+03  0.12509000000E+03 0.  0.
<mgrwt>
<rscale>  2 0.45549229E+03</rscale>
<asrwt>0</asrwt>
<pdfrwt beam="1">  1       21 0.16337207E-01 0.45549229E+03</pdfrwt>
<pdfrwt beam="2">  1       21 0.68660417E-01 0.45549229E+03</pdfrwt>
<totfact> 0.59821135E+04</totfact>
</mgrwt>
</event>
<event>
 7    0  0.4737014E-002  0.4575709E+03  0.7546771E-02  0.1025488E+00
         21   -1    0    0  502  501  0.00000000000E+00  0.00000000000E+00  0.19225489930E+03  0.19225489930E+03  0.00000000000E+00 0. -1.
         21   -1    0    0  501  502 -0.00000000000E+00 -0.00000000000E+00 -0.27225725535E+03  0.27225725535E+03  0.00000000000E+00 0. -1.
      99926    2    1    2    0    0  0.00000000000E+00  0.00000000000E+00 -0.80002356056E+02  0.46451215465E+03  0.45757093969E+03 0.  0.
      99925    2    3    3    0    0  0.25836933906E+02  0.79610217656E+02 -0.13112661019E+03  0.30555766000E+03  0.26299422385E+03 0.  0.
         25    1    3    3    0    0 -0.25836933906E+02 -0.79610217656E+02  0.51124254136E+02  0.15895449465E+03  0.12509000000E+03 0.  0.
         25    1    4    4    0    0  0.41504288181E+02  0.39187036518E+02 -0.34802356504E+02  0.14183420563E+03  0.12509000000E+03 0.  0.
         25    1    4    4    0    0 -0.15667354275E+02  0.40423181137E+02 -0.96324253688E+02  0.16372345437E+03  0.12509000000E+03 0.  0.
<mgrwt>
<rscale>  2 0.45757094E+03</rscale>
<asrwt>0</asrwt>
<pdfrwt beam="1">  1       21 0.28272779E-01 0.45757094E+03</pdfrwt>
<pdfrwt beam="2">  1       21 0.40037831E-01 0.45757094E+03</pdfrwt>
<totfact> 0.66477298E+04</totfact>
</mgrwt>
</event>
<event>
 7    0  0.4737014E-002  0.4518444E+03  0.7546771E-02  0.1027173E+00
         21   -1    0    0  502  501  0.00000000000E+00  0.00000000000E+00  0.10143915653E+03  0.10143915653E+03  0.00000000000E+00 0.  1.
         21   -1    0    0  501  502 -0.00000000000E+00 -0.00000000000E+00 -0.50316703997E+03  0.50316703997E+03  0.00000000000E+00 0.  1.
      99926    2    1    2    0    0  0.00000000000E+00  0.00000000000E+00 -0.40172788344E+03  0.60460619650E+03  0.45184439856E+03 0.  0.
      99925    2    3    3    0    0  0.10160090825E+03  0.16356613455E+02 -0.20104365868E+03  0.34670708923E+03  0.26305316889E+03 0.  0.
         25    1    4    4    0    0  0.69559246545E+02  0.31433781623E+02 -0.14152801590E+03  0.20372594040E+03  0.12509000000E+03 0.  0.
         25    1    3    3    0    0 -0.10160090825E+03 -0.16356613455E+02 -0.20068422477E+03  0.25789910727E+03  0.12509000000E+03 0.  0.
         25    1    4    4    0    0  0.32041661702E+02 -0.15077168168E+02 -0.59515642774E+02  0.14298114883E+03  0.12509000000E+03 0.  0.
<mgrwt>
<rscale>  2 0.45184440E+03</rscale>
<asrwt>0</asrwt>
<pdfrwt beam="1">  1       21 0.14917523E-01 0.45184440E+03</pdfrwt>
<pdfrwt beam="2">  1       21 0.73995154E-01 0.45184440E+03</pdfrwt>
<totfact> 0.59874370E+04</totfact>
</mgrwt>
</event>
<event>
 7    0  0.4737014E-002  0.4507749E+03  0.7546771E-02  0.1027491E+00
         21   -1    0    0  502  501  0.00000000000E+00  0.00000000000E+00  0.48209158535E+03  0.48209158535E+03  0.00000000000E+00 0. -1.
         21   -1    0    0  501  502 -0.00000000000E+00 -0.00000000000E+00 -0.10537312080E+03  0.10537312080E+03  0.00000000000E+00 0. -1.
      99926    2    1    2    0    0 -0.14210854715E-13  0.00000000000E+00  0.37671846456E+03  0.58746470615E+03  0.45077486558E+03 0.  0.
      99925    2    3    3    0    0 -0.81417089006E+02  0.60442942113E+02  0.29127637404E+03  0.40517386555E+03  0.26275814664E+03 0.  0.
         25    1    4    4    0    0 -0.36122814897E+02 -0.10769270487E+02  0.12975831486E+03  0.18413463368E+03  0.12509000000E+03 0.  0.
         25    1    4    4    0    0 -0.45294274109E+02  0.71212212600E+02  0.16151805917E+03  0.22103923188E+03  0.12509000000E+03 0.  0.
         25    1    3    3    0    0  0.81417089006E+02 -0.60442942113E+02  0.85442090521E+02  0.18229084060E+03  0.12509000000E+03 0.  0.
<mgrwt>
<rscale>  2 0.45077487E+03</rscale>
<asrwt>0</asrwt>
<pdfrwt beam="1">  1       21 0.70895820E-01 0.45077487E+03</pdfrwt>
<pdfrwt beam="2">  1       21 0.15496047E-01 0.45077487E+03</pdfrwt>
<totfact> 0.61484257E+04</totfact>
</mgrwt>
</event>
<event>
 7    0  0.4737014E-002  0.4557694E+03  0.7546771E-02  0.1026015E+00
         21   -1    0    0  502  501  0.00000000000E+00  0.00000000000E+00  0.30820932845E+03  0.30820932845E+03  0.00000000000E+00 0. -1.
         21   -1    0    0  501  502 -0.00000000000E+00 -0.00000000000E+00 -0.16849406552E+03  0.16849406552E+03  0.00000000000E+00 0. -1.
      99926    2    1    2    0    0  0.00000000000E+00  0.00000000000E+00  0.13971526293E+03  0.47670339397E+03  0.45576942759E+03 0.  0.
      99925    2    3    3    0    0 -0.74829584566E+02  0.68337548528E+02  0.33509550045E+02  0.28383906649E+03  0.26300615668E+03 0.  0.
         25    1    4    4    0    0 -0.85719013097E+01  0.58225402707E+02  0.32081803059E+02  0.14191696586E+03  0.12509000000E+03 0.  0.
         25    1    3    3    0    0  0.74829584566E+02 -0.68337548528E+02  0.10620571288E+03  0.19286432748E+03  0.12509000000E+03 0.  0.
         25    1    4    4    0    0 -0.66257683256E+02  0.10112145822E+02  0.14277469860E+01  0.14192210062E+03  0.12509000000E+03 0.  0.
<mgrwt>
<rscale>  2 0.45576943E+03</rscale>
<asrwt>0</asrwt>
<pdfrwt beam="1">  1       21 0.45324901E-01 0.45576943E+03</pdfrwt>
<pdfrwt beam="2">  1       21 0.24778539E-01 0.45576943E+03</pdfrwt>
<totfact> 0.66533649E+04</totfact>
</mgrwt>
</event>
<event>
 7    0  0.4737014E-002  0.4581948E+03  0.7546771E-02  0.1025306E+00
         21   -1    0    0  502  501  0.00000000000E+00  0.00000000000E+00  0.73084441152E+03  0.73084441152E+03  0.00000000000E+00 0.  1.
         21   -1    0    0  501  502 -0.00000000000E+00 -0.00000000000E+00 -0.71815023041E+02  0.71815023041E+02  0.00000000000E+00 0.  1.
      99926    2    1    2    0    0  0.00000000000E+00  0.00000000000E+00  0.65902938848E+03  0.80265943456E+03  0.45819475445E+03 0.  0.
      99925    2    3    3    0    0  0.37985819200E+02 -0.10391963585E+03  0.35135390536E+03  0.45258240848E+03  0.26294306699E+03 0.  0.
         25    1    4    4    0    0  0.49026904099E+02 -0.26535438555E+02  0.18631997940E+03  0.23123669615E+03  0.12509000000E+03 0.  0.
         25    1    4    4    0    0 -0.11041084899E+02 -0.77384197299E+02  0.16503392597E+03  0.22134571233E+03  0.12509000000E+03 0.  0.
         25    1    3    3    0    0 -0.37985819200E+02  0.10391963585E+03  0.30767548311E+03  0.35007702607E+03  0.12509000000E+03 0.  0.
<mgrwt>
<rscale>  2 0.45819475E+03</rscale>
<asrwt>0</asrwt>
<pdfrwt beam="1">  1       21 0.10747712E+00 0.45819475E+03</pdfrwt>
<pdfrwt beam="2">  1       21 0.10561033E-01 0.45819475E+03</pdfrwt>
<totfact> 0.46460619E+04</totfact>
</mgrwt>
</event>
<event>
 7    0  0.4737014E-002  0.4526864E+03  0.7546771E-02  0.1026924E+00
         21   -1    0    0  502  501  0.00000000000E+00  0.00000000000E+00  0.16918085559E+03  0.16918085559E+03  0.00000000000E+00 0.  1.
         21   -1    0    0  501  502 -0.00000000000E+00 -0.00000000000E+00 -0.30281933645E+03  0.30281933645E+03  0.00000000000E+00 0.  1.
      99926    2    1    2    0    0  0.22204460493E-15 -0.17763568394E-14 -0.13363848086E+03  0.47200019204E+03  0.45268635689E+03 0.  0.
      99925    2    3    3    0    0  0.50375074615E+00  0.10497959944E+02  0.31002515398E+02  0.26496244988E+03  0.26293246843E+03 0.  0.
         25    1    3    3    0    0 -0.50375074615E+00 -0.10497959944E+02 -0.16464099626E+03  0.20703774216E+03  0.12509000000E+03 0.  0.
         25    1    4    4    0    0 -0.32734118606E+02 -0.12355867449E+02 -0.13730216080E+00  0.12989117342E+03  0.12509000000E+03 0.  0.
         25    1    4    4    0    0  0.33237869352E+02  0.22853827392E+02  0.31139817559E+02  0.13507127645E+03  0.12509000000E+03 0.  0.
<mgrwt>
<rscale>  2 0.45268636E+03</rscale>
<asrwt>0</asrwt>
<pdfrwt beam="1">  1       21 0.24879538E-01 0.45268636E+03</pdfrwt>
<pdfrwt beam="2">  1       21 0.44532255E-01 0.45268636E+03</pdfrwt>
<totfact> 0.68536887E+04</totfact>
</mgrwt>
</event>
<event>
 7    0  0.4737014E-002  0.4573863E+03  0.7546771E-02  0.1025542E+00
         21   -1    0    0  502  501  0.00000000000E+00  0.00000000000E+00  0.37605829425E+02  0.37605829425E+02  0.00000000000E+00 0. -1.
         21   -1    0    0  501  502 -0.00000000000E+00 -0.00000000000E+00 -0.13907564116E+04  0.13907564116E+04  0.00000000000E+00 0. -1.
      99926    2    1    2    0    0  0.14210854715E-13  0.71054273576E-14 -0.13531505822E+04  0.14283622411E+04  0.45738626297E+03 0.  0.
      99925    2    3    3    0    0 -0.76292067187E+02 -0.33710247201E+02 -0.60086286758E+03  0.66119786887E+03  0.26303911472E+03 0.  0.
         25    1    3    3    0    0  0.76292067187E+02  0.33710247201E+02 -0.75228771462E+03  0.76716437218E+03  0.12509000000E+03 0.  0.
         25    1    4    4    0    0 -0.58384377859E+02 -0.50612868524E+02 -0.28812000524E+03  0.32346722177E+03  0.12509000000E+03 0.  0.
         25    1    4    4    0    0 -0.17907689328E+02  0.16902621323E+02 -0.31274286234E+03  0.33773064710E+03  0.12509000000E+03 0.  0.
<mgrwt>
<rscale>  2 0.45738626E+03</rscale>
<asrwt>0</asrwt>
<pdfrwt beam="1">  1       21 0.55302697E-02 0.45738626E+03</pdfrwt>
<pdfrwt beam="2">  1       21 0.20452298E+00 0.45738626E+03</pdfrwt>
<totfact> 0.25116979E+04</totfact>
</mgrwt>
</event>
<event>
 7    0  0.4737014E-002  0.4483193E+03  0.7546771E-02  0.1028224E+00
         21   -1    0    0  502  501  0.00000000000E+00  0.00000000000E+00  0.40580290112E+03  0.40580290112E+03  0.00000000000E+00 0.  1.
         21   -1    0    0  501  502 -0.00000000000E+00 -0.00000000000E+00 -0.12382252926E+03  0.12382252926E+03  0.00000000000E+00 0.  1.
      99926    2    1    2    0    0  0.00000000000E+00  0.00000000000E+00  0.28198037186E+03  0.52962543038E+03  0.44831926837E+03 0.  0.
      99925    2    3    3    0    0 -0.57323481484E+02 -0.67009374617E+02  0.24953381562E+03  0.37317567829E+03  0.26309071423E+03 0.  0.
         25    1    3    3    0    0  0.57323481484E+02  0.67009374617E+02  0.32446556239E+02  0.15644975209E+03  0.12509000000E+03 0.  0.
         25    1    4    4    0    0  0.12582099510E+02 -0.25498341565E+02  0.11416006950E+03  0.17172217160E+03  0.12509000000E+03 0.  0.
         25    1    4    4    0    0 -0.69905580994E+02 -0.41511033052E+02  0.13537374612E+03  0.20145350669E+03  0.12509000000E+03 0.  0.
<mgrwt>
<rscale>  2 0.44831927E+03</rscale>
<asrwt>0</asrwt>
<pdfrwt beam="1">  1       21 0.59676897E-01 0.44831927E+03</pdfrwt>
<pdfrwt beam="2">  1       21 0.18209196E-01 0.44831927E+03</pdfrwt>
<totfact> 0.66690819E+04</totfact>
</mgrwt>
</event>
<event>
 7    0  0.4737014E-002  0.4695728E+03  0.7546771E-02  0.1022041E+00
         21   -1    0    0  502  501  0.00000000000E+00  0.00000000000E+00  0.22891739440E+03  0.22891739440E+03  0.00000000000E+00 0.  1.
         21   -1    0    0  501  502 -0.00000000000E+00 -0.00000000000E+00 -0.24080586152E+03  0.24080586152E+03  0.00000000000E+00 0.  1.
      99926    2    1    2    0    0  0.00000000000E+00  0.22204460493E-15 -0.11888467119E+02  0.46972325592E+03  0.46957278616E+03 0.  0.
      99925    2    3    3    0    0 -0.12287469053E+03  0.18730050977E+01 -0.37926853081E+02  0.29244606234E+03  0.26264911093E+03 0.  0.
         25    1    3    3    0    0  0.12287469053E+03 -0.18730050977E+01  0.26038385963E+02  0.17727719358E+03  0.12509000000E+03 0.  0.
         25    1    4    4    0    0 -0.50840252775E+02  0.30456536455E+01  0.20706869355E+02  0.13663926905E+03  0.12509000000E+03 0.  0.
         25    1    4    4    0    0 -0.72034437752E+02 -0.11726485477E+01 -0.58633722436E+02  0.15580679328E+03  0.12509000000E+03 0.  0.
<mgrwt>
<rscale>  2 0.46957279E+03</rscale>
<asrwt>0</asrwt>
<pdfrwt beam="1">  1       21 0.33664323E-01 0.46957279E+03</pdfrwt>
<pdfrwt beam="2">  1       21 0.35412627E-01 0.46957279E+03</pdfrwt>
<totfact> 0.60173377E+04</totfact>
</mgrwt>
</event>
<event>
 7    0  0.4737014E-002  0.4582777E+03  0.7546771E-02  0.1025282E+00
         21   -1    0    0  502  501  0.00000000000E+00  0.00000000000E+00  0.13344335729E+04  0.13344335729E+04  0.00000000000E+00 0. -1.
         21   -1    0    0  501  502 -0.00000000000E+00 -0.00000000000E+00 -0.39345986069E+02  0.39345986069E+02  0.00000000000E+00 0. -1.
      99926    2    1    2    0    0 -0.14210854715E-13  0.71054273576E-14  0.12950875869E+04  0.13737795590E+04  0.45827766592E+03 0.  0.
      99925    2    3    3    0    0 -0.10288437696E+03  0.47747485102E+02  0.73623429558E+03  0.78997348963E+03  0.26296798089E+03 0.  0.
         25    1    4    4    0    0 -0.92870983888E+02  0.14864756185E+02  0.38955470464E+03  0.41981705139E+03  0.12509000000E+03 0.  0.
         25    1    4    4    0    0 -0.10013393074E+02  0.32882728917E+02  0.34667959093E+03  0.37015643824E+03  0.12509000000E+03 0.  0.
         25    1    3    3    0    0  0.10288437696E+03 -0.47747485102E+02  0.55885329129E+03  0.58380606938E+03  0.12509000000E+03 0.  0.
<mgrwt>
<rscale>  2 0.45827767E+03</rscale>
<asrwt>0</asrwt>
<pdfrwt beam="1">  1       21 0.19624020E+00 0.45827767E+03</pdfrwt>
<pdfrwt beam="2">  1       21 0.57861753E-02 0.45827767E+03</pdfrwt>
<totfact> 0.26361234E+04</totfact>
</mgrwt>
</event>
<event>
 7    0  0.4737014E-002  0.4570384E+03  0.7546771E-02  0.1025644E+00
         21   -1    0    0  502  501  0.00000000000E+00  0.00000000000E+00  0.14933818475E+03  0.14933818475E+03  0.00000000000E+00 0.  1.
         21   -1    0    0  501  502 -0.00000000000E+00 -0.00000000000E+00 -0.34968296624E+03  0.34968296624E+03  0.00000000000E+00 0.  1.
      99926    2    1    2    0    0  0.00000000000E+00  0.00000000000E+00 -0.20034478150E+03  0.49902115099E+03  0.45703837658E+03 0.  0.
      99925    2    3    3    0    0 -0.34005201876E+02 -0.31168571283E+02 -0.10493186440E+02  0.26703199212E+03  0.26280818911E+03 0.  0.
         25    1    4    4    0    0 -0.23427527950E+02 -0.26119566494E+02 -0.43716409185E+02  0.13707557533E+03  0.12509000000E+03 0.  0.
         25    1    3    3    0    0  0.34005201876E+02  0.31168571283E+02 -0.18985159506E+03  0.23198915888E+03  0.12509000000E+03 0.  0.
         25    1    4    4    0    0 -0.10577673926E+02 -0.50490047887E+01  0.33223222744E+02  0.12995641679E+03  0.12509000000E+03 0.  0.
<mgrwt>
<rscale>  2 0.45703838E+03</rscale>
<asrwt>0</asrwt>
<pdfrwt beam="1">  1       21 0.21961498E-01 0.45703838E+03</pdfrwt>
<pdfrwt beam="2">  1       21 0.51423965E-01 0.45703838E+03</pdfrwt>
<totfact> 0.64292830E+04</totfact>
</mgrwt>
</event>
<event>
 7    0  0.4737014E-002  0.4610595E+03  0.7546771E-02  0.1024474E+00
         21   -1    0    0  502  501  0.00000000000E+00  0.00000000000E+00  0.16249344324E+03  0.16249344324E+03  0.00000000000E+00 0. -1.
         21   -1    0    0  501  502 -0.00000000000E+00 -0.00000000000E+00 -0.32705303186E+03  0.32705303186E+03  0.00000000000E+00 0. -1.
      99926    2    1    2    0    0  0.00000000000E+00  0.00000000000E+00 -0.16455958862E+03  0.48954647510E+03  0.46105953311E+03 0.  0.
      99925    2    3    3    0    0  0.46366698068E+02 -0.92455178924E+02 -0.41267125656E+02  0.28571720752E+03  0.26312262581E+03 0.  0.
         25    1    3    3    0    0 -0.46366698068E+02  0.92455178924E+02 -0.12329246296E+03  0.20382926758E+03  0.12509000000E+03 0.  0.
         25    1    4    4    0    0  0.49683037358E+02 -0.43080030189E+02 -0.52425475704E+02  0.15073231838E+03  0.12509000000E+03 0.  0.
         25    1    4    4    0    0 -0.33163392900E+01 -0.49375148735E+02  0.11158350047E+02  0.13498488913E+03  0.12509000000E+03 0.  0.
<mgrwt>
<rscale>  2 0.46105953E+03</rscale>
<asrwt>0</asrwt>
<pdfrwt beam="1">  1       21 0.23896095E-01 0.46105953E+03</pdfrwt>
<pdfrwt beam="2">  1       21 0.48096033E-01 0.46105953E+03</pdfrwt>
<totfact> 0.62929454E+04</totfact>
</mgrwt>
</event>
<event>
 7    0  0.4737014E-002  0.4527901E+03  0.7546771E-02  0.1026893E+00
         21   -1    0    0  502  501  0.00000000000E+00  0.00000000000E+00  0.36361213067E+02  0.36361213067E+02  0.00000000000E+00 0. -1.
         21   -1    0    0  501  502 -0.00000000000E+00 -0.00000000000E+00 -0.14095989694E+04  0.14095989694E+04  0.00000000000E+00 0. -1.
      99926    2    1    2    0    0  0.00000000000E+00  0.00000000000E+00 -0.13732377563E+04  0.14459601825E+04  0.45279014329E+03 0.  0.
      99925    2    3    3    0    0 -0.55443127126E+02  0.75904567879E+02 -0.10548049030E+04  0.10911610365E+04  0.26302771811E+03 0.  0.
         25    1    3    3    0    0  0.55443127126E+02 -0.75904567879E+02 -0.31843285334E+03  0.35479914594E+03  0.12509000000E+03 0.  0.
         25    1    4    4    0    0  0.73038601017E+01  0.24068813655E+02 -0.55934333551E+03  0.57371171266E+03  0.12509000000E+03 0.  0.
         25    1    4    4    0    0 -0.62746987227E+02  0.51835754224E+02 -0.49546156748E+03  0.51744932386E+03  0.12509000000E+03 0.  0.
<mgrwt>
<rscale>  2 0.45279014E+03</rscale>
<asrwt>0</asrwt>
<pdfrwt beam="1">  1       21 0.53472354E-02 0.45279014E+03</pdfrwt>
<pdfrwt beam="2">  1       21 0.20729404E+00 0.45279014E+03</pdfrwt>
<totfact> 0.25568759E+04</totfact>
</mgrwt>
</event>
<event>
 7    0  0.4737014E-002  0.4373324E+03  0.7546771E-02  0.1031568E+00
         21   -1    0    0  502  501  0.00000000000E+00  0.00000000000E+00  0.16701148708E+04  0.16701148708E+04  0.00000000000E+00 0.  1.
         21   -1    0    0  501  502 -0.00000000000E+00 -0.00000000000E+00 -0.28629714340E+02  0.28629714340E+02  0.00000000000E+00 0.  1.
      99926    2    1    2    0    0 -0.17763568394E-14 -0.35527136788E-14  0.16414851564E+04  0.16987445851E+04  0.43733242123E+03 0.  0.
      99925    2    3    3    0    0 -0.40120674325E+01  0.19659445395E+02  0.14137108921E+04  0.14381084133E+04  0.26301089600E+03 0.  0.
         25    1    3    3    0    0  0.40120674325E+01 -0.19659445395E+02  0.22777426435E+03  0.26063617185E+03  0.12509000000E+03 0.  0.
         25    1    4    4    0    0 -0.19685504988E+02 -0.11542176803E+01  0.51400435740E+03  0.52937400658E+03  0.12509000000E+03 0.  0.
         25    1    4    4    0    0  0.15673437555E+02  0.20813663075E+02  0.89970653468E+03  0.90873440667E+03  0.12509000000E+03 0.  0.
<mgrwt>
<rscale>  2 0.43733242E+03</rscale>
<asrwt>0</asrwt>
<pdfrwt beam="1">  1       21 0.24560506E+00 0.43733242E+03</pdfrwt>
<pdfrwt beam="2">  1       21 0.42102532E-02 0.43733242E+03</pdfrwt>
<totfact> 0.22177518E+04</totfact>
</mgrwt>
</event>
<event>
 7    0  0.4737014E-002  0.4383000E+03  0.7546771E-02  0.1031270E+00
         21   -1    0    0  502  501  0.00000000000E+00  0.00000000000E+00  0.62058652737E+03  0.62058652737E+03  0.00000000000E+00 0.  1.
         21   -1    0    0  501  502 -0.00000000000E+00 -0.00000000000E+00 -0.77389252068E+02  0.77389252068E+02  0.00000000000E+00 0.  1.
      99926    2    1    2    0    0  0.00000000000E+00  0.00000000000E+00  0.54319727531E+03  0.69797577944E+03  0.43830002143E+03 0.  0.
      99925    2    3    3    0    0 -0.21612960153E+02  0.32211182059E+02  0.48827017144E+03  0.55595755830E+03  0.26301400347E+03 0.  0.
         25    1    4    4    0    0 -0.16022920319E+02  0.12170944195E+02  0.16028972466E+03  0.20431634734E+03  0.12509000000E+03 0.  0.
         25    1    4    4    0    0 -0.55900398344E+01  0.20040237865E+02  0.32798044677E+03  0.35164121096E+03  0.12509000000E+03 0.  0.
         25    1    3    3    0    0  0.21612960153E+02 -0.32211182059E+02  0.54927103866E+02  0.14201822114E+03  0.12509000000E+03 0.  0.
<mgrwt>
<rscale>  2 0.43830002E+03</rscale>
<asrwt>0</asrwt>
<pdfrwt beam="1">  1       21 0.91262722E-01 0.43830002E+03</pdfrwt>
<pdfrwt beam="2">  1       21 0.11380773E-01 0.43830002E+03</pdfrwt>
<totfact> 0.60592522E+04</totfact>
</mgrwt>
</event>
<event>
 6    0  0.4737014E-002  0.4560423E+03  0.7546771E-02  0.1025935E+00
         21   -1    0    0  502  501  0.00000000000E+00  0.00000000000E+00  0.59773994388E+02  0.59773994388E+02  0.00000000000E+00 0.  1.
         21   -1    0    0  501  502 -0.00000000000E+00 -0.00000000000E+00 -0.86983716541E+03  0.86983716541E+03  0.00000000000E+00 0.  1.
      99926    2    1    2    0    0  0.00000000000E+00  0.00000000000E+00 -0.81006317102E+03  0.92961115979E+03  0.45604228683E+03 0.  0.
         25    1    3    3    0    0 -0.14935217827E+02 -0.99560749735E+02 -0.26317991552E+03  0.30829625307E+03  0.12509000000E+03 0.  0.
         25    1    3    3    0    0  0.24417913965E+02 -0.10221764029E+02 -0.22329829063E+03  0.25731372618E+03  0.12509000000E+03 0.  0.
         25    1    3    3    0    0 -0.94826961378E+01  0.10978251376E+03 -0.32358496486E+03  0.36400118055E+03  0.12509000000E+03 0.  0.
<mgrwt>
<rscale>  2 0.45604229E+03</rscale>
<asrwt>0</asrwt>
<pdfrwt beam="1">  1       21 0.87902939E-02 0.45604229E+03</pdfrwt>
<pdfrwt beam="2">  1       21 0.12791722E+00 0.45604229E+03</pdfrwt>
<totfact> 0.41637181E+04</totfact>
</mgrwt>
</event>
<event>
 7    0  0.4737014E-002  0.4565846E+03  0.7546771E-02  0.1025776E+00
         21   -1    0    0  502  501  0.00000000000E+00  0.00000000000E+00  0.22780300585E+03  0.22780300585E+03  0.00000000000E+00 0.  1.
         21   -1    0    0  501  502 -0.00000000000E+00 -0.00000000000E+00 -0.22878269514E+03  0.22878269514E+03  0.00000000000E+00 0.  1.
      99926    2    1    2    0    0  0.00000000000E+00 -0.53290705182E-14 -0.97968929139E+00  0.45658570099E+03  0.45658464993E+03 0.  0.
      99925    2    3    3    0    0  0.20997534558E+02  0.12204634676E+02  0.11145253042E+03  0.28664935498E+03  0.26297592401E+03 0.  0.
         25    1    3    3    0    0 -0.20997534558E+02 -0.12204634676E+02 -0.11243221971E+03  0.16993634600E+03  0.12509000000E+03 0.  0.
         25    1    4    4    0    0 -0.72980669971E+01 -0.29127262228E+02  0.64908478659E+02  0.14409121378E+03  0.12509000000E+03 0.  0.
         25    1    4    4    0    0  0.28295601556E+02  0.41331896904E+02  0.46544051757E+02  0.14255814120E+03  0.12509000000E+03 0.  0.
<mgrwt>
<rscale>  2 0.45658465E+03</rscale>
<asrwt>0</asrwt>
<pdfrwt beam="1">  1       21 0.33500442E-01 0.45658465E+03</pdfrwt>
<pdfrwt beam="2">  1       21 0.33644514E-01 0.45658465E+03</pdfrwt>
<totfact> 0.67571365E+04</totfact>
</mgrwt>
</event>
<event>
 7    0  0.4737014E-002  0.4500724E+03  0.7546771E-02  0.1027700E+00
         21   -1    0    0  502  501  0.00000000000E+00  0.00000000000E+00  0.21396286461E+04  0.21396286461E+04  0.00000000000E+00 0. -1.
         21   -1    0    0  501  502 -0.00000000000E+00 -0.00000000000E+00 -0.23668257899E+02  0.23668257899E+02  0.00000000000E+00 0. -1.
      99926    2    1    2    0    0  0.88817841970E-15  0.00000000000E+00  0.21159603882E+04  0.21632969040E+04  0.45007236131E+03 0.  0.
      99925    2    3    3    0    0  0.40674993665E+01 -0.75824125467E+02  0.17101033583E+04  0.17318652416E+04  0.26294082264E+03 0.  0.
         25    1    4    4    0    0  0.12921493497E+02 -0.76070191824E+02  0.83779276679E+03  0.85058677821E+03  0.12509000000E+03 0.  0.
         25    1    3    3    0    0 -0.40674993665E+01  0.75824125467E+02  0.40585702984E+03  0.43143166240E+03  0.12509000000E+03 0.  0.
         25    1    4    4    0    0 -0.88539941307E+01  0.24606635739E+00  0.87231059154E+03  0.88127846336E+03  0.12509000000E+03 0.  0.
<mgrwt>
<rscale>  2 0.45007236E+03</rscale>
<asrwt>0</asrwt>
<pdfrwt beam="1">  1       21 0.31465114E+00 0.45007236E+03</pdfrwt>
<pdfrwt beam="2">  1       21 0.34806276E-02 0.45007236E+03</pdfrwt>
<totfact> 0.11662208E+04</totfact>
</mgrwt>
</event>
<event>
 7    0  0.4737014E-002  0.4642597E+03  0.7546771E-02  0.1023553E+00
         21   -1    0    0  502  501  0.00000000000E+00  0.00000000000E+00  0.50140299354E+03  0.50140299354E+03  0.00000000000E+00 0. -1.
         21   -1    0    0  501  502 -0.00000000000E+00 -0.00000000000E+00 -0.10746697993E+03  0.10746697993E+03  0.00000000000E+00 0. -1.
      99926    2    1    2    0    0  0.00000000000E+00  0.00000000000E+00  0.39393601361E+03  0.60886997347E+03  0.46425969216E+03 0.  0.
      99925    2    3    3    0    0  0.10494027190E+02 -0.11659764012E+03  0.28936592140E+03  0.40815239433E+03  0.26296502855E+03 0.  0.
         25    1    3    3    0    0 -0.10494027190E+02  0.11659764012E+03  0.10457009221E+03  0.20071757914E+03  0.12509000000E+03 0.  0.
         25    1    4    4    0    0 -0.14530107532E+02 -0.63488129618E+02  0.96463515848E+02  0.17086422861E+03  0.12509000000E+03 0.  0.
         25    1    4    4    0    0  0.25024134722E+02 -0.53109510507E+02  0.19290240555E+03  0.23728816573E+03  0.12509000000E+03 0.  0.
<mgrwt>
<rscale>  2 0.46425969E+03</rscale>
<asrwt>0</asrwt>
<pdfrwt beam="1">  1       21 0.73735734E-01 0.46425969E+03</pdfrwt>
<pdfrwt beam="2">  1       21 0.15803968E-01 0.46425969E+03</pdfrwt>
<totfact> 0.54070567E+04</totfact>
</mgrwt>
</event>
<event>
 7    0  0.4737014E-002  0.4582065E+03  0.7546771E-02  0.1025303E+00
         21   -1    0    0  502  501  0.00000000000E+00  0.00000000000E+00  0.24840863797E+03  0.24840863797E+03  0.00000000000E+00 0. -1.
         21   -1    0    0  501  502 -0.00000000000E+00 -0.00000000000E+00 -0.21129820560E+03  0.21129820560E+03  0.00000000000E+00 0. -1.
      99926    2    1    2    0    0  0.00000000000E+00  0.00000000000E+00  0.37110432373E+02  0.45970684357E+03  0.45820650130E+03 0.  0.
      99925    2    3    3    0    0 -0.63540617536E+02  0.92435898336E+02  0.53212782603E+02  0.29092118316E+03  0.26310022653E+03 0.  0.
         25    1    4    4    0    0  0.68462627099E+01  0.28549671996E+02  0.16154929798E+02  0.12950075267E+03  0.12509000000E+03 0.  0.
         25    1    4    4    0    0 -0.70386880246E+02  0.63886226339E+02  0.37057852805E+02  0.16142043049E+03  0.12509000000E+03 0.  0.
         25    1    3    3    0    0  0.63540617536E+02 -0.92435898336E+02 -0.16102350230E+02  0.16878566041E+03  0.12509000000E+03 0.  0.
<mgrwt>
<rscale>  2 0.45820650E+03</rscale>
<asrwt>0</asrwt>
<pdfrwt beam="1">  1       21 0.36530682E-01 0.45820650E+03</pdfrwt>
<pdfrwt beam="2">  1       21 0.31073265E-01 0.45820650E+03</pdfrwt>
<totfact> 0.66485085E+04</totfact>
</mgrwt>
</event>
<event>
 7    0  0.4737014E-002  0.4523749E+03  0.7546771E-02  0.1027016E+00
         21   -1    0    0  502  501  0.00000000000E+00  0.00000000000E+00  0.92178933917E+03  0.92178933917E+03  0.00000000000E+00 0.  1.
         21   -1    0    0  501  502 -0.00000000000E+00 -0.00000000000E+00 -0.55501573902E+02  0.55501573902E+02  0.00000000000E+00 0.  1.
      99926    2    1    2    0    0  0.00000000000E+00  0.00000000000E+00  0.86628776526E+03  0.97729091307E+03  0.45237488494E+03 0.  0.
      99925    2    3    3    0    0  0.10299035254E+03 -0.40699425139E+02  0.54625074529E+03  0.61627199642E+03  0.26294075553E+03 0.  0.
         25    1    3    3    0    0 -0.10299035254E+03  0.40699425139E+02  0.32003701997E+03  0.36101891665E+03  0.12509000000E+03 0.  0.
         25    1    4    4    0    0  0.77978684701E+02 -0.40120016013E+02  0.23976229412E+03  0.28429519295E+03  0.12509000000E+03 0.  0.
         25    1    4    4    0    0  0.25011667839E+02 -0.57940912591E+00  0.30648845117E+03  0.33197680348E+03  0.12509000000E+03 0.  0.
<mgrwt>
<rscale>  2 0.45237488E+03</rscale>
<asrwt>0</asrwt>
<pdfrwt beam="1">  1       21 0.13555725E+00 0.45237488E+03</pdfrwt>
<pdfrwt beam="2">  1       21 0.81619967E-02 0.45237488E+03</pdfrwt>
<totfact> 0.40887586E+04</totfact>
</mgrwt>
</event>
<event>
 7    0  0.4737014E-002  0.4801702E+03  0.7546771E-02  0.1019088E+00
         21   -1    0    0  502  501  0.00000000000E+00  0.00000000000E+00  0.14123626041E+04  0.14123626041E+04  0.00000000000E+00 0.  1.
         21   -1    0    0  501  502 -0.00000000000E+00 -0.00000000000E+00 -0.40811651082E+02  0.40811651082E+02  0.00000000000E+00 0.  1.
      99926    2    1    2    0    0  0.71054273576E-14  0.00000000000E+00  0.13715509530E+04  0.14531742552E+04  0.48017017733E+03 0.  0.
      99925    2    3    3    0    0  0.62923523544E+02  0.26836623444E+02  0.11997032987E+04  0.12298836406E+04  0.26200417989E+03 0.  0.
         25    1    4    4    0    0  0.27453191038E+02  0.49300620234E+02  0.54452470585E+03  0.56155043605E+03  0.12509000000E+03 0.  0.
         25    1    4    4    0    0  0.35470332505E+02 -0.22463996790E+02  0.65517859287E+03  0.66833320455E+03  0.12509000000E+03 0.  0.
         25    1    3    3    0    0 -0.62923523544E+02 -0.26836623444E+02  0.17184765430E+03  0.22329061458E+03  0.12509000000E+03 0.  0.
<mgrwt>
<rscale>  2 0.48017018E+03</rscale>
<asrwt>0</asrwt>
<pdfrwt beam="1">  1       21 0.20770035E+00 0.48017018E+03</pdfrwt>
<pdfrwt beam="2">  1       21 0.60017143E-02 0.48017018E+03</pdfrwt>
<totfact> 0.20613298E+04</totfact>
</mgrwt>
</event>
<event>
 7    0  0.4737014E-002  0.4517256E+03  0.7546771E-02  0.1027209E+00
         21   -1    0    0  502  501  0.00000000000E+00  0.00000000000E+00  0.87035650095E+02  0.87035650095E+02  0.00000000000E+00 0. -1.
         21   -1    0    0  501  502 -0.00000000000E+00 -0.00000000000E+00 -0.58612778589E+03  0.58612778589E+03  0.00000000000E+00 0. -1.
      99926    2    1    2    0    0  0.00000000000E+00  0.00000000000E+00 -0.49909213580E+03  0.67316343599E+03  0.45172563746E+03 0.  0.
      99925    2    3    3    0    0 -0.10764123806E+02 -0.94557773037E+02 -0.39732426117E+03  0.48591694814E+03  0.26304310137E+03 0.  0.
         25    1    4    4    0    0  0.21831551191E+02 -0.16543108265E+02 -0.16540233246E+03  0.20917870528E+03  0.12509000000E+03 0.  0.
         25    1    4    4    0    0 -0.32595674997E+02 -0.78014664772E+02 -0.23192192871E+03  0.27673824287E+03  0.12509000000E+03 0.  0.
         25    1    3    3    0    0  0.10764123806E+02  0.94557773037E+02 -0.10176787463E+03  0.18724648784E+03  0.12509000000E+03 0.  0.
<mgrwt>
<rscale>  2 0.45172564E+03</rscale>
<asrwt>0</asrwt>
<pdfrwt beam="1">  1       21 0.12799360E-01 0.45172564E+03</pdfrwt>
<pdfrwt beam="2">  1       21 0.86195265E-01 0.45172564E+03</pdfrwt>
<totfact> 0.55810539E+04</totfact>
</mgrwt>
</event>
<event>
 7    0  0.4737014E-002  0.4539966E+03  0.7546771E-02  0.1026537E+00
         21   -1    0    0  502  501  0.00000000000E+00  0.00000000000E+00  0.61520896619E+02  0.61520896619E+02  0.00000000000E+00 0.  1.
         21   -1    0    0  501  502 -0.00000000000E+00 -0.00000000000E+00 -0.83757264143E+03  0.83757264143E+03  0.00000000000E+00 0.  1.
      99926    2    1    2    0    0  0.17763568394E-14  0.00000000000E+00 -0.77605174481E+03  0.89909353805E+03  0.45399656335E+03 0.  0.
      99925    2    3    3    0    0  0.13250622192E+02  0.45845760258E+02 -0.68993370516E+03  0.73990422442E+03  0.26300633275E+03 0.  0.
         25    1    4    4    0    0 -0.24021085610E+02  0.48640686992E+02 -0.33221645254E+03  0.35910751653E+03  0.12509000000E+03 0.  0.
         25    1    4    4    0    0  0.37271707801E+02 -0.27949267348E+01 -0.35771725262E+03  0.38079670789E+03  0.12509000000E+03 0.  0.
         25    1    3    3    0    0 -0.13250622192E+02 -0.45845760258E+02 -0.86118039648E+02  0.15918931363E+03  0.12509000000E+03 0.  0.
<mgrwt>
<rscale>  2 0.45399656E+03</rscale>
<asrwt>0</asrwt>
<pdfrwt beam="1">  1       21 0.90471916E-02 0.45399656E+03</pdfrwt>
<pdfrwt beam="2">  1       21 0.12317243E+00 0.45399656E+03</pdfrwt>
<totfact> 0.43614552E+04</totfact>
</mgrwt>
</event>
<event>
 7    0  0.4737014E-002  0.4581111E+03  0.7546771E-02  0.1025330E+00
         21   -1    0    0  502  501  0.00000000000E+00  0.00000000000E+00  0.34362719644E+03  0.34362719644E+03  0.00000000000E+00 0.  1.
         21   -1    0    0  501  502 -0.00000000000E+00 -0.00000000000E+00 -0.15268419243E+03  0.15268419243E+03  0.00000000000E+00 0.  1.
      99926    2    1    2    0    0  0.00000000000E+00  0.00000000000E+00  0.19094300401E+03  0.49631138887E+03  0.45811108253E+03 0.  0.
      99925    2    3    3    0    0  0.80715205918E+02  0.16270230445E+02  0.20814493831E+03  0.34556962456E+03  0.26327625265E+03 0.  0.
         25    1    4    4    0    0  0.56621751698E+02 -0.24645943362E+02  0.12963937902E+03  0.19043981197E+03  0.12509000000E+03 0.  0.
         25    1    4    4    0    0  0.24093454220E+02  0.40916173808E+02  0.78505559284E+02  0.15512981259E+03  0.12509000000E+03 0.  0.
         25    1    3    3    0    0 -0.80715205918E+02 -0.16270230445E+02 -0.17201934291E+02  0.15074176431E+03  0.12509000000E+03 0.  0.
<mgrwt>
<rscale>  2 0.45811108E+03</rscale>
<asrwt>0</asrwt>
<pdfrwt beam="1">  1       21 0.50533411E-01 0.45811108E+03</pdfrwt>
<pdfrwt beam="2">  1       21 0.22453558E-01 0.45811108E+03</pdfrwt>
<totfact> 0.63936846E+04</totfact>
</mgrwt>
</event>
<event>
 7    0  0.4737014E-002  0.4636623E+03  0.7546771E-02  0.1023724E+00
         21   -1    0    0  502  501  0.00000000000E+00  0.00000000000E+00  0.16134597358E+03  0.16134597358E+03  0.00000000000E+00 0.  1.
         21   -1    0    0  501  502 -0.00000000000E+00 -0.00000000000E+00 -0.33310835025E+03  0.33310835025E+03  0.00000000000E+00 0.  1.
      99926    2    1    2    0    0  0.00000000000E+00  0.14210854715E-13 -0.17176237667E+03  0.49445432382E+03  0.46366233868E+03 0.  0.
      99925    2    3    3    0    0  0.74099491445E+02  0.84449410788E+02 -0.15546961399E+03  0.32553008095E+03  0.26301443899E+03 0.  0.
         25    1    3    3    0    0 -0.74099491445E+02 -0.84449410788E+02 -0.16292762682E+02  0.16892424287E+03  0.12509000000E+03 0.  0.
         25    1    4    4    0    0  0.68844077444E+02  0.29336864242E+02 -0.10532121887E+03  0.17983388403E+03  0.12509000000E+03 0.  0.
         25    1    4    4    0    0  0.52554140008E+01  0.55112546547E+02 -0.50148395117E+02  0.14569619692E+03  0.12509000000E+03 0.  0.
<mgrwt>
<rscale>  2 0.46366234E+03</rscale>
<asrwt>0</asrwt>
<pdfrwt beam="1">  1       21 0.23727349E-01 0.46366234E+03</pdfrwt>
<pdfrwt beam="2">  1       21 0.48986522E-01 0.46366234E+03</pdfrwt>
<totfact> 0.61334498E+04</totfact>
</mgrwt>
</event>
<event>
 7    0  0.4737014E-002  0.4543104E+03  0.7546771E-02  0.1026444E+00
         21   -1    0    0  502  501  0.00000000000E+00  0.00000000000E+00  0.12354192428E+03  0.12354192428E+03  0.00000000000E+00 0. -1.
         21   -1    0    0  501  502 -0.00000000000E+00 -0.00000000000E+00 -0.41766774033E+03  0.41766774033E+03  0.00000000000E+00 0. -1.
      99926    2    1    2    0    0  0.00000000000E+00  0.00000000000E+00 -0.29412581605E+03  0.54120966461E+03  0.45431036241E+03 0.  0.
      99925    2    3    3    0    0  0.17147927556E+02  0.10937304224E+03 -0.16134892578E+03  0.32782333778E+03  0.26301739705E+03 0.  0.
         25    1    4    4    0    0  0.47441471174E+02  0.50778887424E+02 -0.93825358230E+02  0.17111368894E+03  0.12509000000E+03 0.  0.
         25    1    4    4    0    0 -0.30293543618E+02  0.58594154820E+02 -0.67523567551E+02  0.15670964884E+03  0.12509000000E+03 0.  0.
         25    1    3    3    0    0 -0.17147927556E+02 -0.10937304224E+03 -0.13277689027E+03  0.21338632683E+03  0.12509000000E+03 0.  0.
<mgrwt>
<rscale>  2 0.45431036E+03</rscale>
<asrwt>0</asrwt>
<pdfrwt beam="1">  1       21 0.18167930E-01 0.45431036E+03</pdfrwt>
<pdfrwt beam="2">  1       21 0.61421726E-01 0.45431036E+03</pdfrwt>
<totfact> 0.62793146E+04</totfact>
</mgrwt>
</event>
<event>
 7    0  0.4737014E-002  0.4537252E+03  0.7546771E-02  0.1026617E+00
         21   -1    0    0  502  501  0.00000000000E+00  0.00000000000E+00  0.15982606636E+03  0.15982606636E+03  0.00000000000E+00 0. -1.
         21   -1    0    0  501  502 -0.00000000000E+00 -0.00000000000E+00 -0.32201655836E+03  0.32201655836E+03  0.00000000000E+00 0. -1.
      99926    2    1    2    0    0  0.00000000000E+00  0.00000000000E+00 -0.16219049200E+03  0.48184262473E+03  0.45372520242E+03 0.  0.
      99925    2    3    3    0    0  0.70269021400E+02 -0.84951745315E+02 -0.80670590292E+02  0.29624214823E+03  0.26286333303E+03 0.  0.
         25    1    4    4    0    0  0.38958220067E+02 -0.67471602933E+02 -0.89091796872E+01  0.14763821218E+03  0.12509000000E+03 0.  0.
         25    1    3    3    0    0 -0.70269021400E+02  0.84951745315E+02 -0.81519901708E+02  0.18560047649E+03  0.12509000000E+03 0.  0.
         25    1    4    4    0    0  0.31310801333E+02 -0.17480142381E+02 -0.71761410605E+02  0.14860393605E+03  0.12509000000E+03 0.  0.
<mgrwt>
<rscale>  2 0.45372520E+03</rscale>
<asrwt>0</asrwt>
<pdfrwt beam="1">  1       21 0.23503833E-01 0.45372520E+03</pdfrwt>
<pdfrwt beam="2">  1       21 0.47355376E-01 0.45372520E+03</pdfrwt>
<totfact> 0.67244109E+04</totfact>
</mgrwt>
</event>
<event>
 7    0  0.4737014E-002  0.4472328E+03  0.7546771E-02  0.1028550E+00
         21   -1    0    0  502  501  0.00000000000E+00  0.00000000000E+00  0.14071380176E+04  0.14071380176E+04  0.00000000000E+00 0. -1.
         21   -1    0    0  501  502 -0.00000000000E+00 -0.00000000000E+00 -0.35536174619E+02  0.35536174619E+02  0.00000000000E+00 0. -1.
      99926    2    1    2    0    0  0.00000000000E+00  0.35527136788E-14  0.13716018430E+04  0.14426741922E+04  0.44723283559E+03 0.  0.
      99925    2    3    3    0    0  0.99733838297E+02 -0.61254394836E+00  0.98214800073E+03  0.10216409191E+04  0.26303661071E+03 0.  0.
         25    1    4    4    0    0  0.58807548436E+02 -0.38480399504E+02  0.46216312327E+03  0.48392285491E+03  0.12509000000E+03 0.  0.
         25    1    4    4    0    0  0.40926289861E+02  0.37867855556E+02  0.51998487746E+03  0.53771806421E+03  0.12509000000E+03 0.  0.
         25    1    3    3    0    0 -0.99733838297E+02  0.61254394836E+00  0.38945384227E+03  0.42103327311E+03  0.12509000000E+03 0.  0.
<mgrwt>
<rscale>  2 0.44723284E+03</rscale>
<asrwt>0</asrwt>
<pdfrwt beam="1">  1       21 0.20693202E+00 0.44723284E+03</pdfrwt>
<pdfrwt beam="2">  1       21 0.52259090E-02 0.44723284E+03</pdfrwt>
<totfact> 0.26797813E+04</totfact>
</mgrwt>
</event>
<event>
 7    0  0.4737014E-002  0.4555858E+03  0.7546771E-02  0.1026069E+00
         21   -1    0    0  502  501  0.00000000000E+00  0.00000000000E+00  0.23811951189E+03  0.23811951189E+03  0.00000000000E+00 0. -1.
         21   -1    0    0  501  502 -0.00000000000E+00 -0.00000000000E+00 -0.21791416012E+03  0.21791416012E+03  0.00000000000E+00 0. -1.
      99926    2    1    2    0    0  0.00000000000E+00  0.00000000000E+00  0.20205351769E+02  0.45603367202E+03  0.45558583579E+03 0.  0.
      99925    2    3    3    0    0 -0.48225197307E+02 -0.79960517018E+02  0.77580030276E+02  0.28972457494E+03  0.26306332753E+03 0.  0.
         25    1    4    4    0    0 -0.41720960150E+02 -0.46243561961E+02  0.23228872174E+01  0.13975696564E+03  0.12509000000E+03 0.  0.
         25    1    3    3    0    0  0.48225197307E+02  0.79960517018E+02 -0.57374678507E+02  0.16630909708E+03  0.12509000000E+03 0.  0.
         25    1    4    4    0    0 -0.65042371564E+01 -0.33716955057E+02  0.75257143059E+02  0.14996760931E+03  0.12509000000E+03 0.  0.
<mgrwt>
<rscale>  2 0.45558584E+03</rscale>
<asrwt>0</asrwt>
<pdfrwt beam="1">  1       21 0.35017575E-01 0.45558584E+03</pdfrwt>
<pdfrwt beam="2">  1       21 0.32046200E-01 0.45558584E+03</pdfrwt>
<totfact> 0.68151039E+04</totfact>
</mgrwt>
</event>
<event>
 7    0  0.4737014E-002  0.4541176E+03  0.7546771E-02  0.1026501E+00
         21   -1    0    0  502  501  0.00000000000E+00  0.00000000000E+00  0.18199872818E+03  0.18199872818E+03  0.00000000000E+00 0.  1.
         21   -1    0    0  501  502 -0.00000000000E+00 -0.00000000000E+00 -0.28327511049E+03  0.28327511049E+03  0.00000000000E+00 0.  1.
      99926    2    1    2    0    0 -0.35527136788E-14  0.00000000000E+00 -0.10127638231E+03  0.46527383867E+03  0.45411764922E+03 0.  0.
      99925    2    3    3    0    0  0.30956935818E+02  0.10636861396E+03 -0.81765581692E+02  0.29704544228E+03  0.26320670682E+03 0.  0.
         25    1    4    4    0    0  0.43360564363E+02  0.23219588244E+02 -0.30304377020E+02  0.13778661469E+03  0.12509000000E+03 0.  0.
         25    1    4    4    0    0 -0.12403628545E+02  0.83149025718E+02 -0.51461204672E+02  0.15925882759E+03  0.12509000000E+03 0.  0.
         25    1    3    3    0    0 -0.30956935818E+02 -0.10636861396E+03 -0.19510800617E+02  0.16822839639E+03  0.12509000000E+03 0.  0.
<mgrwt>
<rscale>  2 0.45411765E+03</rscale>
<asrwt>0</asrwt>
<pdfrwt beam="1">  1       21 0.26764519E-01 0.45411765E+03</pdfrwt>
<pdfrwt beam="2">  1       21 0.41658104E-01 0.45411765E+03</pdfrwt>
<totfact> 0.68265795E+04</totfact>
</mgrwt>
</event>
<event>
 7    0  0.4737014E-002  0.4573555E+03  0.7546771E-02  0.1025551E+00
         21   -1    0    0  502  501  0.00000000000E+00  0.00000000000E+00  0.22889413076E+03  0.22889413076E+03  0.00000000000E+00 0. -1.
         21   -1    0    0  501  502 -0.00000000000E+00 -0.00000000000E+00 -0.22846157999E+03  0.22846157999E+03  0.00000000000E+00 0. -1.
      99926    2    1    2    0    0  0.00000000000E+00  0.00000000000E+00  0.43255076809E+00  0.45735571074E+03  0.45735550620E+03 0.  0.
      99925    2    3    3    0    0 -0.19433758526E+02  0.11373179155E+03  0.22390088665E+01  0.28716945169E+03  0.26296138394E+03 0.  0.
         25    1    4    4    0    0 -0.33351690406E+01  0.63251901252E+02  0.40666235173E+02  0.14599033238E+03  0.12509000000E+03 0.  0.
         25    1    3    3    0    0  0.19433758526E+02 -0.11373179155E+03 -0.18064580984E+01  0.17018625905E+03  0.12509000000E+03 0.  0.
         25    1    4    4    0    0 -0.16098589486E+02  0.50479890299E+02 -0.38427226307E+02  0.14117911931E+03  0.12509000000E+03 0.  0.
<mgrwt>
<rscale>  2 0.45735551E+03</rscale>
<asrwt>0</asrwt>
<pdfrwt beam="1">  1       21 0.33660902E-01 0.45735551E+03</pdfrwt>
<pdfrwt beam="2">  1       21 0.33597291E-01 0.45735551E+03</pdfrwt>
<totfact> 0.67103484E+04</totfact>
</mgrwt>
</event>
<event>
 7    0  0.4737014E-002  0.4526492E+03  0.7546771E-02  0.1026935E+00
         21   -1    0    0  502  501  0.00000000000E+00  0.00000000000E+00  0.33933010168E+03  0.33933010168E+03  0.00000000000E+00 0.  1.
         21   -1    0    0  501  502 -0.00000000000E+00 -0.00000000000E+00 -0.15095280670E+03  0.15095280670E+03  0.00000000000E+00 0.  1.
      99926    2    1    2    0    0  0.00000000000E+00  0.00000000000E+00  0.18837729498E+03  0.49028290838E+03  0.45264922952E+03 0.  0.
      99925    2    3    3    0    0  0.51307266857E+02  0.22168754157E+02  0.22270350037E+03  0.34903955183E+03  0.26288375828E+03 0.  0.
         25    1    4    4    0    0  0.43769988137E+02  0.38478641434E+02  0.84718562318E+02  0.16192949271E+03  0.12509000000E+03 0.  0.
         25    1    4    4    0    0  0.75372787202E+01 -0.16309887277E+02  0.13798493805E+03  0.18711005912E+03  0.12509000000E+03 0.  0.
         25    1    3    3    0    0 -0.51307266857E+02 -0.22168754157E+02 -0.34326205396E+02  0.14124335655E+03  0.12509000000E+03 0.  0.
<mgrwt>
<rscale>  2 0.45264923E+03</rscale>
<asrwt>0</asrwt>
<pdfrwt beam="1">  1       21 0.49901485E-01 0.45264923E+03</pdfrwt>
<pdfrwt beam="2">  1       21 0.22198942E-01 0.45264923E+03</pdfrwt>
<totfact> 0.67204290E+04</totfact>
</mgrwt>
</event>
<event>
 7    0  0.4737014E-002  0.4602206E+03  0.7546771E-02  0.1024717E+00
         21   -1    0    0  502  501  0.00000000000E+00  0.00000000000E+00  0.74685287009E+02  0.74685287009E+02  0.00000000000E+00 0.  1.
         21   -1    0    0  501  502 -0.00000000000E+00 -0.00000000000E+00 -0.70898494132E+03  0.70898494132E+03  0.00000000000E+00 0.  1.
      99926    2    1    2    0    0  0.00000000000E+00  0.00000000000E+00 -0.63429965431E+03  0.78367022833E+03  0.46022057245E+03 0.  0.
      99925    2    3    3    0    0  0.93554801314E+02  0.73236494540E+02 -0.40633020101E+03  0.49777922686E+03  0.26184698100E+03 0.  0.
         25    1    4    4    0    0  0.81306785085E+02  0.27210508708E+02 -0.24517525481E+03  0.28828738917E+03  0.12509000000E+03 0.  0.
         25    1    3    3    0    0 -0.93554801314E+02 -0.73236494540E+02 -0.22796945330E+03  0.28589100146E+03  0.12509000000E+03 0.  0.
         25    1    4    4    0    0  0.12248016228E+02  0.46025985832E+02 -0.16115494620E+03  0.20949183769E+03  0.12509000000E+03 0.  0.
<mgrwt>
<rscale>  2 0.46022057E+03</rscale>
<asrwt>0</asrwt>
<pdfrwt beam="1">  1       21 0.10983130E-01 0.46022057E+03</pdfrwt>
<pdfrwt beam="2">  1       21 0.10426250E+00 0.46022057E+03</pdfrwt>
<totfact> 0.46624807E+04</totfact>
</mgrwt>
</event>
<event>
 7    0  0.4737014E-002  0.4576062E+03  0.7546771E-02  0.1025478E+00
         21   -1    0    0  502  501  0.00000000000E+00  0.00000000000E+00  0.22564913817E+03  0.22564913817E+03  0.00000000000E+00 0. -1.
         21   -1    0    0  501  502 -0.00000000000E+00 -0.00000000000E+00 -0.23200109746E+03  0.23200109746E+03  0.00000000000E+00 0. -1.
      99926    2    1    2    0    0  0.14210854715E-13 -0.35527136788E-14 -0.63519592967E+01  0.45765023563E+03  0.45760615248E+03 0.  0.
      99925    2    3    3    0    0 -0.10850068103E+03 -0.30134681881E+02 -0.30047450958E+02  0.28768117591E+03  0.26301542317E+03 0.  0.
         25    1    3    3    0    0  0.10850068103E+03  0.30134681881E+02  0.23695491662E+02  0.16996905972E+03  0.12509000000E+03 0.  0.
         25    1    4    4    0    0 -0.28058116188E+02 -0.16084124663E+02 -0.46670541112E+02  0.13737395844E+03  0.12509000000E+03 0.  0.
         25    1    4    4    0    0 -0.80442564845E+02 -0.14050557218E+02  0.16623090153E+02  0.15030721747E+03  0.12509000000E+03 0.  0.
<mgrwt>
<rscale>  2 0.45760615E+03</rscale>
<asrwt>0</asrwt>
<pdfrwt beam="1">  1       21 0.33183697E-01 0.45760615E+03</pdfrwt>
<pdfrwt beam="2">  1       21 0.34117808E-01 0.45760615E+03</pdfrwt>
<totfact> 0.66949042E+04</totfact>
</mgrwt>
</event>
<event>
 6    0  0.4737014E-002  0.4537083E+03  0.7546771E-02  0.1026622E+00
         21   -1    0    0  502  501  0.00000000000E+00  0.00000000000E+00  0.19265255454E+03  0.19265255454E+03  0.00000000000E+00 0.  1.
         21   -1    0    0  501  502 -0.00000000000E+00 -0.00000000000E+00 -0.26712751602E+03  0.26712751602E+03  0.00000000000E+00 0.  1.
      99926    2    1    2    0    0  0.00000000000E+00 -0.35527136788E-14 -0.74474961478E+02  0.45978007057E+03  0.45370826905E+03 0.  0.
         25    1    3    3    0    0  0.11759373996E+02 -0.31955731088E+02  0.34013619010E+01  0.12968627140E+03  0.12509000000E+03 0.  0.
         25    1    3    3    0    0 -0.84443614017E+02  0.26071482757E+02 -0.10100255336E+03  0.18346517393E+03  0.12509000000E+03 0.  0.
         25    1    3    3    0    0  0.72684240021E+02  0.58842483315E+01  0.23126229980E+02  0.14662862524E+03  0.12509000000E+03 0.  0.
<mgrwt>
<rscale>  2 0.45370827E+03</rscale>
<asrwt>0</asrwt>
<pdfrwt beam="1">  1       21 0.28331258E-01 0.45370827E+03</pdfrwt>
<pdfrwt beam="2">  1       21 0.39283458E-01 0.45370827E+03</pdfrwt>
<totfact> 0.68903574E+04</totfact>
</mgrwt>
</event>
<event>
 7    0  0.4737014E-002  0.4554125E+03  0.7546771E-02  0.1026120E+00
         21   -1    0    0  502  501  0.00000000000E+00  0.00000000000E+00  0.87791002595E+03  0.87791002595E+03  0.00000000000E+00 0. -1.
         21   -1    0    0  501  502 -0.00000000000E+00 -0.00000000000E+00 -0.59060873240E+02  0.59060873240E+02  0.00000000000E+00 0. -1.
      99926    2    1    2    0    0  0.17763568394E-14  0.00000000000E+00  0.81884915271E+03  0.93697089919E+03  0.45541248449E+03 0.  0.
      99925    2    3    3    0    0 -0.10378881769E+02 -0.98595405255E+02  0.62925621922E+03  0.68913675373E+03  0.26290169417E+03 0.  0.
         25    1    4    4    0    0  0.22351521687E+02 -0.47132537978E+02  0.23823055734E+03  0.27408460958E+03  0.12509000000E+03 0.  0.
         25    1    4    4    0    0 -0.32730403456E+02 -0.51462867277E+02  0.39102566188E+03  0.41505214415E+03  0.12509000000E+03 0.  0.
         25    1    3    3    0    0  0.10378881769E+02  0.98595405255E+02  0.18959293350E+03  0.24783414546E+03  0.12509000000E+03 0.  0.
<mgrwt>
<rscale>  2 0.45541248E+03</rscale>
<asrwt>0</asrwt>
<pdfrwt beam="1">  1       21 0.12910441E+00 0.45541248E+03</pdfrwt>
<pdfrwt beam="2">  1       21 0.86854231E-02 0.45541248E+03</pdfrwt>
<totfact> 0.41538780E+04</totfact>
</mgrwt>
</event>
<event>
 7    0  0.4737014E-002  0.4381485E+03  0.7546771E-02  0.1031316E+00
         21   -1    0    0  502  501  0.00000000000E+00  0.00000000000E+00  0.84564538543E+02  0.84564538543E+02  0.00000000000E+00 0. -1.
         21   -1    0    0  501  502 -0.00000000000E+00 -0.00000000000E+00 -0.56753719401E+03  0.56753719401E+03  0.00000000000E+00 0. -1.
      99926    2    1    2    0    0  0.00000000000E+00 -0.17763568394E-14 -0.48297265547E+03  0.65210173256E+03  0.43814847218E+03 0.  0.
      99925    2    3    3    0    0  0.79362405403E+02 -0.96951984423E+01 -0.22936593580E+03  0.35823736822E+03  0.26331139592E+03 0.  0.
         25    1    4    4    0    0  0.72962073079E+02  0.62722631557E+01 -0.92127308931E+02  0.17174910347E+03  0.12509000000E+03 0.  0.
         25    1    4    4    0    0  0.64003323234E+01 -0.15967461598E+02 -0.13723862687E+03  0.18648826475E+03  0.12509000000E+03 0.  0.
         25    1    3    3    0    0 -0.79362405403E+02  0.96951984423E+01 -0.25360671967E+03  0.29386436433E+03  0.12509000000E+03 0.  0.
<mgrwt>
<rscale>  2 0.43814847E+03</rscale>
<asrwt>0</asrwt>
<pdfrwt beam="1">  1       21 0.12435961E-01 0.43814847E+03</pdfrwt>
<pdfrwt beam="2">  1       21 0.83461353E-01 0.43814847E+03</pdfrwt>
<totfact> 0.63621515E+04</totfact>
</mgrwt>
</event>
<event>
 7    0  0.4737014E-002  0.4519639E+03  0.7546771E-02  0.1027138E+00
         21   -1    0    0  502  501  0.00000000000E+00  0.00000000000E+00  0.10258393313E+03  0.10258393313E+03  0.00000000000E+00 0. -1.
         21   -1    0    0  501  502 -0.00000000000E+00 -0.00000000000E+00 -0.49781519298E+03  0.49781519298E+03  0.00000000000E+00 0. -1.
      99926    2    1    2    0    0 -0.71054273576E-14  0.14210854715E-13 -0.39523125985E+03  0.60039912611E+03  0.45196389444E+03 0.  0.
      99925    2    3    3    0    0  0.60258690265E+02 -0.74353649506E+02 -0.32191544746E+03  0.42666861240E+03  0.26316719885E+03 0.  0.
         25    1    4    4    0    0 -0.83976076492E+01 -0.23413657015E+02 -0.16497299314E+03  0.20852413700E+03  0.12509000000E+03 0.  0.
         25    1    4    4    0    0  0.68656297914E+02 -0.50939992491E+02 -0.15694245432E+03  0.21814447540E+03  0.12509000000E+03 0.  0.
         25    1    3    3    0    0 -0.60258690265E+02  0.74353649506E+02 -0.73315812391E+02  0.17373051371E+03  0.12509000000E+03 0.  0.
<mgrwt>
<rscale>  2 0.45196389E+03</rscale>
<asrwt>0</asrwt>
<pdfrwt beam="1">  1       21 0.15085873E-01 0.45196389E+03</pdfrwt>
<pdfrwt beam="2">  1       21 0.73208116E-01 0.45196389E+03</pdfrwt>
<totfact> 0.60082061E+04</totfact>
</mgrwt>
</event>
<event>
 7    0  0.4737014E-002  0.4441026E+03  0.7546771E-02  0.1029495E+00
         21   -1    0    0  502  501  0.00000000000E+00  0.00000000000E+00  0.10013635696E+04  0.10013635696E+04  0.00000000000E+00 0. -1.
         21   -1    0    0  501  502 -0.00000000000E+00 -0.00000000000E+00 -0.49239635325E+02  0.49239635325E+02  0.00000000000E+00 0. -1.
      99926    2    1    2    0    0  0.00000000000E+00 -0.71054273576E-14  0.95212393428E+03  0.10506032049E+04  0.44410258723E+03 0.  0.
      99925    2    3    3    0    0 -0.81518625820E+01 -0.50979551147E+02  0.39477210263E+03  0.47705814145E+03  0.26281950044E+03 0.  0.
         25    1    4    4    0    0  0.49142534176E+01 -0.62908729982E+02  0.23183086234E+03  0.27087767540E+03  0.12509000000E+03 0.  0.
         25    1    3    3    0    0  0.81518625820E+01  0.50979551147E+02  0.55735183165E+03  0.57354506348E+03  0.12509000000E+03 0.  0.
         25    1    4    4    0    0 -0.13066116000E+02  0.11929178835E+02  0.16294124029E+03  0.20618046605E+03  0.12509000000E+03 0.  0.
<mgrwt>
<rscale>  2 0.44410259E+03</rscale>
<asrwt>0</asrwt>
<pdfrwt beam="1">  1       21 0.14725934E+00 0.44410259E+03</pdfrwt>
<pdfrwt beam="2">  1       21 0.72411235E-02 0.44410259E+03</pdfrwt>
<totfact> 0.40600161E+04</totfact>
</mgrwt>
</event>
<event>
 7    0  0.4737014E-002  0.4557194E+03  0.7546771E-02  0.1026030E+00
         21   -1    0    0  502  501  0.00000000000E+00  0.00000000000E+00  0.46380225065E+03  0.46380225065E+03  0.00000000000E+00 0. -1.
         21   -1    0    0  501  502 -0.00000000000E+00 -0.00000000000E+00 -0.11194435945E+03  0.11194435945E+03  0.00000000000E+00 0. -1.
      99926    2    1    2    0    0  0.00000000000E+00 -0.14210854715E-13  0.35185789121E+03  0.57574661010E+03  0.45571941306E+03 0.  0.
      99925    2    3    3    0    0  0.39491808089E+02  0.10219378019E+03  0.18291994103E+03  0.33870081131E+03  0.26316413726E+03 0.  0.
         25    1    4    4    0    0  0.28295942335E+02  0.74768490300E+02  0.13754332073E+03  0.20237752018E+03  0.12509000000E+03 0.  0.
         25    1    4    4    0    0  0.11195865754E+02  0.27425289885E+02  0.45376620296E+02  0.13632329113E+03  0.12509000000E+03 0.  0.
         25    1    3    3    0    0 -0.39491808089E+02 -0.10219378019E+03  0.16893795018E+03  0.23704579879E+03  0.12509000000E+03 0.  0.
<mgrwt>
<rscale>  2 0.45571941E+03</rscale>
<asrwt>0</asrwt>
<pdfrwt beam="1">  1       21 0.68206213E-01 0.45571941E+03</pdfrwt>
<pdfrwt beam="2">  1       21 0.16462406E-01 0.45571941E+03</pdfrwt>
<totfact> 0.59855334E+04</totfact>
</mgrwt>
</event>
<event>
 7    0  0.4737014E-002  0.4554401E+03  0.7546771E-02  0.1026112E+00
         21   -1    0    0  502  501  0.00000000000E+00  0.00000000000E+00  0.21686285987E+02  0.21686285987E+02  0.00000000000E+00 0.  1.
         21   -1    0    0  501  502 -0.00000000000E+00 -0.00000000000E+00 -0.23912076125E+04  0.23912076125E+04  0.00000000000E+00 0.  1.
      99926    2    1    2    0    0  0.00000000000E+00  0.00000000000E+00 -0.23695213265E+04  0.24128938985E+04  0.45544006033E+03 0.  0.
      99925    2    3    3    0    0 -0.22980465198E+02 -0.72399740378E+02 -0.10457944576E+04  0.10811018142E+04  0.26329690642E+03 0.  0.
         25    1    3    3    0    0  0.22980465198E+02  0.72399740378E+02 -0.13237268689E+04  0.13317920843E+04  0.12509000000E+03 0.  0.
         25    1    4    4    0    0 -0.82265389218E+01 -0.62532730267E+02 -0.67467199464E+03  0.68906300637E+03  0.12509000000E+03 0.  0.
         25    1    4    4    0    0 -0.14753926276E+02 -0.98670101104E+01 -0.37112246293E+03  0.39203880780E+03  0.12509000000E+03 0.  0.
<mgrwt>
<rscale>  2 0.45544006E+03</rscale>
<asrwt>0</asrwt>
<pdfrwt beam="1">  1       21 0.31891612E-02 0.45544006E+03</pdfrwt>
<pdfrwt beam="2">  1       21 0.35164802E+00 0.45544006E+03</pdfrwt>
<totfact> 0.80370031E+03</totfact>
</mgrwt>
</event>
<event>
 7    0  0.4737014E-002  0.4359627E+03  0.7546771E-02  0.1031993E+00
         21   -1    0    0  502  501  0.00000000000E+00  0.00000000000E+00  0.28274665906E+02  0.28274665906E+02  0.00000000000E+00 0. -1.
         21   -1    0    0  501  502 -0.00000000000E+00 -0.00000000000E+00 -0.16805105840E+04  0.16805105840E+04  0.00000000000E+00 0. -1.
      99926    2    1    2    0    0  0.00000000000E+00  0.00000000000E+00 -0.16522359181E+04  0.17087852499E+04  0.43596272921E+03 0.  0.
      99925    2    3    3    0    0 -0.27245380925E+02 -0.77828707600E+02 -0.12359027646E+04  0.12663144358E+04  0.26324321140E+03 0.  0.
         25    1    4    4    0    0  0.15909362280E+02 -0.11533802382E+02 -0.62979964189E+03  0.64240270348E+03  0.12509000000E+03 0.  0.
         25    1    3    3    0    0  0.27245380925E+02  0.77828707600E+02 -0.41633315355E+03  0.44247081413E+03  0.12509000000E+03 0.  0.
         25    1    4    4    0    0 -0.43154743204E+02 -0.66294905218E+02 -0.60610312269E+03  0.62391173234E+03  0.12509000000E+03 0.  0.
<mgrwt>
<rscale>  2 0.43596273E+03</rscale>
<asrwt>0</asrwt>
<pdfrwt beam="1">  1       21 0.41580392E-02 0.43596273E+03</pdfrwt>
<pdfrwt beam="2">  1       21 0.24713391E+00 0.43596273E+03</pdfrwt>
<totfact> 0.22181216E+04</totfact>
</mgrwt>
</event>
<event>
 7    0  0.4737014E-002  0.4668330E+03  0.7546771E-02  0.1022818E+00
         21   -1    0    0  502  501  0.00000000000E+00  0.00000000000E+00  0.26657751931E+03  0.26657751931E+03  0.00000000000E+00 0. -1.
         21   -1    0    0  501  502 -0.00000000000E+00 -0.00000000000E+00 -0.20438052965E+03  0.20438052965E+03  0.00000000000E+00 0. -1.
      99926    2    1    2    0    0  0.71054273576E-14  0.00000000000E+00  0.62196989665E+02  0.47095804896E+03  0.46683296623E+03 0.  0.
      99925    2    3    3    0    0  0.36609031091E+02  0.11785993394E+03  0.24092926281E+02  0.29115089412E+03  0.26259700848E+03 0.  0.
         25    1    4    4    0    0 -0.18192116528E+02  0.67951504841E+02  0.25404050342E+02  0.14574372710E+03  0.12509000000E+03 0.  0.
         25    1    3    3    0    0 -0.36609031091E+02 -0.11785993394E+03  0.38104063384E+02  0.17980715484E+03  0.12509000000E+03 0.  0.
         25    1    4    4    0    0  0.54801147619E+02  0.49908429101E+02 -0.13111240615E+01  0.14540716702E+03  0.12509000000E+03 0.  0.
<mgrwt>
<rscale>  2 0.46683297E+03</rscale>
<asrwt>0</asrwt>
<pdfrwt beam="1">  1       21 0.39202577E-01 0.46683297E+03</pdfrwt>
<pdfrwt beam="2">  1       21 0.30055960E-01 0.46683297E+03</pdfrwt>
<totfact> 0.61388478E+04</totfact>
</mgrwt>
</event>
<event>
 7    0  0.4737014E-002  0.4577290E+03  0.7546771E-02  0.1025442E+00
         21   -1    0    0  502  501  0.00000000000E+00  0.00000000000E+00  0.15683976962E+03  0.15683976962E+03  0.00000000000E+00 0. -1.
         21   -1    0    0  501  502 -0.00000000000E+00 -0.00000000000E+00 -0.33396477721E+03  0.33396477721E+03  0.00000000000E+00 0. -1.
      99926    2    1    2    0    0 -0.14210854715E-13  0.00000000000E+00 -0.17712500759E+03  0.49080454683E+03  0.45772899720E+03 0.  0.
      99925    2    3    3    0    0 -0.80507383663E+02  0.31839396030E+02 -0.19372982374E+03  0.33777378527E+03  0.26280163517E+03 0.  0.
         25    1    4    4    0    0 -0.14145560615E+02  0.38997098511E+02 -0.68124589461E+02  0.14835544603E+03  0.12509000000E+03 0.  0.
         25    1    3    3    0    0  0.80507383663E+02 -0.31839396030E+02  0.16604816147E+02  0.15303076156E+03  0.12509000000E+03 0.  0.
         25    1    4    4    0    0 -0.66361823047E+02 -0.71577024813E+01 -0.12560523428E+03  0.18941833924E+03  0.12509000000E+03 0.  0.
<mgrwt>
<rscale>  2 0.45772900E+03</rscale>
<asrwt>0</asrwt>
<pdfrwt beam="1">  1       21 0.23064672E-01 0.45772900E+03</pdfrwt>
<pdfrwt beam="2">  1       21 0.49112467E-01 0.45772900E+03</pdfrwt>
<totfact> 0.64512613E+04</totfact>
</mgrwt>
</event>
<event>
 7    0  0.4737014E-002  0.4540782E+03  0.7546771E-02  0.1026513E+00
         21   -1    0    0  502  501  0.00000000000E+00  0.00000000000E+00  0.33001352767E+03  0.33001352767E+03  0.00000000000E+00 0. -1.
         21   -1    0    0  501  502 -0.00000000000E+00 -0.00000000000E+00 -0.15619585691E+03  0.15619585691E+03  0.00000000000E+00 0. -1.
      99926    2    1    2    0    0  0.00000000000E+00 -0.35527136788E-14  0.17381767076E+03  0.48620938458E+03  0.45407816836E+03 0.  0.
      99925    2    3    3    0    0 -0.87618824132E+02 -0.28068272204E+02  0.40862449131E+02  0.28178461772E+03  0.26318804074E+03 0.  0.
         25    1    3    3    0    0  0.87618824132E+02  0.28068272204E+02  0.13295522163E+03  0.20442476686E+03  0.12509000000E+03 0.  0.
         25    1    4    4    0    0 -0.60807606341E+02 -0.40393681074E+02 -0.60690455766E+01  0.14496053212E+03  0.12509000000E+03 0.  0.
         25    1    4    4    0    0 -0.26811217791E+02  0.12325408869E+02  0.46931494707E+02  0.13682408559E+03  0.12509000000E+03 0.  0.
<mgrwt>
<rscale>  2 0.45407817E+03</rscale>
<asrwt>0</asrwt>
<pdfrwt beam="1">  1       21 0.48531401E-01 0.45407817E+03</pdfrwt>
<pdfrwt beam="2">  1       21 0.22969979E-01 0.45407817E+03</pdfrwt>
<totfact> 0.66737860E+04</totfact>
</mgrwt>
</event>
<event>
 7    0  0.4737014E-002  0.4529279E+03  0.7546771E-02  0.1026852E+00
         21   -1    0    0  502  501  0.00000000000E+00  0.00000000000E+00  0.79799271363E+02  0.79799271363E+02  0.00000000000E+00 0.  1.
         21   -1    0    0  501  502 -0.00000000000E+00 -0.00000000000E+00 -0.64268656388E+03  0.64268656388E+03  0.00000000000E+00 0.  1.
      99926    2    1    2    0    0  0.00000000000E+00  0.00000000000E+00 -0.56288729251E+03  0.72248583524E+03  0.45292789498E+03 0.  0.
      99925    2    3    3    0    0  0.97138487843E+02 -0.24496298845E+02 -0.27796117092E+03  0.39558163315E+03  0.26303319461E+03 0.  0.
         25    1    4    4    0    0  0.58432832348E+02  0.10439186932E+02 -0.95086949538E+02  0.16796549822E+03  0.12509000000E+03 0.  0.
         25    1    4    4    0    0  0.38705655495E+02 -0.34935485777E+02 -0.18287422138E+03  0.22761613493E+03  0.12509000000E+03 0.  0.
         25    1    3    3    0    0 -0.97138487843E+02  0.24496298845E+02 -0.28492612160E+03  0.32690420209E+03  0.12509000000E+03 0.  0.
<mgrwt>
<rscale>  2 0.45292789E+03</rscale>
<asrwt>0</asrwt>
<pdfrwt beam="1">  1       21 0.11735187E-01 0.45292789E+03</pdfrwt>
<pdfrwt beam="2">  1       21 0.94512729E-01 0.45292789E+03</pdfrwt>
<totfact> 0.52550310E+04</totfact>
</mgrwt>
</event>
<event>
 7    0  0.4737014E-002  0.4461853E+03  0.7546771E-02  0.1028866E+00
         21   -1    0    0  502  501  0.00000000000E+00  0.00000000000E+00  0.62639809790E+02  0.62639809790E+02  0.00000000000E+00 0.  1.
         21   -1    0    0  501  502 -0.00000000000E+00 -0.00000000000E+00 -0.79454795083E+03  0.79454795083E+03  0.00000000000E+00 0.  1.
      99926    2    1    2    0    0  0.00000000000E+00  0.00000000000E+00 -0.73190814104E+03  0.85718776062E+03  0.44618530908E+03 0.  0.
      99925    2    3    3    0    0 -0.47390039946E+02 -0.52151562560E+02 -0.31557056649E+03  0.41679011593E+03  0.26298976585E+03 0.  0.
         25    1    4    4    0    0 -0.12612842716E+02 -0.65288583097E+02 -0.15850750130E+03  0.21258837915E+03  0.12509000000E+03 0.  0.
         25    1    4    4    0    0 -0.34777197230E+02  0.13137020537E+02 -0.15706306519E+03  0.20420173678E+03  0.12509000000E+03 0.  0.
         25    1    3    3    0    0  0.47390039946E+02  0.52151562560E+02 -0.41633757455E+03  0.44039764469E+03  0.12509000000E+03 0.  0.
<mgrwt>
<rscale>  2 0.44618531E+03</rscale>
<asrwt>0</asrwt>
<pdfrwt beam="1">  1       21 0.92117376E-02 0.44618531E+03</pdfrwt>
<pdfrwt beam="2">  1       21 0.11684528E+00 0.44618531E+03</pdfrwt>
<totfact> 0.48378644E+04</totfact>
</mgrwt>
</event>
<event>
 7    0  0.4737014E-002  0.4613735E+03  0.7546771E-02  0.1024384E+00
         21   -1    0    0  502  501  0.00000000000E+00  0.00000000000E+00  0.27804235232E+03  0.27804235232E+03  0.00000000000E+00 0. -1.
         21   -1    0    0  501  502 -0.00000000000E+00 -0.00000000000E+00 -0.19139669213E+03  0.19139669213E+03  0.00000000000E+00 0. -1.
      99926    2    1    2    0    0 -0.14210854715E-13 -0.17763568394E-14  0.86645660184E+02  0.46943904445E+03  0.46137354284E+03 0.  0.
      99925    2    3    3    0    0  0.81949106654E+02  0.90037953003E+01  0.14156300677E+03  0.30987668214E+03  0.26303374087E+03 0.  0.
         25    1    3    3    0    0 -0.81949106654E+02 -0.90037953003E+01 -0.54917346588E+02  0.15956236231E+03  0.12509000000E+03 0.  0.
         25    1    4    4    0    0  0.82081991448E+01  0.28991535049E+02  0.57796009106E+02  0.14105236760E+03  0.12509000000E+03 0.  0.
         25    1    4    4    0    0  0.73740907510E+02 -0.19987739748E+02  0.83766997666E+02  0.16882431454E+03  0.12509000000E+03 0.  0.
<mgrwt>
<rscale>  2 0.46137354E+03</rscale>
<asrwt>0</asrwt>
<pdfrwt beam="1">  1       21 0.40888581E-01 0.46137354E+03</pdfrwt>
<pdfrwt beam="2">  1       21 0.28146572E-01 0.46137354E+03</pdfrwt>
<totfact> 0.64168668E+04</totfact>
</mgrwt>
</event>
<event>
 7    0  0.4737014E-002  0.4549610E+03  0.7546771E-02  0.1026253E+00
         21   -1    0    0  502  501  0.00000000000E+00  0.00000000000E+00  0.17307466847E+03  0.17307466847E+03  0.00000000000E+00 0.  1.
         21   -1    0    0  501  502 -0.00000000000E+00 -0.00000000000E+00 -0.29898875721E+03  0.29898875721E+03  0.00000000000E+00 0.  1.
      99926    2    1    2    0    0  0.00000000000E+00  0.00000000000E+00 -0.12591408874E+03  0.47206342568E+03  0.45496100945E+03 0.  0.
      99925    2    3    3    0    0 -0.10035600092E+03 -0.18474051283E+02 -0.12995080385E+03  0.31058147418E+03  0.26298483452E+03 0.  0.
         25    1    4    4    0    0 -0.45323677674E+02 -0.60232396075E+01 -0.10829641918E+03  0.17165703505E+03  0.12509000000E+03 0.  0.
         25    1    4    4    0    0 -0.55032323246E+02 -0.12450811676E+02 -0.21654384673E+02  0.13892443913E+03  0.12509000000E+03 0.  0.
         25    1    3    3    0    0  0.10035600092E+03  0.18474051283E+02  0.40367151164E+01  0.16148195150E+03  0.12509000000E+03 0.  0.
<mgrwt>
<rscale>  2 0.45496101E+03</rscale>
<asrwt>0</asrwt>
<pdfrwt beam="1">  1       21 0.25452157E-01 0.45496101E+03</pdfrwt>
<pdfrwt beam="2">  1       21 0.43968934E-01 0.45496101E+03</pdfrwt>
<totfact> 0.67303405E+04</totfact>
</mgrwt>
</event>
<event>
 7    0  0.4737014E-002  0.4611248E+03  0.7546771E-02  0.1024455E+00
         21   -1    0    0  502  501  0.00000000000E+00  0.00000000000E+00  0.32503609871E+03  0.32503609871E+03  0.00000000000E+00 0. -1.
         21   -1    0    0  501  502 -0.00000000000E+00 -0.00000000000E+00 -0.16354808202E+03  0.16354808202E+03  0.00000000000E+00 0. -1.
      99926    2    1    2    0    0  0.00000000000E+00  0.35527136788E-14  0.16148801669E+03  0.48858418073E+03  0.46112484440E+03 0.  0.
      99925    2    3    3    0    0 -0.74332742521E+02  0.10601403172E+02  0.36329407512E+01  0.27363423433E+03  0.26310596644E+03 0.  0.
         25    1    3    3    0    0  0.74332742521E+02 -0.10601403172E+02  0.15785507593E+03  0.21494994640E+03  0.12509000000E+03 0.  0.
         25    1    4    4    0    0 -0.20243302492E+02  0.36302246409E+02  0.22333549153E+02  0.13369345499E+03  0.12509000000E+03 0.  0.
         25    1    4    4    0    0 -0.54089440029E+02 -0.25700843238E+02 -0.18700608402E+02  0.13994077933E+03  0.12509000000E+03 0.  0.
<mgrwt>
<rscale>  2 0.46112484E+03</rscale>
<asrwt>0</asrwt>
<pdfrwt beam="1">  1       21 0.47799426E-01 0.46112484E+03</pdfrwt>
<pdfrwt beam="2">  1       21 0.24051188E-01 0.46112484E+03</pdfrwt>
<totfact> 0.62962885E+04</totfact>
</mgrwt>
</event>
<event>
 7    0  0.4737014E-002  0.4627886E+03  0.7546771E-02  0.1023976E+00
         21   -1    0    0  502  501  0.00000000000E+00  0.00000000000E+00  0.34155100370E+02  0.34155100370E+02  0.00000000000E+00 0.  1.
         21   -1    0    0  501  502 -0.00000000000E+00 -0.00000000000E+00 -0.15676523222E+04  0.15676523222E+04  0.00000000000E+00 0.  1.
      99926    2    1    2    0    0 -0.14210854715E-13  0.14210854715E-13 -0.15334972219E+04  0.16018074226E+04  0.46278860146E+03 0.  0.
      99925    2    3    3    0    0 -0.80802284258E+02 -0.77674543070E+02 -0.80723210019E+03  0.85637407291E+03  0.26304095762E+03 0.  0.
         25    1    4    4    0    0 -0.78128734701E+01 -0.18715895034E+02 -0.42198327537E+03  0.44060040684E+03  0.12509000000E+03 0.  0.
         25    1    4    4    0    0 -0.72989410788E+02 -0.58958648036E+02 -0.38524882482E+03  0.41577366607E+03  0.12509000000E+03 0.  0.
         25    1    3    3    0    0  0.80802284258E+02  0.77674543070E+02 -0.72626512166E+03  0.74543334968E+03  0.12509000000E+03 0.  0.
<mgrwt>
<rscale>  2 0.46278860E+03</rscale>
<asrwt>0</asrwt>
<pdfrwt beam="1">  1       21 0.50228084E-02 0.46278860E+03</pdfrwt>
<pdfrwt beam="2">  1       21 0.23053713E+00 0.46278860E+03</pdfrwt>
<totfact> 0.20142975E+04</totfact>
</mgrwt>
</event>
<event>
 7    0  0.4737014E-002  0.4687757E+03  0.7546771E-02  0.1022266E+00
         21   -1    0    0  502  501  0.00000000000E+00  0.00000000000E+00  0.74704894598E+02  0.74704894598E+02  0.00000000000E+00 0.  1.
         21   -1    0    0  501  502 -0.00000000000E+00 -0.00000000000E+00 -0.73539566755E+03  0.73539566755E+03  0.00000000000E+00 0.  1.
      99926    2    1    2    0    0  0.14210854715E-13  0.00000000000E+00 -0.66069077295E+03  0.81010056215E+03  0.46877566418E+03 0.  0.
      99925    2    3    3    0    0  0.73590454555E+02 -0.62662071176E+02 -0.54943823612E+03  0.61679581514E+03  0.26308289966E+03 0.  0.
         25    1    4    4    0    0  0.45715436606E+02 -0.32198570967E+02 -0.36721424222E+03  0.39194445641E+03  0.12509000000E+03 0.  0.
         25    1    3    3    0    0 -0.73590454555E+02  0.62662071176E+02 -0.11125253683E+03  0.19330474701E+03  0.12509000000E+03 0.  0.
         25    1    4    4    0    0  0.27875017949E+02 -0.30463500209E+02 -0.18222399390E+03  0.22485135873E+03  0.12509000000E+03 0.  0.
<mgrwt>
<rscale>  2 0.46877566E+03</rscale>
<asrwt>0</asrwt>
<pdfrwt beam="1">  1       21 0.10986013E-01 0.46877566E+03</pdfrwt>
<pdfrwt beam="2">  1       21 0.10814643E+00 0.46877566E+03</pdfrwt>
<totfact> 0.42496590E+04</totfact>
</mgrwt>
</event>
<event>
 7    0  0.4737014E-002  0.4555894E+03  0.7546771E-02  0.1026068E+00
         21   -1    0    0  502  501  0.00000000000E+00  0.00000000000E+00  0.30518782357E+03  0.30518782357E+03  0.00000000000E+00 0.  1.
         21   -1    0    0  501  502 -0.00000000000E+00 -0.00000000000E+00 -0.17002782983E+03  0.17002782983E+03  0.00000000000E+00 0.  1.
      99926    2    1    2    0    0  0.00000000000E+00  0.00000000000E+00  0.13515999374E+03  0.47521565341E+03  0.45558939116E+03 0.  0.
      99925    2    3    3    0    0 -0.71890018971E+01  0.55031586061E+02  0.18847613112E+03  0.32834742738E+03  0.26307531972E+03 0.  0.
         25    1    4    4    0    0 -0.77431210752E+01  0.63041468225E+02  0.74093174797E+02  0.15865525296E+03  0.12509000000E+03 0.  0.
         25    1    3    3    0    0  0.71890018971E+01 -0.55031586061E+02 -0.53316137384E+02  0.14686822603E+03  0.12509000000E+03 0.  0.
         25    1    4    4    0    0  0.55411917813E+00 -0.80098821635E+01  0.11438295633E+03  0.16969217442E+03  0.12509000000E+03 0.  0.
<mgrwt>
<rscale>  2 0.45558939E+03</rscale>
<asrwt>0</asrwt>
<pdfrwt beam="1">  1       21 0.44880562E-01 0.45558939E+03</pdfrwt>
<pdfrwt beam="2">  1       21 0.25004093E-01 0.45558939E+03</pdfrwt>
<totfact> 0.66737360E+04</totfact>
</mgrwt>
</event>
<event>
 7    0  0.4737014E-002  0.4508294E+03  0.7546771E-02  0.1027475E+00
         21   -1    0    0  502  501  0.00000000000E+00  0.00000000000E+00  0.37201416105E+03  0.37201416105E+03  0.00000000000E+00 0.  1.
         21   -1    0    0  501  502 -0.00000000000E+00 -0.00000000000E+00 -0.13658563582E+03  0.13658563582E+03  0.00000000000E+00 0.  1.
      99926    2    1    2    0    0  0.00000000000E+00  0.00000000000E+00  0.23542852523E+03  0.50859979687E+03  0.45082941662E+03 0.  0.
      99925    2    3    3    0    0  0.60272141424E+02 -0.60926240940E+02  0.72461521985E+02  0.28600040309E+03  0.26306048835E+03 0.  0.
         25    1    3    3    0    0 -0.60272141424E+02  0.60926240940E+02  0.16296700324E+03  0.22259939378E+03  0.12509000000E+03 0.  0.
         25    1    4    4    0    0  0.32599192718E+02 -0.68508585251E+02  0.55821278173E+02  0.15658753723E+03  0.12509000000E+03 0.  0.
         25    1    4    4    0    0  0.27672948707E+02  0.75823443110E+01  0.16640243812E+02  0.12941286586E+03  0.12509000000E+03 0.  0.
<mgrwt>
<rscale>  2 0.45082942E+03</rscale>
<asrwt>0</asrwt>
<pdfrwt beam="1">  1       21 0.54707965E-01 0.45082942E+03</pdfrwt>
<pdfrwt beam="2">  1       21 0.20086123E-01 0.45082942E+03</pdfrwt>
<totfact> 0.66856176E+04</totfact>
</mgrwt>
</event>
<event>
 7    0  0.4737014E-002  0.4514654E+03  0.7546771E-02  0.1027286E+00
         21   -1    0    0  502  501  0.00000000000E+00  0.00000000000E+00  0.16334463881E+03  0.16334463881E+03  0.00000000000E+00 0. -1.
         21   -1    0    0  501  502 -0.00000000000E+00 -0.00000000000E+00 -0.31194939974E+03  0.31194939974E+03  0.00000000000E+00 0. -1.
      99926    2    1    2    0    0 -0.71054273576E-14  0.00000000000E+00 -0.14860476093E+03  0.47529403855E+03  0.45146544509E+03 0.  0.
      99925    2    3    3    0    0  0.62798199007E+02 -0.86740219079E+02 -0.67565323156E+02  0.29176644395E+03  0.26285947865E+03 0.  0.
         25    1    4    4    0    0 -0.92653388079E+01 -0.47823044725E+02 -0.35397945175E+02  0.13882871725E+03  0.12509000000E+03 0.  0.
         25    1    4    4    0    0  0.72063537815E+02 -0.38917174354E+02 -0.32167377982E+02  0.15293772670E+03  0.12509000000E+03 0.  0.
         25    1    3    3    0    0 -0.62798199007E+02  0.86740219079E+02 -0.81039437770E+02  0.18352759460E+03  0.12509000000E+03 0.  0.
<mgrwt>
<rscale>  2 0.45146545E+03</rscale>
<asrwt>0</asrwt>
<pdfrwt beam="1">  1       21 0.24021271E-01 0.45146545E+03</pdfrwt>
<pdfrwt beam="2">  1       21 0.45874911E-01 0.45146545E+03</pdfrwt>
<totfact> 0.68958540E+04</totfact>
</mgrwt>
</event>
<event>
 7    0  0.4737014E-002  0.4424803E+03  0.7546771E-02  0.1029989E+00
         21   -1    0    0  502  501  0.00000000000E+00  0.00000000000E+00  0.38290444025E+03  0.38290444025E+03  0.00000000000E+00 0.  1.
         21   -1    0    0  501  502 -0.00000000000E+00 -0.00000000000E+00 -0.12783139675E+03  0.12783139675E+03  0.00000000000E+00 0.  1.
      99926    2    1    2    0    0  0.00000000000E+00  0.00000000000E+00  0.25507304350E+03  0.51073583700E+03  0.44248032463E+03 0.  0.
      99925    2    3    3    0    0 -0.78945640663E+02  0.62392756155E+02  0.15406361782E+03  0.32106327078E+03  0.26309837573E+03 0.  0.
         25    1    4    4    0    0 -0.29777221162E+02  0.37701428522E+02  0.12081487133E+03  0.18042123447E+03  0.12509000000E+03 0.  0.
         25    1    3    3    0    0  0.78945640663E+02 -0.62392756155E+02  0.10100942568E+03  0.18967256622E+03  0.12509000000E+03 0.  0.
         25    1    4    4    0    0 -0.49168419501E+02  0.24691327634E+02  0.33248746492E+02  0.14064203632E+03  0.12509000000E+03 0.  0.
<mgrwt>
<rscale>  2 0.44248032E+03</rscale>
<asrwt>0</asrwt>
<pdfrwt beam="1">  1       21 0.56309476E-01 0.44248032E+03</pdfrwt>
<pdfrwt beam="2">  1       21 0.18798735E-01 0.44248032E+03</pdfrwt>
<totfact> 0.71351352E+04</totfact>
</mgrwt>
</event>
<event>
 7    0  0.4737014E-002  0.4559595E+03  0.7546771E-02  0.1025960E+00
         21   -1    0    0  502  501  0.00000000000E+00  0.00000000000E+00  0.22918835763E+03  0.22918835763E+03  0.00000000000E+00 0. -1.
         21   -1    0    0  501  502 -0.00000000000E+00 -0.00000000000E+00 -0.22677754643E+03  0.22677754643E+03  0.00000000000E+00 0. -1.
      99926    2    1    2    0    0 -0.71054273576E-14 -0.14210854715E-13  0.24108112016E+01  0.45596590406E+03  0.45595953072E+03 0.  0.
      99925    2    3    3    0    0 -0.62015598668E+02 -0.90429719401E+02 -0.29777541445E+02  0.28653430495E+03  0.26304322328E+03 0.  0.
         25    1    4    4    0    0  0.36161668662E+00 -0.66009947081E+02 -0.30245384665E+02  0.14463656271E+03  0.12509000000E+03 0.  0.
         25    1    3    3    0    0  0.62015598668E+02  0.90429719401E+02  0.32188352647E+02  0.16943159910E+03  0.12509000000E+03 0.  0.
         25    1    4    4    0    0 -0.62377215355E+02 -0.24419772319E+02  0.46784321998E+00  0.14189774224E+03  0.12509000000E+03 0.  0.
<mgrwt>
<rscale>  2 0.45595953E+03</rscale>
<asrwt>0</asrwt>
<pdfrwt beam="1">  1       21 0.33704170E-01 0.45595953E+03</pdfrwt>
<pdfrwt beam="2">  1       21 0.33349639E-01 0.45595953E+03</pdfrwt>
<totfact> 0.67953339E+04</totfact>
</mgrwt>
</event>
<event>
 7    0  0.4737014E-002  0.4494281E+03  0.7546771E-02  0.1027893E+00
         21   -1    0    0  502  501  0.00000000000E+00  0.00000000000E+00  0.42915066381E+03  0.42915066381E+03  0.00000000000E+00 0.  1.
         21   -1    0    0  501  502 -0.00000000000E+00 -0.00000000000E+00 -0.11766589262E+03  0.11766589262E+03  0.00000000000E+00 0.  1.
      99926    2    1    2    0    0  0.00000000000E+00  0.00000000000E+00  0.31148477119E+03  0.54681655643E+03  0.44942806287E+03 0.  0.
      99925    2    3    3    0    0  0.58608252845E+02  0.87999520810E+02  0.17150492093E+03  0.33136189868E+03  0.26307399535E+03 0.  0.
         25    1    3    3    0    0 -0.58608252845E+02 -0.87999520810E+02  0.13997985026E+03  0.21545465774E+03  0.12509000000E+03 0.  0.
         25    1    4    4    0    0  0.20877133102E+02  0.43875594895E+01  0.94252798469E+02  0.15807024857E+03  0.12509000000E+03 0.  0.
         25    1    4    4    0    0  0.37731119743E+02  0.83611961320E+02  0.77252122463E+02  0.17329165011E+03  0.12509000000E+03 0.  0.
<mgrwt>
<rscale>  2 0.44942806E+03</rscale>
<asrwt>0</asrwt>
<pdfrwt beam="1">  1       21 0.63110391E-01 0.44942806E+03</pdfrwt>
<pdfrwt beam="2">  1       21 0.17303808E-01 0.44942806E+03</pdfrwt>
<totfact> 0.64891308E+04</totfact>
</mgrwt>
</event>
<event>
 7    0  0.4737014E-002  0.4568308E+03  0.7546771E-02  0.1025704E+00
         21   -1    0    0  502  501  0.00000000000E+00  0.00000000000E+00  0.56726426064E+03  0.56726426064E+03  0.00000000000E+00 0.  1.
         21   -1    0    0  501  502 -0.00000000000E+00 -0.00000000000E+00 -0.91974053102E+02  0.91974053102E+02  0.00000000000E+00 0.  1.
      99926    2    1    2    0    0  0.00000000000E+00  0.00000000000E+00  0.47529020754E+03  0.65923831374E+03  0.45683079244E+03 0.  0.
      99925    2    3    3    0    0  0.43027042107E+02 -0.10145696267E+03  0.34511430927E+03  0.44772445080E+03  0.26307500025E+03 0.  0.
         25    1    3    3    0    0 -0.43027042107E+02  0.10145696267E+03  0.13017589827E+03  0.21151386294E+03  0.12509000000E+03 0.  0.
         25    1    4    4    0    0  0.33962755906E+02 -0.54067893711E+02  0.23701872652E+03  0.27550352219E+03  0.12509000000E+03 0.  0.
         25    1    4    4    0    0  0.90642862013E+01 -0.47389068956E+02  0.10809558275E+03  0.17222092861E+03  0.12509000000E+03 0.  0.
<mgrwt>
<rscale>  2 0.45683079E+03</rscale>
<asrwt>0</asrwt>
<pdfrwt beam="1">  1       21 0.83421213E-01 0.45683079E+03</pdfrwt>
<pdfrwt beam="2">  1       21 0.13525596E-01 0.45683079E+03</pdfrwt>
<totfact> 0.54382645E+04</totfact>
</mgrwt>
</event>
<event>
 7    0  0.4737014E-002  0.4636408E+03  0.7546771E-02  0.1023731E+00
         21   -1    0    0  502  501  0.00000000000E+00  0.00000000000E+00  0.35956254858E+02  0.35956254858E+02  0.00000000000E+00 0.  1.
         21   -1    0    0  501  502 -0.00000000000E+00 -0.00000000000E+00 -0.14946130605E+04  0.14946130605E+04  0.00000000000E+00 0.  1.
      99926    2    1    2    0    0  0.00000000000E+00  0.71054273576E-14 -0.14586568056E+04  0.15305693153E+04  0.46364075799E+03 0.  0.
      99925    2    3    3    0    0  0.80010735675E+02 -0.33085306131E+02 -0.63115801036E+03  0.68920249904E+03  0.26295112728E+03 0.  0.
         25    1    3    3    0    0 -0.80010735675E+02  0.33085306131E+02 -0.82749879528E+03  0.84136681631E+03  0.12509000000E+03 0.  0.
         25    1    4    4    0    0  0.73518288339E+01  0.10076933340E+02 -0.29866908608E+03  0.32404679454E+03  0.12509000000E+03 0.  0.
         25    1    4    4    0    0  0.72658906841E+02 -0.43162239471E+02 -0.33248892428E+03  0.36515570450E+03  0.12509000000E+03 0.  0.
<mgrwt>
<rscale>  2 0.46364076E+03</rscale>
<asrwt>0</asrwt>
<pdfrwt beam="1">  1       21 0.52876845E-02 0.46364076E+03</pdfrwt>
<pdfrwt beam="2">  1       21 0.21979604E+00 0.46364076E+03</pdfrwt>
<totfact> 0.21556438E+04</totfact>
</mgrwt>
</event>
<event>
 7    0  0.4737014E-002  0.4628366E+03  0.7546771E-02  0.1023962E+00
         21   -1    0    0  502  501  0.00000000000E+00  0.00000000000E+00  0.15578961715E+03  0.15578961715E+03  0.00000000000E+00 0.  1.
         21   -1    0    0  501  502 -0.00000000000E+00 -0.00000000000E+00 -0.34376120410E+03  0.34376120410E+03  0.00000000000E+00 0.  1.
      99926    2    1    2    0    0  0.00000000000E+00  0.00000000000E+00 -0.18797158695E+03  0.49955082125E+03  0.46283658618E+03 0.  0.
      99925    2    3    3    0    0 -0.58771587172E+02 -0.10026981215E+03 -0.85913531186E+02  0.30062498197E+03  0.26360218181E+03 0.  0.
         25    1    4    4    0    0 -0.58880697020E+02 -0.25257398747E+02 -0.25930338477E+02  0.14291523091E+03  0.12509000000E+03 0.  0.
         25    1    4    4    0    0  0.10910984810E+00 -0.75012413405E+02 -0.59983192709E+02  0.15770975105E+03  0.12509000000E+03 0.  0.
         25    1    3    3    0    0  0.58771587172E+02  0.10026981215E+03 -0.10205805577E+03  0.19892583928E+03  0.12509000000E+03 0.  0.
<mgrwt>
<rscale>  2 0.46283659E+03</rscale>
<asrwt>0</asrwt>
<pdfrwt beam="1">  1       21 0.22910238E-01 0.46283659E+03</pdfrwt>
<pdfrwt beam="2">  1       21 0.50553117E-01 0.46283659E+03</pdfrwt>
<totfact> 0.61393103E+04</totfact>
</mgrwt>
</event>
<event>
 7    0  0.4737014E-002  0.4556562E+03  0.7546771E-02  0.1026049E+00
         21   -1    0    0  502  501  0.00000000000E+00  0.00000000000E+00  0.13611471121E+03  0.13611471121E+03  0.00000000000E+00 0. -1.
         21   -1    0    0  501  502 -0.00000000000E+00 -0.00000000000E+00 -0.38133745265E+03  0.38133745265E+03  0.00000000000E+00 0. -1.
      99926    2    1    2    0    0  0.00000000000E+00  0.00000000000E+00 -0.24522274144E+03  0.51745216387E+03  0.45565617407E+03 0.  0.
      99925    2    3    3    0    0  0.50936257384E+02  0.99847974634E+02 -0.17631090925E+03  0.33590198053E+03  0.26302183074E+03 0.  0.
         25    1    4    4    0    0  0.15520206799E+02  0.16711269730E+02 -0.50553869599E+02  0.13683327514E+03  0.12509000000E+03 0.  0.
         25    1    4    4    0    0  0.35416050585E+02  0.83136704905E+02 -0.12575703965E+03  0.19906870538E+03  0.12509000000E+03 0.  0.
         25    1    3    3    0    0 -0.50936257384E+02 -0.99847974634E+02 -0.68911832191E+02  0.18155018334E+03  0.12509000000E+03 0.  0.
<mgrwt>
<rscale>  2 0.45565617E+03</rscale>
<asrwt>0</asrwt>
<pdfrwt beam="1">  1       21 0.20016869E-01 0.45565617E+03</pdfrwt>
<pdfrwt beam="2">  1       21 0.56079037E-01 0.45565617E+03</pdfrwt>
<totfact> 0.63728745E+04</totfact>
</mgrwt>
</event>
<event>
 7    0  0.4737014E-002  0.4550380E+03  0.7546771E-02  0.1026230E+00
         21   -1    0    0  502  501  0.00000000000E+00  0.00000000000E+00  0.11800250549E+04  0.11800250549E+04  0.00000000000E+00 0.  1.
         21   -1    0    0  501  502 -0.00000000000E+00 -0.00000000000E+00 -0.43867616764E+02  0.43867616764E+02  0.00000000000E+00 0.  1.
      99926    2    1    2    0    0  0.71054273576E-14  0.00000000000E+00  0.11361574381E+04  0.12238926716E+04  0.45503796272E+03 0.  0.
      99925    2    3    3    0    0  0.34764541062E+02  0.33025198489E+02  0.99058825494E+03  0.10260616017E+04  0.26313130291E+03 0.  0.
         25    1    3    3    0    0 -0.34764541062E+02 -0.33025198489E+02  0.14556918317E+03  0.19783106995E+03  0.12509000000E+03 0.  0.
         25    1    4    4    0    0  0.56888504705E+02  0.27619579812E+02  0.53664931090E+03  0.55465226416E+03  0.12509000000E+03 0.  0.
         25    1    4    4    0    0 -0.22123963643E+02  0.54056186770E+01  0.45393894405E+03  0.47140933752E+03  0.12509000000E+03 0.  0.
<mgrwt>
<rscale>  2 0.45503796E+03</rscale>
<asrwt>0</asrwt>
<pdfrwt beam="1">  1       21 0.17353308E+00 0.45503796E+03</pdfrwt>
<pdfrwt beam="2">  1       21 0.64511209E-02 0.45503796E+03</pdfrwt>
<totfact> 0.31398279E+04</totfact>
</mgrwt>
</event>
<event>
 7    0  0.4737014E-002  0.4568604E+03  0.7546771E-02  0.1025696E+00
         21   -1    0    0  502  501  0.00000000000E+00  0.00000000000E+00  0.29530843363E+03  0.29530843363E+03  0.00000000000E+00 0.  1.
         21   -1    0    0  501  502 -0.00000000000E+00 -0.00000000000E+00 -0.17669778337E+03  0.17669778337E+03  0.00000000000E+00 0.  1.
      99926    2    1    2    0    0  0.35527136788E-14  0.35527136788E-14  0.11861065026E+03  0.47200621701E+03  0.45686035343E+03 0.  0.
      99925    2    3    3    0    0 -0.19803848769E+02 -0.28530264600E+02 -0.38763709734E+02  0.26799551703E+03  0.26289314089E+03 0.  0.
         25    1    3    3    0    0  0.19803848769E+02  0.28530264600E+02  0.15737435999E+03  0.20401069998E+03  0.12509000000E+03 0.  0.
         25    1    4    4    0    0  0.30404100808E+02 -0.11335586103E+02 -0.15933305954E+02  0.13020861414E+03  0.12509000000E+03 0.  0.
         25    1    4    4    0    0 -0.50207949577E+02 -0.17194678497E+02 -0.22830403781E+02  0.13778690288E+03  0.12509000000E+03 0.  0.
<mgrwt>
<rscale>  2 0.45686035E+03</rscale>
<asrwt>0</asrwt>
<pdfrwt beam="1">  1       21 0.43427711E-01 0.45686035E+03</pdfrwt>
<pdfrwt beam="2">  1       21 0.25984968E-01 0.45686035E+03</pdfrwt>
<totfact> 0.66302837E+04</totfact>
</mgrwt>
</event>
<event>
 7    0  0.4737014E-002  0.4745778E+03  0.7546771E-02  0.1020636E+00
         21   -1    0    0  502  501  0.00000000000E+00  0.00000000000E+00  0.75300414108E+02  0.75300414108E+02  0.00000000000E+00 0.  1.
         21   -1    0    0  501  502 -0.00000000000E+00 -0.00000000000E+00 -0.74775180141E+03  0.74775180141E+03  0.00000000000E+00 0.  1.
      99926    2    1    2    0    0  0.17763568394E-14  0.00000000000E+00 -0.67245138730E+03  0.82305221552E+03  0.47457779255E+03 0.  0.
      99925    2    3    3    0    0 -0.93534002859E+01 -0.16485649247E+02 -0.19193245752E+03  0.32615664026E+03  0.26302247624E+03 0.  0.
         25    1    4    4    0    0 -0.25799441820E+02  0.98196817190E+00 -0.54765133051E+02  0.13897231148E+03  0.12509000000E+03 0.  0.
         25    1    3    3    0    0  0.93534002859E+01  0.16485649247E+02 -0.48051892978E+03  0.49689557525E+03  0.12509000000E+03 0.  0.
         25    1    4    4    0    0  0.16446041534E+02 -0.17467617419E+02 -0.13716732446E+03  0.18718432878E+03  0.12509000000E+03 0.  0.
<mgrwt>
<rscale>  2 0.47457779E+03</rscale>
<asrwt>0</asrwt>
<pdfrwt beam="1">  1       21 0.11073590E-01 0.47457779E+03</pdfrwt>
<pdfrwt beam="2">  1       21 0.10996350E+00 0.47457779E+03</pdfrwt>
<totfact> 0.40139269E+04</totfact>
</mgrwt>
</event>
<event>
 7    0  0.4737014E-002  0.4540380E+03  0.7546771E-02  0.1026525E+00
         21   -1    0    0  502  501  0.00000000000E+00  0.00000000000E+00  0.66027114709E+02  0.66027114709E+02  0.00000000000E+00 0. -1.
         21   -1    0    0  501  502 -0.00000000000E+00 -0.00000000000E+00 -0.78055255732E+03  0.78055255732E+03  0.00000000000E+00 0. -1.
      99926    2    1    2    0    0  0.71054273576E-14 -0.14210854715E-13 -0.71452544261E+03  0.84657967203E+03  0.45403803029E+03 0.  0.
      99925    2    3    3    0    0 -0.35115577195E+02  0.72188370282E+02 -0.59841997631E+03  0.65797359585E+03  0.26149286840E+03 0.  0.
         25    1    3    3    0    0  0.35115577195E+02 -0.72188370282E+02 -0.11610546630E+03  0.18860607617E+03  0.12509000000E+03 0.  0.
         25    1    4    4    0    0 -0.17751188704E+02  0.74143491503E+02 -0.34536617645E+03  0.37515019121E+03  0.12509000000E+03 0.  0.
         25    1    4    4    0    0 -0.17364388492E+02 -0.19551212214E+01 -0.25305379987E+03  0.28282340464E+03  0.12509000000E+03 0.  0.
<mgrwt>
<rscale>  2 0.45403803E+03</rscale>
<asrwt>0</asrwt>
<pdfrwt beam="1">  1       21 0.97098707E-02 0.45403803E+03</pdfrwt>
<pdfrwt beam="2">  1       21 0.11478713E+00 0.45403803E+03</pdfrwt>
<totfact> 0.45938467E+04</totfact>
</mgrwt>
</event>
<event>
 7    0  0.4737014E-002  0.4552762E+03  0.7546771E-02  0.1026160E+00
         21   -1    0    0  502  501  0.00000000000E+00  0.00000000000E+00  0.67826918837E+02  0.67826918837E+02  0.00000000000E+00 0.  1.
         21   -1    0    0  501  502 -0.00000000000E+00 -0.00000000000E+00 -0.76399009752E+03  0.76399009752E+03  0.00000000000E+00 0.  1.
      99926    2    1    2    0    0  0.00000000000E+00  0.00000000000E+00 -0.69616317868E+03  0.83181701635E+03  0.45527615504E+03 0.  0.
      99925    2    3    3    0    0  0.81808306593E+02 -0.77974773775E+02 -0.45609456075E+03  0.53846890611E+03  0.26297119637E+03 0.  0.
         25    1    4    4    0    0  0.10730013263E+02 -0.27611426604E+02 -0.15824281842E+03  0.20387697698E+03  0.12509000000E+03 0.  0.
         25    1    3    3    0    0 -0.81808306593E+02  0.77974773775E+02 -0.24006861793E+03  0.29334811025E+03  0.12509000000E+03 0.  0.
         25    1    4    4    0    0  0.71078293330E+02 -0.50363347171E+02 -0.29785174233E+03  0.33459192912E+03  0.12509000000E+03 0.  0.
<mgrwt>
<rscale>  2 0.45527616E+03</rscale>
<asrwt>0</asrwt>
<pdfrwt beam="1">  1       21 0.99745465E-02 0.45527616E+03</pdfrwt>
<pdfrwt beam="2">  1       21 0.11235149E+00 0.45527616E+03</pdfrwt>
<totfact> 0.46163937E+04</totfact>
</mgrwt>
</event>
<event>
 7    0  0.4737014E-002  0.4532951E+03  0.7546771E-02  0.1026744E+00
         21   -1    0    0  502  501  0.00000000000E+00  0.00000000000E+00  0.23134184967E+03  0.23134184967E+03  0.00000000000E+00 0.  1.
         21   -1    0    0  501  502 -0.00000000000E+00 -0.00000000000E+00 -0.22204852285E+03  0.22204852285E+03  0.00000000000E+00 0.  1.
      99926    2    1    2    0    0  0.00000000000E+00  0.00000000000E+00  0.92933268186E+01  0.45339037252E+03  0.45329511796E+03 0.  0.
      99925    2    3    3    0    0  0.36182125969E+02  0.86475311826E+02 -0.54672531630E+02  0.28449317023E+03  0.26298317892E+03 0.  0.
         25    1    4    4    0    0  0.48078432546E+02  0.32700616886E+02 -0.53088365696E+02  0.14780645687E+03  0.12509000000E+03 0.  0.
         25    1    3    3    0    0 -0.36182125969E+02 -0.86475311826E+02  0.63965858448E+02  0.16889720229E+03  0.12509000000E+03 0.  0.
         25    1    4    4    0    0 -0.11896306577E+02  0.53774694939E+02 -0.15841659341E+01  0.13668671335E+03  0.12509000000E+03 0.  0.
<mgrwt>
<rscale>  2 0.45329512E+03</rscale>
<asrwt>0</asrwt>
<pdfrwt beam="1">  1       21 0.34020860E-01 0.45329512E+03</pdfrwt>
<pdfrwt beam="2">  1       21 0.32654195E-01 0.45329512E+03</pdfrwt>
<totfact> 0.69605929E+04</totfact>
</mgrwt>
</event>
<event>
 7    0  0.4737014E-002  0.4476694E+03  0.7546771E-02  0.1028419E+00
         21   -1    0    0  502  501  0.00000000000E+00  0.00000000000E+00  0.27165548273E+03  0.27165548273E+03  0.00000000000E+00 0.  1.
         21   -1    0    0  501  502 -0.00000000000E+00 -0.00000000000E+00 -0.18443204982E+03  0.18443204982E+03  0.00000000000E+00 0.  1.
      99926    2    1    2    0    0  0.00000000000E+00  0.71054273576E-14  0.87223432911E+02  0.45608753255E+03  0.44766942055E+03 0.  0.
      99925    2    3    3    0    0 -0.90644781437E+02  0.53840703924E+02  0.68366126569E+02  0.29141086783E+03  0.26292787761E+03 0.  0.
         25    1    4    4    0    0 -0.30370543761E+02  0.57047278703E+02  0.57526708354E+02  0.15209731165E+03  0.12509000000E+03 0.  0.
         25    1    4    4    0    0 -0.60274237676E+02 -0.32065747785E+01  0.10839418214E+02  0.13931355618E+03  0.12509000000E+03 0.  0.
         25    1    3    3    0    0  0.90644781437E+02 -0.53840703924E+02  0.18857306342E+02  0.16467666472E+03  0.12509000000E+03 0.  0.
<mgrwt>
<rscale>  2 0.44766942E+03</rscale>
<asrwt>0</asrwt>
<pdfrwt beam="1">  1       21 0.39949336E-01 0.44766942E+03</pdfrwt>
<pdfrwt beam="2">  1       21 0.27122360E-01 0.44766942E+03</pdfrwt>
<totfact> 0.72616918E+04</totfact>
</mgrwt>
</event>
<event>
 7    0  0.4737014E-002  0.4518780E+03  0.7546771E-02  0.1027163E+00
         21   -1    0    0  502  501  0.00000000000E+00  0.00000000000E+00  0.66883708485E+02  0.66883708485E+02  0.00000000000E+00 0.  1.
         21   -1    0    0  501  502 -0.00000000000E+00 -0.00000000000E+00 -0.76324157949E+03  0.76324157949E+03  0.00000000000E+00 0.  1.
      99926    2    1    2    0    0  0.00000000000E+00 -0.17763568394E-14 -0.69635787100E+03  0.83012528797E+03  0.45187798046E+03 0.  0.
      99925    2    3    3    0    0  0.34982188373E+02  0.13176109266E+02 -0.24893005937E+03  0.36403890319E+03  0.26298438208E+03 0.  0.
         25    1    3    3    0    0 -0.34982188373E+02 -0.13176109266E+02 -0.44742781164E+03  0.46608638479E+03  0.12509000000E+03 0.  0.
         25    1    4    4    0    0 -0.99417501394E+01  0.31484399160E+02 -0.99470368669E+02  0.16319303946E+03  0.12509000000E+03 0.  0.
         25    1    4    4    0    0  0.44923938513E+02 -0.18308289894E+02 -0.14945969070E+03  0.20084586372E+03  0.12509000000E+03 0.  0.
<mgrwt>
<rscale>  2 0.45187798E+03</rscale>
<asrwt>0</asrwt>
<pdfrwt beam="1">  1       21 0.98358392E-02 0.45187798E+03</pdfrwt>
<pdfrwt beam="2">  1       21 0.11224141E+00 0.45187798E+03</pdfrwt>
<totfact> 0.47494710E+04</totfact>
</mgrwt>
</event>
<event>
 7    0  0.4737014E-002  0.4539341E+03  0.7546771E-02  0.1026555E+00
         21   -1    0    0  502  501  0.00000000000E+00  0.00000000000E+00  0.48075429393E+03  0.48075429393E+03  0.00000000000E+00 0.  1.
         21   -1    0    0  501  502 -0.00000000000E+00 -0.00000000000E+00 -0.10715255816E+03  0.10715255816E+03  0.00000000000E+00 0.  1.
      99926    2    1    2    0    0 -0.35527136788E-14  0.00000000000E+00  0.37360173577E+03  0.58790685210E+03  0.45393414696E+03 0.  0.
      99925    2    3    3    0    0 -0.27045098579E+02  0.90338777312E+01  0.94843744284E+02  0.28104112540E+03  0.26301279443E+03 0.  0.
         25    1    4    4    0    0  0.20917237838E+01 -0.21230262295E+02  0.17522588595E+02  0.12810015049E+03  0.12509000000E+03 0.  0.
         25    1    4    4    0    0 -0.29136822363E+02  0.30264140026E+02  0.77321155689E+02  0.15294097491E+03  0.12509000000E+03 0.  0.
         25    1    3    3    0    0  0.27045098579E+02 -0.90338777312E+01  0.27875799149E+03  0.30686572670E+03  0.12509000000E+03 0.  0.
<mgrwt>
<rscale>  2 0.45393415E+03</rscale>
<asrwt>0</asrwt>
<pdfrwt beam="1">  1       21 0.70699160E-01 0.45393415E+03</pdfrwt>
<pdfrwt beam="2">  1       21 0.15757729E-01 0.45393415E+03</pdfrwt>
<totfact> 0.59932175E+04</totfact>
</mgrwt>
</event>
<event>
 7    0  0.4737014E-002  0.4368439E+03  0.7546771E-02  0.1031720E+00
         21   -1    0    0  502  501  0.00000000000E+00  0.00000000000E+00  0.22774790687E+03  0.22774790687E+03  0.00000000000E+00 0. -1.
         21   -1    0    0  501  502 -0.00000000000E+00 -0.00000000000E+00 -0.20947789759E+03  0.20947789759E+03  0.00000000000E+00 0. -1.
      99926    2    1    2    0    0  0.00000000000E+00  0.00000000000E+00  0.18270009280E+02  0.43722580446E+03  0.43684392047E+03 0.  0.
      99925    2    3    3    0    0  0.73892440795E+02  0.31916553507E+02  0.62349908074E+02  0.28208295167E+03  0.26306752250E+03 0.  0.
         25    1    4    4    0    0  0.61604419224E+02  0.86103354205E+01 -0.34322054522E+00  0.13970278538E+03  0.12509000000E+03 0.  0.
         25    1    4    4    0    0  0.12288021571E+02  0.23306218087E+02  0.62693128619E+02  0.14238016629E+03  0.12509000000E+03 0.  0.
         25    1    3    3    0    0 -0.73892440795E+02 -0.31916553507E+02 -0.44079898794E+02  0.15514285279E+03  0.12509000000E+03 0.  0.
<mgrwt>
<rscale>  2 0.43684392E+03</rscale>
<asrwt>0</asrwt>
<pdfrwt beam="1">  1       21 0.33492339E-01 0.43684392E+03</pdfrwt>
<pdfrwt beam="2">  1       21 0.30805573E-01 0.43684392E+03</pdfrwt>
<totfact> 0.80978446E+04</totfact>
</mgrwt>
</event>
<event>
 7    0  0.4737014E-002  0.4606020E+03  0.7546771E-02  0.1024607E+00
         21   -1    0    0  502  501  0.00000000000E+00  0.00000000000E+00  0.74947806545E+03  0.74947806545E+03  0.00000000000E+00 0.  1.
         21   -1    0    0  501  502 -0.00000000000E+00 -0.00000000000E+00 -0.70767317531E+02  0.70767317531E+02  0.00000000000E+00 0.  1.
      99926    2    1    2    0    0  0.00000000000E+00 -0.17763568394E-14  0.67871074792E+03  0.82024538298E+03  0.46060200712E+03 0.  0.
      99925    2    3    3    0    0 -0.65337596654E+02 -0.15692137390E+02  0.25131196562E+03  0.36987612124E+03  0.26293610685E+03 0.  0.
         25    1    4    4    0    0 -0.35181424469E+02  0.31470956146E+02  0.13682209603E+03  0.19130067373E+03  0.12509000000E+03 0.  0.
         25    1    3    3    0    0  0.65337596654E+02  0.15692137390E+02  0.42739878230E+03  0.45036926174E+03  0.12509000000E+03 0.  0.
         25    1    4    4    0    0 -0.30156172185E+02 -0.47163093536E+02  0.11448986959E+03  0.17857544750E+03  0.12509000000E+03 0.  0.
<mgrwt>
<rscale>  2 0.46060201E+03</rscale>
<asrwt>0</asrwt>
<pdfrwt beam="1">  1       21 0.11021736E+00 0.46060201E+03</pdfrwt>
<pdfrwt beam="2">  1       21 0.10406959E-01 0.46060201E+03</pdfrwt>
<totfact> 0.44799167E+04</totfact>
</mgrwt>
</event>
<event>
 7    0  0.4737014E-002  0.4619755E+03  0.7546771E-02  0.1024210E+00
         21   -1    0    0  502  501  0.00000000000E+00  0.00000000000E+00  0.34737275357E+03  0.34737275357E+03  0.00000000000E+00 0. -1.
         21   -1    0    0  501  502 -0.00000000000E+00 -0.00000000000E+00 -0.15359681967E+03  0.15359681967E+03  0.00000000000E+00 0. -1.
      99926    2    1    2    0    0  0.14210854715E-13  0.00000000000E+00  0.19377593390E+03  0.50096957324E+03  0.46197554129E+03 0.  0.
      99925    2    3    3    0    0  0.10229737896E+03  0.25736284345E+02  0.59967693349E+02  0.28959487415E+03  0.26294858207E+03 0.  0.
         25    1    3    3    0    0 -0.10229737896E+03 -0.25736284345E+02  0.13380824055E+03  0.21137469909E+03  0.12509000000E+03 0.  0.
         25    1    4    4    0    0  0.27811156655E+02 -0.94046247870E+01  0.54940234608E+02  0.13974206554E+03  0.12509000000E+03 0.  0.
         25    1    4    4    0    0  0.74486222308E+02  0.35140909132E+02  0.50274587408E+01  0.14985280862E+03  0.12509000000E+03 0.  0.
<mgrwt>
<rscale>  2 0.46197554E+03</rscale>
<asrwt>0</asrwt>
<pdfrwt beam="1">  1       21 0.51084228E-01 0.46197554E+03</pdfrwt>
<pdfrwt beam="2">  1       21 0.22587768E-01 0.46197554E+03</pdfrwt>
<totfact> 0.61713788E+04</totfact>
</mgrwt>
</event>
<event>
 7    0  0.4737014E-002  0.4422489E+03  0.7546771E-02  0.1030059E+00
         21   -1    0    0  502  501  0.00000000000E+00  0.00000000000E+00  0.61963846265E+02  0.61963846265E+02  0.00000000000E+00 0.  1.
         21   -1    0    0  501  502 -0.00000000000E+00 -0.00000000000E+00 -0.78910554946E+03  0.78910554946E+03  0.00000000000E+00 0.  1.
      99926    2    1    2    0    0  0.00000000000E+00  0.17763568394E-14 -0.72714170320E+03  0.85106939573E+03  0.44224886638E+03 0.  0.
      99925    2    3    3    0    0 -0.59348720804E+01 -0.89754897439E+01 -0.27080758586E+03  0.37777866386E+03  0.26318090392E+03 0.  0.
         25    1    4    4    0    0  0.33196715755E+01  0.20181080709E+02 -0.18023169841E+03  0.22033898759E+03  0.12509000000E+03 0.  0.
         25    1    4    4    0    0 -0.92545436560E+01 -0.29156570453E+02 -0.90575887447E+02  0.15743967628E+03  0.12509000000E+03 0.  0.
         25    1    3    3    0    0  0.59348720804E+01  0.89754897439E+01 -0.45633411734E+03  0.47329073187E+03  0.12509000000E+03 0.  0.
<mgrwt>
<rscale>  2 0.44224887E+03</rscale>
<asrwt>0</asrwt>
<pdfrwt beam="1">  1       21 0.91123306E-02 0.44224887E+03</pdfrwt>
<pdfrwt beam="2">  1       21 0.11604493E+00 0.44224887E+03</pdfrwt>
<totfact> 0.50230396E+04</totfact>
</mgrwt>
</event>
<event>
 7    0  0.4737014E-002  0.4519306E+03  0.7546771E-02  0.1027148E+00
         21   -1    0    0  502  501  0.00000000000E+00  0.00000000000E+00  0.12986193003E+04  0.12986193003E+04  0.00000000000E+00 0.  1.
         21   -1    0    0  501  502 -0.00000000000E+00 -0.00000000000E+00 -0.39318929485E+02  0.39318929485E+02  0.00000000000E+00 0.  1.
      99926    2    1    2    0    0 -0.35527136788E-14  0.00000000000E+00  0.12593003708E+04  0.13379382298E+04  0.45193061723E+03 0.  0.
      99925    2    3    3    0    0  0.19114328673E+02  0.90653508116E+02  0.61909524497E+03  0.67908048539E+03  0.26322607621E+03 0.  0.
         25    1    4    4    0    0  0.36545277622E+02  0.64358041216E+02  0.26539730318E+03  0.30259007159E+03  0.12509000000E+03 0.  0.
         25    1    4    4    0    0 -0.17430948949E+02  0.26295466900E+02  0.35369794178E+03  0.37649041380E+03  0.12509000000E+03 0.  0.
         25    1    3    3    0    0 -0.19114328673E+02 -0.90653508116E+02  0.64020512586E+03  0.65885774441E+03  0.12509000000E+03 0.  0.
<mgrwt>
<rscale>  2 0.45193062E+03</rscale>
<asrwt>0</asrwt>
<pdfrwt beam="1">  1       21 0.19097340E+00 0.45193062E+03</pdfrwt>
<pdfrwt beam="2">  1       21 0.57821964E-02 0.45193062E+03</pdfrwt>
<totfact> 0.28711654E+04</totfact>
</mgrwt>
</event>
<event>
 7    0  0.4737014E-002  0.4526285E+03  0.7546771E-02  0.1026941E+00
         21   -1    0    0  502  501  0.00000000000E+00  0.00000000000E+00  0.18372045416E+03  0.18372045416E+03  0.00000000000E+00 0. -1.
         21   -1    0    0  501  502 -0.00000000000E+00 -0.00000000000E+00 -0.27878298395E+03  0.27878298395E+03  0.00000000000E+00 0. -1.
      99926    2    1    2    0    0  0.00000000000E+00  0.00000000000E+00 -0.95062529785E+02  0.46250343811E+03  0.45262848529E+03 0.  0.
      99925    2    3    3    0    0  0.98129512654E+02  0.35322271116E+02 -0.21402601616E+02  0.28375680959E+03  0.26302621835E+03 0.  0.
         25    1    4    4    0    0  0.53720876570E+02  0.36363142392E+02 -0.47051923792E+02  0.14855841389E+03  0.12509000000E+03 0.  0.
         25    1    4    4    0    0  0.44408636085E+02 -0.10408712767E+01  0.25649322176E+02  0.13519839570E+03  0.12509000000E+03 0.  0.
         25    1    3    3    0    0 -0.98129512654E+02 -0.35322271116E+02 -0.73659928170E+02  0.17874662852E+03  0.12509000000E+03 0.  0.
<mgrwt>
<rscale>  2 0.45262849E+03</rscale>
<asrwt>0</asrwt>
<pdfrwt beam="1">  1       21 0.27017714E-01 0.45262849E+03</pdfrwt>
<pdfrwt beam="2">  1       21 0.40997497E-01 0.45262849E+03</pdfrwt>
<totfact> 0.69292375E+04</totfact>
</mgrwt>
</event>
<event>
 7    0  0.4737014E-002  0.4545980E+03  0.7546771E-02  0.1026360E+00
         21   -1    0    0  502  501  0.00000000000E+00  0.00000000000E+00  0.45854737389E+02  0.45854737389E+02  0.00000000000E+00 0. -1.
         21   -1    0    0  501  502 -0.00000000000E+00 -0.00000000000E+00 -0.11267064307E+04  0.11267064307E+04  0.00000000000E+00 0. -1.
      99926    2    1    2    0    0  0.00000000000E+00  0.00000000000E+00 -0.10808516933E+04  0.11725611681E+04  0.45459796522E+03 0.  0.
      99925    2    3    3    0    0  0.55401132963E+02  0.95693004166E+02 -0.62242916013E+03  0.68468294188E+03  0.26295671687E+03 0.  0.
         25    1    4    4    0    0 -0.44724989240E+01  0.26807848267E+02 -0.32633264617E+03  0.35054125011E+03  0.12509000000E+03 0.  0.
         25    1    4    4    0    0  0.59873631887E+02  0.68885155899E+02 -0.29609651396E+03  0.33414169177E+03  0.12509000000E+03 0.  0.
         25    1    3    3    0    0 -0.55401132963E+02 -0.95693004166E+02 -0.45842253322E+03  0.48787822624E+03  0.12509000000E+03 0.  0.
<mgrwt>
<rscale>  2 0.45459797E+03</rscale>
<asrwt>0</asrwt>
<pdfrwt beam="1">  1       21 0.67433438E-02 0.45459797E+03</pdfrwt>
<pdfrwt beam="2">  1       21 0.16569212E+00 0.45459797E+03</pdfrwt>
<totfact> 0.33141663E+04</totfact>
</mgrwt>
</event>
<event>
 7    0  0.4737014E-002  0.4536907E+03  0.7546771E-02  0.1026627E+00
         21   -1    0    0  502  501  0.00000000000E+00  0.00000000000E+00  0.12221995619E+03  0.12221995619E+03  0.00000000000E+00 0.  1.
         21   -1    0    0  501  502 -0.00000000000E+00 -0.00000000000E+00 -0.42103444314E+03  0.42103444314E+03  0.00000000000E+00 0.  1.
      99926    2    1    2    0    0  0.71054273576E-14  0.14210854715E-13 -0.29881448695E+03  0.54325439933E+03  0.45369069286E+03 0.  0.
      99925    2    3    3    0    0  0.40374293950E+02  0.10191366871E+03 -0.21544727802E+03  0.35720580593E+03  0.26298665119E+03 0.  0.
         25    1    3    3    0    0 -0.40374293950E+02 -0.10191366871E+03 -0.83367208932E+02  0.18604859340E+03  0.12509000000E+03 0.  0.
         25    1    4    4    0    0  0.37359873121E+02  0.30280717010E+02 -0.65426895292E+02  0.14913372747E+03  0.12509000000E+03 0.  0.
         25    1    4    4    0    0  0.30144208297E+01  0.71632951698E+02 -0.15002038272E+03  0.20807207846E+03  0.12509000000E+03 0.  0.
<mgrwt>
<rscale>  2 0.45369069E+03</rscale>
<asrwt>0</asrwt>
<pdfrwt beam="1">  1       21 0.17973523E-01 0.45369069E+03</pdfrwt>
<pdfrwt beam="2">  1       21 0.61916831E-01 0.45369069E+03</pdfrwt>
<totfact> 0.62964313E+04</totfact>
</mgrwt>
</event>
<event>
 7    0  0.4737014E-002  0.4517168E+03  0.7546771E-02  0.1027211E+00
         21   -1    0    0  502  501  0.00000000000E+00  0.00000000000E+00  0.33207706112E+02  0.33207706112E+02  0.00000000000E+00 0. -1.
         21   -1    0    0  501  502 -0.00000000000E+00 -0.00000000000E+00 -0.15361500047E+04  0.15361500047E+04  0.00000000000E+00 0. -1.
      99926    2    1    2    0    0 -0.35527136788E-14 -0.14210854715E-13 -0.15029422986E+04  0.15693577109E+04  0.45171680465E+03 0.  0.
      99925    2    3    3    0    0  0.27002507062E+02  0.88785713434E+02 -0.74326023360E+03  0.79387309700E+03  0.26303361190E+03 0.  0.
         25    1    3    3    0    0 -0.27002507062E+02 -0.88785713434E+02 -0.75968206503E+03  0.77548461386E+03  0.12509000000E+03 0.  0.
         25    1    4    4    0    0  0.16760957027E+02  0.44902012324E+02 -0.25769327392E+03  0.29043149264E+03  0.12509000000E+03 0.  0.
         25    1    4    4    0    0  0.10241550035E+02  0.43883701110E+02 -0.48556695968E+03  0.50344160436E+03  0.12509000000E+03 0.  0.
<mgrwt>
<rscale>  2 0.45171680E+03</rscale>
<asrwt>0</asrwt>
<pdfrwt beam="1">  1       21 0.48834865E-02 0.45171680E+03</pdfrwt>
<pdfrwt beam="2">  1       21 0.22590440E+00 0.45171680E+03</pdfrwt>
<totfact> 0.22702706E+04</totfact>
</mgrwt>
</event>
<event>
 7    0  0.4737014E-002  0.4557837E+03  0.7546771E-02  0.1026011E+00
         21   -1    0    0  502  501  0.00000000000E+00  0.00000000000E+00  0.18410156465E+03  0.18410156465E+03  0.00000000000E+00 0. -1.
         21   -1    0    0  501  502 -0.00000000000E+00 -0.00000000000E+00 -0.28209808826E+03  0.28209808826E+03  0.00000000000E+00 0. -1.
      99926    2    1    2    0    0  0.14210854715E-13  0.53290705182E-14 -0.97996523605E+02  0.46619965291E+03  0.45578371816E+03 0.  0.
      99925    2    3    3    0    0 -0.11363295049E+03  0.94473149369E+01 -0.58121900887E+02  0.29230545280E+03  0.26279768488E+03 0.  0.
         25    1    4    4    0    0 -0.61875629598E+02 -0.32837569937E+02 -0.42993617720E+02  0.14967584575E+03  0.12509000000E+03 0.  0.
         25    1    4    4    0    0 -0.51757320888E+02  0.42284884874E+02 -0.15128283166E+02  0.14262960704E+03  0.12509000000E+03 0.  0.
         25    1    3    3    0    0  0.11363295049E+03 -0.94473149369E+01 -0.39874622719E+02  0.17389420011E+03  0.12509000000E+03 0.  0.
<mgrwt>
<rscale>  2 0.45578372E+03</rscale>
<asrwt>0</asrwt>
<pdfrwt beam="1">  1       21 0.27073760E-01 0.45578372E+03</pdfrwt>
<pdfrwt beam="2">  1       21 0.41485012E-01 0.45578372E+03</pdfrwt>
<totfact> 0.67300644E+04</totfact>
</mgrwt>
</event>
<event>
 7    0  0.4737014E-002  0.4556015E+03  0.7546771E-02  0.1026065E+00
         21   -1    0    0  502  501  0.00000000000E+00  0.00000000000E+00  0.17681935655E+02  0.17681935655E+02  0.00000000000E+00 0.  1.
         21   -1    0    0  501  502 -0.00000000000E+00 -0.00000000000E+00 -0.29348139068E+04  0.29348139068E+04  0.00000000000E+00 0.  1.
      99926    2    1    2    0    0  0.00000000000E+00  0.00000000000E+00 -0.29171319711E+04  0.29524958425E+04  0.45560153933E+03 0.  0.
      99925    2    3    3    0    0  0.51568258266E+02  0.97066765712E+02 -0.20258802446E+04  0.20458214850E+04  0.26289454318E+03 0.  0.
         25    1    4    4    0    0 -0.12032170052E+02  0.40497804704E+02 -0.83640356419E+03  0.84676045939E+03  0.12509000000E+03 0.  0.
         25    1    3    3    0    0 -0.51568258266E+02 -0.97066765712E+02 -0.89125172658E+03  0.90667435747E+03  0.12509000000E+03 0.  0.
         25    1    4    4    0    0  0.63600428318E+02  0.56568961009E+02 -0.11894766804E+04  0.11990610256E+04  0.12509000000E+03 0.  0.
<mgrwt>
<rscale>  2 0.45560154E+03</rscale>
<asrwt>0</asrwt>
<pdfrwt beam="1">  1       21 0.26002875E-02 0.45560154E+03</pdfrwt>
<pdfrwt beam="2">  1       21 0.43158981E+00 0.45560154E+03</pdfrwt>
<totfact> 0.35042038E+03</totfact>
</mgrwt>
</event>
<event>
 7    0  0.4737014E-002  0.4270403E+03  0.7546771E-02  0.1034799E+00
         21   -1    0    0  502  501  0.00000000000E+00  0.00000000000E+00  0.46793903628E+03  0.46793903628E+03  0.00000000000E+00 0. -1.
         21   -1    0    0  501  502 -0.00000000000E+00 -0.00000000000E+00 -0.97429063971E+02  0.97429063971E+02  0.00000000000E+00 0. -1.
      99926    2    1    2    0    0  0.00000000000E+00  0.44408920985E-14  0.37050997231E+03  0.56536810025E+03  0.42704033674E+03 0.  0.
      99925    2    3    3    0    0 -0.38602914641E+02 -0.55949296552E+01  0.14033537070E+03  0.30051088667E+03  0.26285221796E+03 0.  0.
         25    1    4    4    0    0 -0.36470524604E+02  0.33465377981E+02  0.75950850191E+02  0.15448647330E+03  0.12509000000E+03 0.  0.
         25    1    4    4    0    0 -0.21323900368E+01 -0.39060307636E+02  0.64384520504E+02  0.14602441337E+03  0.12509000000E+03 0.  0.
         25    1    3    3    0    0  0.38602914641E+02  0.55949296552E+01  0.23017460162E+03  0.26485721358E+03  0.12509000000E+03 0.  0.
<mgrwt>
<rscale>  2 0.42704034E+03</rscale>
<asrwt>0</asrwt>
<pdfrwt beam="1">  1       21 0.68814563E-01 0.42704034E+03</pdfrwt>
<pdfrwt beam="2">  1       21 0.14327804E-01 0.42704034E+03</pdfrwt>
<totfact> 0.76406598E+04</totfact>
</mgrwt>
</event>
<event>
 7    0  0.4737014E-002  0.4534531E+03  0.7546771E-02  0.1026697E+00
         21   -1    0    0  502  501  0.00000000000E+00  0.00000000000E+00  0.75487525567E+03  0.75487525567E+03  0.00000000000E+00 0. -1.
         21   -1    0    0  501  502 -0.00000000000E+00 -0.00000000000E+00 -0.68097234906E+02  0.68097234906E+02  0.00000000000E+00 0. -1.
      99926    2    1    2    0    0 -0.17763568394E-14  0.00000000000E+00  0.68677802076E+03  0.82297249058E+03  0.45345305208E+03 0.  0.
      99925    2    3    3    0    0 -0.13593830606E+02  0.88815634169E+02  0.55318184541E+03  0.61908905507E+03  0.26303629962E+03 0.  0.
         25    1    4    4    0    0  0.31175325488E+02  0.39295888757E+02  0.30064069664E+03  0.32946684867E+03  0.12509000000E+03 0.  0.
         25    1    4    4    0    0 -0.44769156094E+02  0.49519745412E+02  0.25254114877E+03  0.28962220641E+03  0.12509000000E+03 0.  0.
         25    1    3    3    0    0  0.13593830606E+02 -0.88815634169E+02  0.13359617535E+03  0.20388343550E+03  0.12509000000E+03 0.  0.
<mgrwt>
<rscale>  2 0.45345305E+03</rscale>
<asrwt>0</asrwt>
<pdfrwt beam="1">  1       21 0.11101106E+00 0.45345305E+03</pdfrwt>
<pdfrwt beam="2">  1       21 0.10014300E-01 0.45345305E+03</pdfrwt>
<totfact> 0.47244509E+04</totfact>
</mgrwt>
</event>
<event>
 7    0  0.4737014E-002  0.4508111E+03  0.7546771E-02  0.1027480E+00
         21   -1    0    0  502  501  0.00000000000E+00  0.00000000000E+00  0.17799262811E+03  0.17799262811E+03  0.00000000000E+00 0.  1.
         21   -1    0    0  501  502 -0.00000000000E+00 -0.00000000000E+00 -0.28544808193E+03  0.28544808193E+03  0.00000000000E+00 0.  1.
      99926    2    1    2    0    0 -0.14210854715E-13  0.00000000000E+00 -0.10745545382E+03  0.46344071004E+03  0.45081106593E+03 0.  0.
      99925    2    3    3    0    0 -0.96432675306E+02  0.39579000121E+02 -0.10122874474E+03  0.30049274864E+03  0.26302637721E+03 0.  0.
         25    1    3    3    0    0  0.96432675306E+02 -0.39579000121E+02 -0.62267090802E+01  0.16294796140E+03  0.12509000000E+03 0.  0.
         25    1    4    4    0    0 -0.51822193099E+02  0.50467305922E+02 -0.81178190146E+02  0.16574044564E+03  0.12509000000E+03 0.  0.
         25    1    4    4    0    0 -0.44610482207E+02 -0.10888305801E+02 -0.20050554597E+02  0.13475230301E+03  0.12509000000E+03 0.  0.
<mgrwt>
<rscale>  2 0.45081107E+03</rscale>
<asrwt>0</asrwt>
<pdfrwt beam="1">  1       21 0.26175387E-01 0.45081107E+03</pdfrwt>
<pdfrwt beam="2">  1       21 0.41977659E-01 0.45081107E+03</pdfrwt>
<totfact> 0.70231653E+04</totfact>
</mgrwt>
</event>
<event>
 7    0  0.4737014E-002  0.4544645E+03  0.7546771E-02  0.1026399E+00
         21   -1    0    0  502  501  0.00000000000E+00  0.00000000000E+00  0.35903920420E+03  0.35903920420E+03  0.00000000000E+00 0. -1.
         21   -1    0    0  501  502 -0.00000000000E+00 -0.00000000000E+00 -0.14381295448E+03  0.14381295448E+03  0.00000000000E+00 0. -1.
      99926    2    1    2    0    0  0.00000000000E+00  0.00000000000E+00  0.21522624971E+03  0.50285215868E+03  0.45446447047E+03 0.  0.
      99925    2    3    3    0    0 -0.89711320323E+02 -0.67655372316E+02  0.12563496581E+03  0.31232794329E+03  0.26294339529E+03 0.  0.
         25    1    4    4    0    0 -0.19561049963E+02 -0.38950780874E+01  0.75972485601E+02  0.14770623879E+03  0.12509000000E+03 0.  0.
         25    1    4    4    0    0 -0.70150270360E+02 -0.63760294228E+02  0.49662480207E+02  0.16462170450E+03  0.12509000000E+03 0.  0.
         25    1    3    3    0    0  0.89711320323E+02  0.67655372316E+02  0.89591283907E+02  0.19052421539E+03  0.12509000000E+03 0.  0.
<mgrwt>
<rscale>  2 0.45446447E+03</rscale>
<asrwt>0</asrwt>
<pdfrwt beam="1">  1       21 0.52799883E-01 0.45446447E+03</pdfrwt>
<pdfrwt beam="2">  1       21 0.21148964E-01 0.45446447E+03</pdfrwt>
<totfact> 0.65348092E+04</totfact>
</mgrwt>
</event>
<event>
 7    0  0.4737014E-002  0.4436998E+03  0.7546771E-02  0.1029618E+00
         21   -1    0    0  502  501  0.00000000000E+00  0.00000000000E+00  0.11533215653E+04  0.11533215653E+04  0.00000000000E+00 0.  1.
         21   -1    0    0  501  502 -0.00000000000E+00 -0.00000000000E+00 -0.42674463893E+02  0.42674463893E+02  0.00000000000E+00 0.  1.
      99926    2    1    2    0    0  0.00000000000E+00  0.00000000000E+00  0.11106471014E+04  0.11959960292E+04  0.44369980616E+03 0.  0.
      99925    2    3    3    0    0 -0.84978346071E+01 -0.85817500496E+02  0.85439261439E+03  0.89808542717E+03  0.26293314433E+03 0.  0.
         25    1    3    3    0    0  0.84978346071E+01  0.85817500496E+02  0.25625448704E+03  0.29791060205E+03  0.12509000000E+03 0.  0.
         25    1    4    4    0    0  0.17632308184E+02 -0.47030652496E+02  0.31946063599E+03  0.34673532645E+03  0.12509000000E+03 0.  0.
         25    1    4    4    0    0 -0.26130142791E+02 -0.38786848000E+02  0.53493197840E+03  0.55135010071E+03  0.12509000000E+03 0.  0.
<mgrwt>
<rscale>  2 0.44369981E+03</rscale>
<asrwt>0</asrwt>
<pdfrwt beam="1">  1       21 0.16960609E+00 0.44369981E+03</pdfrwt>
<pdfrwt beam="2">  1       21 0.62756572E-02 0.44369981E+03</pdfrwt>
<totfact> 0.35288745E+04</totfact>
</mgrwt>
</event>
<event>
 7    0  0.4737014E-002  0.4532464E+03  0.7546771E-02  0.1026758E+00
         21   -1    0    0  502  501  0.00000000000E+00  0.00000000000E+00  0.35074358166E+03  0.35074358166E+03  0.00000000000E+00 0. -1.
         21   -1    0    0  501  502 -0.00000000000E+00 -0.00000000000E+00 -0.14642625411E+03  0.14642625411E+03  0.00000000000E+00 0. -1.
      99926    2    1    2    0    0  0.00000000000E+00  0.00000000000E+00  0.20431732756E+03  0.49716983577E+03  0.45324637369E+03 0.  0.
      99925    2    3    3    0    0 -0.33375756375E+02 -0.10588360529E+03  0.14644139199E+03  0.32018844975E+03  0.26220275185E+03 0.  0.
         25    1    3    3    0    0  0.33375756375E+02  0.10588360529E+03  0.57875935563E+02  0.17698138603E+03  0.12509000000E+03 0.  0.
         25    1    4    4    0    0 -0.17191455645E+02 -0.25527220198E+02  0.10157356856E+03  0.16404841678E+03  0.12509000000E+03 0.  0.
         25    1    4    4    0    0 -0.16184300730E+02 -0.80356385090E+02  0.44867823434E+02  0.15614003297E+03  0.12509000000E+03 0.  0.
<mgrwt>
<rscale>  2 0.45324637E+03</rscale>
<asrwt>0</asrwt>
<pdfrwt beam="1">  1       21 0.51579938E-01 0.45324637E+03</pdfrwt>
<pdfrwt beam="2">  1       21 0.21533273E-01 0.45324637E+03</pdfrwt>
<totfact> 0.66389334E+04</totfact>
</mgrwt>
</event>
<event>
 7    0  0.4737014E-002  0.4506150E+03  0.7546771E-02  0.1027539E+00
         21   -1    0    0  502  501  0.00000000000E+00  0.00000000000E+00  0.64369961241E+02  0.64369961241E+02  0.00000000000E+00 0. -1.
         21   -1    0    0  501  502 -0.00000000000E+00 -0.00000000000E+00 -0.78862039432E+03  0.78862039432E+03  0.00000000000E+00 0. -1.
      99926    2    1    2    0    0 -0.35527136788E-14 -0.35527136788E-14 -0.72425043307E+03  0.85299035556E+03  0.45061497630E+03 0.  0.
      99925    2    3    3    0    0  0.29339412719E+02 -0.21764663872E+02 -0.26241376105E+03  0.37312045500E+03  0.26272302948E+03 0.  0.
         25    1    4    4    0    0  0.19507351151E+02 -0.33935101383E+02 -0.17939240580E+03  0.22217396610E+03  0.12509000000E+03 0.  0.
         25    1    4    4    0    0  0.98320615673E+01  0.12170437511E+02 -0.83021355252E+02  0.15094648890E+03  0.12509000000E+03 0.  0.
         25    1    3    3    0    0 -0.29339412719E+02  0.21764663872E+02 -0.46183667202E+03  0.47986990055E+03  0.12509000000E+03 0.  0.
<mgrwt>
<rscale>  2 0.45061498E+03</rscale>
<asrwt>0</asrwt>
<pdfrwt beam="1">  1       21 0.94661706E-02 0.45061498E+03</pdfrwt>
<pdfrwt beam="2">  1       21 0.11597359E+00 0.45061498E+03</pdfrwt>
<totfact> 0.46898363E+04</totfact>
</mgrwt>
</event>
<event>
 6    0  0.4737014E-002  0.4546915E+03  0.7546771E-02  0.1026332E+00
         21   -1    0    0  502  501  0.00000000000E+00  0.00000000000E+00  0.12726796352E+03  0.12726796352E+03  0.00000000000E+00 0.  1.
         21   -1    0    0  501  502 -0.00000000000E+00 -0.00000000000E+00 -0.40612023568E+03  0.40612023568E+03  0.00000000000E+00 0.  1.
      99926    2    1    2    0    0  0.00000000000E+00  0.00000000000E+00 -0.27885227216E+03  0.53338819920E+03  0.45469152330E+03 0.  0.
         25    1    3    3    0    0  0.13890545986E+02 -0.26858488646E+01 -0.52728773696E+02  0.13648440470E+03  0.12509000000E+03 0.  0.
         25    1    3    3    0    0  0.96257798965E+02 -0.11333602321E+02 -0.12278100210E+03  0.20029152997E+03  0.12509000000E+03 0.  0.
         25    1    3    3    0    0 -0.11014834495E+03  0.14019451186E+02 -0.10334249637E+03  0.19661226453E+03  0.12509000000E+03 0.  0.
<mgrwt>
<rscale>  2 0.45469152E+03</rscale>
<asrwt>0</asrwt>
<pdfrwt beam="1">  1       21 0.18715877E-01 0.45469152E+03</pdfrwt>
<pdfrwt beam="2">  1       21 0.59723565E-01 0.45469152E+03</pdfrwt>
<totfact> 0.63131764E+04</totfact>
</mgrwt>
</event>
<event>
 7    0  0.4737014E-002  0.4703270E+03  0.7546771E-02  0.1021828E+00
         21   -1    0    0  502  501  0.00000000000E+00  0.00000000000E+00  0.13694972323E+03  0.13694972323E+03  0.00000000000E+00 0. -1.
         21   -1    0    0  501  502 -0.00000000000E+00 -0.00000000000E+00 -0.40381147022E+03  0.40381147022E+03  0.00000000000E+00 0. -1.
      99926    2    1    2    0    0  0.00000000000E+00  0.35527136788E-14 -0.26686174699E+03  0.54076119345E+03  0.47032698874E+03 0.  0.
      99925    2    3    3    0    0 -0.99690857380E+02 -0.25179987636E+02 -0.25143540131E+03  0.37810271976E+03  0.26300115368E+03 0.  0.
         25    1    3    3    0    0  0.99690857380E+02  0.25179987636E+02 -0.15426345679E+02  0.16265847369E+03  0.12509000000E+03 0.  0.
         25    1    4    4    0    0 -0.40969754316E+02 -0.52014458484E+02 -0.13069103967E+03  0.19264392181E+03  0.12509000000E+03 0.  0.
         25    1    4    4    0    0 -0.58721103064E+02  0.26834470848E+02 -0.12074436163E+03  0.18545879795E+03  0.12509000000E+03 0.  0.
<mgrwt>
<rscale>  2 0.47032699E+03</rscale>
<asrwt>0</asrwt>
<pdfrwt beam="1">  1       21 0.20139665E-01 0.47032699E+03</pdfrwt>
<pdfrwt beam="2">  1       21 0.59384039E-01 0.47032699E+03</pdfrwt>
<totfact> 0.55437183E+04</totfact>
</mgrwt>
</event>
<event>
 6    0  0.4737014E-002  0.4539091E+03  0.7546771E-02  0.1026563E+00
         21   -1    0    0  502  501  0.00000000000E+00  0.00000000000E+00  0.48465527776E+02  0.48465527776E+02  0.00000000000E+00 0. -1.
         21   -1    0    0  501  502 -0.00000000000E+00 -0.00000000000E+00 -0.10627835271E+04  0.10627835271E+04  0.00000000000E+00 0. -1.
      99926    2    1    2    0    0  0.00000000000E+00  0.31086244690E-14 -0.10143179993E+04  0.11112490548E+04  0.45390908584E+03 0.  0.
         25    1    3    3    0    0  0.19522193436E+02  0.21652492862E+02 -0.34295005236E+03  0.36621331624E+03  0.12509000000E+03 0.  0.
         25    1    3    3    0    0 -0.10596522352E+03 -0.39333301543E+01 -0.27565322246E+03  0.32074336600E+03  0.12509000000E+03 0.  0.
         25    1    3    3    0    0  0.86443030086E+02 -0.17719162708E+02 -0.39571472448E+03  0.42429237260E+03  0.12509000000E+03 0.  0.
<mgrwt>
<rscale>  2 0.45390909E+03</rscale>
<asrwt>0</asrwt>
<pdfrwt beam="1">  1       21 0.71272828E-02 0.45390909E+03</pdfrwt>
<pdfrwt beam="2">  1       21 0.15629171E+00 0.45390909E+03</pdfrwt>
<totfact> 0.35402924E+04</totfact>
</mgrwt>
</event>
<event>
 7    0  0.4737014E-002  0.4559811E+03  0.7546771E-02  0.1025953E+00
         21   -1    0    0  502  501  0.00000000000E+00  0.00000000000E+00  0.46532105855E+02  0.46532105855E+02  0.00000000000E+00 0. -1.
         21   -1    0    0  501  502 -0.00000000000E+00 -0.00000000000E+00 -0.11170716200E+04  0.11170716200E+04  0.00000000000E+00 0. -1.
      99926    2    1    2    0    0  0.00000000000E+00  0.00000000000E+00 -0.10705395141E+04  0.11636037258E+04  0.45598111745E+03 0.  0.
      99925    2    3    3    0    0 -0.31833096204E+02  0.86733276314E+02 -0.84340628185E+03  0.88833472914E+03  0.26318895779E+03 0.  0.
         25    1    3    3    0    0  0.31833096204E+02 -0.86733276314E+02 -0.22713323225E+03  0.27526899667E+03  0.12509000000E+03 0.  0.
         25    1    4    4    0    0  0.10732432485E+02  0.71332989553E+02 -0.48487431623E+03  0.50591915475E+03  0.12509000000E+03 0.  0.
         25    1    4    4    0    0 -0.42565528689E+02  0.15400286760E+02 -0.35853196562E+03  0.38241557439E+03  0.12509000000E+03 0.  0.
<mgrwt>
<rscale>  2 0.45598112E+03</rscale>
<asrwt>0</asrwt>
<pdfrwt beam="1">  1       21 0.68429565E-02 0.45598112E+03</pdfrwt>
<pdfrwt beam="2">  1       21 0.16427524E+00 0.45598112E+03</pdfrwt>
<totfact> 0.33077779E+04</totfact>
</mgrwt>
</event>
<event>
 7    0  0.4737014E-002  0.4533833E+03  0.7546771E-02  0.1026718E+00
         21   -1    0    0  502  501  0.00000000000E+00  0.00000000000E+00  0.35879009264E+03  0.35879009264E+03  0.00000000000E+00 0. -1.
         21   -1    0    0  501  502 -0.00000000000E+00 -0.00000000000E+00 -0.14322890753E+03  0.14322890753E+03  0.00000000000E+00 0. -1.
      99926    2    1    2    0    0  0.00000000000E+00  0.00000000000E+00  0.21556118511E+03  0.50201900018E+03  0.45338333892E+03 0.  0.
      99925    2    3    3    0    0 -0.16209978952E+02 -0.10787052582E+03  0.16237948693E+03  0.32773585446E+03  0.26295413815E+03 0.  0.
         25    1    4    4    0    0 -0.15177049939E+01 -0.91790804323E+02  0.67393060091E+02  0.16916615452E+03  0.12509000000E+03 0.  0.
         25    1    3    3    0    0  0.16209978952E+02  0.10787052582E+03  0.53181698184E+02  0.17428314571E+03  0.12509000000E+03 0.  0.
         25    1    4    4    0    0 -0.14692273958E+02 -0.16079721493E+02  0.94986426835E+02  0.15856969994E+03  0.12509000000E+03 0.  0.
<mgrwt>
<rscale>  2 0.45338334E+03</rscale>
<asrwt>0</asrwt>
<pdfrwt beam="1">  1       21 0.52763249E-01 0.45338334E+03</pdfrwt>
<pdfrwt beam="2">  1       21 0.21063075E-01 0.45338334E+03</pdfrwt>
<totfact> 0.65971575E+04</totfact>
</mgrwt>
</event>
<event>
 7    0  0.4737014E-002  0.4604346E+03  0.7546771E-02  0.1024655E+00
         21   -1    0    0  502  501  0.00000000000E+00  0.00000000000E+00  0.33454220366E+03  0.33454220366E+03  0.00000000000E+00 0.  1.
         21   -1    0    0  501  502 -0.00000000000E+00 -0.00000000000E+00 -0.15842547932E+03  0.15842547932E+03  0.00000000000E+00 0.  1.
      99926    2    1    2    0    0  0.88817841970E-15  0.00000000000E+00  0.17611672434E+03  0.49296768297E+03  0.46043461627E+03 0.  0.
      99925    2    3    3    0    0  0.44592383734E+01 -0.73065908632E+02  0.11145855539E+02  0.27337395022E+03  0.26315503938E+03 0.  0.
         25    1    4    4    0    0  0.12101077072E+02  0.44706170177E+01  0.69200725303E+01  0.12594370960E+03  0.12509000000E+03 0.  0.
         25    1    3    3    0    0 -0.44592383734E+01  0.73065908632E+02  0.16497086880E+03  0.21959373275E+03  0.12509000000E+03 0.  0.
         25    1    4    4    0    0 -0.76418386983E+01 -0.77536525650E+02  0.42257830082E+01  0.14743024062E+03  0.12509000000E+03 0.  0.
<mgrwt>
<rscale>  2 0.46043462E+03</rscale>
<asrwt>0</asrwt>
<pdfrwt beam="1">  1       21 0.49197383E-01 0.46043462E+03</pdfrwt>
<pdfrwt beam="2">  1       21 0.23297865E-01 0.46043462E+03</pdfrwt>
<totfact> 0.63005124E+04</totfact>
</mgrwt>
</event>
<event>
 7    0  0.4737014E-002  0.4033897E+03  0.7546771E-02  0.1042612E+00
         21   -1    0    0  502  501  0.00000000000E+00  0.00000000000E+00  0.90941567714E+02  0.90941567714E+02  0.00000000000E+00 0.  1.
         21   -1    0    0  501  502 -0.00000000000E+00 -0.00000000000E+00 -0.44732914486E+03  0.44732914486E+03  0.00000000000E+00 0.  1.
      99926    2    1    2    0    0  0.00000000000E+00  0.35527136788E-14 -0.35638757714E+03  0.53827071257E+03  0.40338970596E+03 0.  0.
      99925    2    3    3    0    0  0.41942576766E+02 -0.17413524517E+02 -0.26976165256E+03  0.37948164024E+03  0.26300675943E+03 0.  0.
         25    1    3    3    0    0 -0.41942576766E+02  0.17413524517E+02 -0.86625924586E+02  0.15878907233E+03  0.12509000000E+03 0.  0.
         25    1    4    4    0    0  0.27056286155E+02  0.24095956545E+02 -0.16653979813E+03  0.21141350526E+03  0.12509000000E+03 0.  0.
         25    1    4    4    0    0  0.14886290612E+02 -0.41509481062E+02 -0.10322185443E+03  0.16806813498E+03  0.12509000000E+03 0.  0.
<mgrwt>
<rscale>  2 0.40338971E+03</rscale>
<asrwt>0</asrwt>
<pdfrwt beam="1">  1       21 0.13373760E-01 0.40338971E+03</pdfrwt>
<pdfrwt beam="2">  1       21 0.65783698E-01 0.40338971E+03</pdfrwt>
<totfact> 0.96388991E+04</totfact>
</mgrwt>
</event>
<event>
 7    0  0.4737014E-002  0.4587190E+03  0.7546771E-02  0.1025153E+00
         21   -1    0    0  502  501  0.00000000000E+00  0.00000000000E+00  0.31584707395E+03  0.31584707395E+03  0.00000000000E+00 0.  1.
         21   -1    0    0  501  502 -0.00000000000E+00 -0.00000000000E+00 -0.16655461593E+03  0.16655461593E+03  0.00000000000E+00 0.  1.
      99926    2    1    2    0    0  0.00000000000E+00  0.00000000000E+00  0.14929245802E+03  0.48240168988E+03  0.45871903425E+03 0.  0.
      99925    2    3    3    0    0 -0.23505246473E+02  0.11367482288E+03  0.82519563346E+02  0.29915161612E+03  0.26307365723E+03 0.  0.
         25    1    3    3    0    0  0.23505246473E+02 -0.11367482288E+03  0.66772894679E+02  0.18325007376E+03  0.12509000000E+03 0.  0.
         25    1    4    4    0    0  0.27267987971E+02  0.51714159829E+02  0.51750866164E+02  0.14745696913E+03  0.12509000000E+03 0.  0.
         25    1    4    4    0    0 -0.50773234444E+02  0.61960663053E+02  0.30768697182E+02  0.15169464700E+03  0.12509000000E+03 0.  0.
<mgrwt>
<rscale>  2 0.45871903E+03</rscale>
<asrwt>0</asrwt>
<pdfrwt beam="1">  1       21 0.46448099E-01 0.45871903E+03</pdfrwt>
<pdfrwt beam="2">  1       21 0.24493326E-01 0.45871903E+03</pdfrwt>
<totfact> 0.64597611E+04</totfact>
</mgrwt>
</event>
<event>
 7    0  0.4737014E-002  0.4595058E+03  0.7546771E-02  0.1024925E+00
         21   -1    0    0  502  501  0.00000000000E+00  0.00000000000E+00  0.25721309029E+03  0.25721309029E+03  0.00000000000E+00 0.  1.
         21   -1    0    0  501  502 -0.00000000000E+00 -0.00000000000E+00 -0.20522436964E+03  0.20522436964E+03  0.00000000000E+00 0.  1.
      99926    2    1    2    0    0  0.00000000000E+00  0.17763568394E-14  0.51988720644E+02  0.46243745993E+03  0.45950579678E+03 0.  0.
      99925    2    3    3    0    0 -0.43432752044E+02  0.77280974652E+01  0.14203472296E+03  0.30211928231E+03  0.26297541858E+03 0.  0.
         25    1    3    3    0    0  0.43432752044E+02 -0.77280974652E+01 -0.90046002319E+02  0.16031817762E+03  0.12509000000E+03 0.  0.
         25    1    4    4    0    0 -0.71621365263E+01 -0.29228447036E+02  0.90308661357E+02  0.15719020559E+03  0.12509000000E+03 0.  0.
         25    1    4    4    0    0 -0.36270615518E+02  0.36956544501E+02  0.51726061606E+02  0.14492907673E+03  0.12509000000E+03 0.  0.
<mgrwt>
<rscale>  2 0.45950580E+03</rscale>
<asrwt>0</asrwt>
<pdfrwt beam="1">  1       21 0.37825455E-01 0.45950580E+03</pdfrwt>
<pdfrwt beam="2">  1       21 0.30180054E-01 0.45950580E+03</pdfrwt>
<totfact> 0.65613577E+04</totfact>
</mgrwt>
</event>
<event>
 7    0  0.4737014E-002  0.4577441E+03  0.7546771E-02  0.1025438E+00
         21   -1    0    0  502  501  0.00000000000E+00  0.00000000000E+00  0.12614251004E+04  0.12614251004E+04  0.00000000000E+00 0.  1.
         21   -1    0    0  501  502 -0.00000000000E+00 -0.00000000000E+00 -0.41526375844E+02  0.41526375844E+02  0.00000000000E+00 0.  1.
      99926    2    1    2    0    0  0.00000000000E+00  0.14210854715E-13  0.12198987245E+04  0.13029514762E+04  0.45774408928E+03 0.  0.
      99925    2    3    3    0    0 -0.71536875549E+02  0.86120420252E+02  0.85057570643E+03  0.89726532765E+03  0.26281511462E+03 0.  0.
         25    1    4    4    0    0  0.72429708938E+00  0.54174019424E+02  0.45232933778E+03  0.47242426578E+03  0.12509000000E+03 0.  0.
         25    1    3    3    0    0  0.71536875549E+02 -0.86120420252E+02  0.36932301809E+03  0.40568614857E+03  0.12509000000E+03 0.  0.
         25    1    4    4    0    0 -0.72261172639E+02  0.31946400828E+02  0.39824636865E+03  0.42484106186E+03  0.12509000000E+03 0.  0.
<mgrwt>
<rscale>  2 0.45774409E+03</rscale>
<asrwt>0</asrwt>
<pdfrwt beam="1">  1       21 0.18550367E+00 0.45774409E+03</pdfrwt>
<pdfrwt beam="2">  1       21 0.61068208E-02 0.45774409E+03</pdfrwt>
<totfact> 0.28417781E+04</totfact>
</mgrwt>
</event>
<event>
 7    0  0.4737014E-002  0.4563056E+03  0.7546771E-02  0.1025858E+00
         21   -1    0    0  502  501  0.00000000000E+00  0.00000000000E+00  0.42997174870E+03  0.42997174870E+03  0.00000000000E+00 0. -1.
         21   -1    0    0  501  502 -0.00000000000E+00 -0.00000000000E+00 -0.12106306599E+03  0.12106306599E+03  0.00000000000E+00 0. -1.
      99926    2    1    2    0    0 -0.71054273576E-14  0.14210854715E-13  0.30890868271E+03  0.55103481468E+03  0.45630559140E+03 0.  0.
      99925    2    3    3    0    0  0.45800553965E+02 -0.97028013317E+02  0.24204341467E+03  0.37318488277E+03  0.26300155139E+03 0.  0.
         25    1    3    3    0    0 -0.45800553965E+02  0.97028013317E+02  0.66865268045E+02  0.17784993192E+03  0.12509000000E+03 0.  0.
         25    1    4    4    0    0  0.10331107809E+02 -0.30182398212E+02  0.68076182461E+02  0.14594376886E+03  0.12509000000E+03 0.  0.
         25    1    4    4    0    0  0.35469446156E+02 -0.66845615105E+02  0.17396723220E+03  0.22724111391E+03  0.12509000000E+03 0.  0.
<mgrwt>
<rscale>  2 0.45630559E+03</rscale>
<asrwt>0</asrwt>
<pdfrwt beam="1">  1       21 0.63231139E-01 0.45630559E+03</pdfrwt>
<pdfrwt beam="2">  1       21 0.17803392E-01 0.45630559E+03</pdfrwt>
<totfact> 0.61163939E+04</totfact>
</mgrwt>
</event>
<event>
 7    0  0.4737014E-002  0.4562950E+03  0.7546771E-02  0.1025861E+00
         21   -1    0    0  502  501  0.00000000000E+00  0.00000000000E+00  0.10423339803E+04  0.10423339803E+04  0.00000000000E+00 0.  1.
         21   -1    0    0  501  502 -0.00000000000E+00 -0.00000000000E+00 -0.49937233180E+02  0.49937233180E+02  0.00000000000E+00 0.  1.
      99926    2    1    2    0    0  0.00000000000E+00 -0.14210854715E-13  0.99239674713E+03  0.10922712135E+04  0.45629497050E+03 0.  0.
      99925    2    3    3    0    0  0.75852700481E+02 -0.71750111533E+02  0.51766649989E+03  0.59035685185E+03  0.26389561713E+03 0.  0.
         25    1    4    4    0    0  0.61733975777E+02 -0.39898850916E+01  0.22766261365E+03  0.26702954275E+03  0.12509000000E+03 0.  0.
         25    1    4    4    0    0  0.14118724704E+02 -0.67760226441E+02  0.29000388624E+03  0.32332730910E+03  0.12509000000E+03 0.  0.
         25    1    3    3    0    0 -0.75852700481E+02  0.71750111533E+02  0.47473024724E+03  0.50191436164E+03  0.12509000000E+03 0.  0.
<mgrwt>
<rscale>  2 0.45629497E+03</rscale>
<asrwt>0</asrwt>
<pdfrwt beam="1">  1       21 0.15328440E+00 0.45629497E+03</pdfrwt>
<pdfrwt beam="2">  1       21 0.73437114E-02 0.45629497E+03</pdfrwt>
<totfact> 0.35404374E+04</totfact>
</mgrwt>
</event>
<event>
 7    0  0.4737014E-002  0.4599513E+03  0.7546771E-02  0.1024795E+00
         21   -1    0    0  502  501  0.00000000000E+00  0.00000000000E+00  0.14226570455E+03  0.14226570455E+03  0.00000000000E+00 0. -1.
         21   -1    0    0  501  502 -0.00000000000E+00 -0.00000000000E+00 -0.37176072964E+03  0.37176072964E+03  0.00000000000E+00 0. -1.
      99926    2    1    2    0    0  0.00000000000E+00  0.00000000000E+00 -0.22949502509E+03  0.51402643419E+03  0.45995131102E+03 0.  0.
      99925    2    3    3    0    0  0.10313677204E+03 -0.32697492707E+02 -0.91569926169E+02  0.29867286262E+03  0.26289562133E+03 0.  0.
         25    1    3    3    0    0 -0.10313677204E+03  0.32697492707E+02 -0.13792509892E+03  0.21535357157E+03  0.12509000000E+03 0.  0.
         25    1    4    4    0    0  0.42780217142E+02  0.19884803378E+02 -0.25370468173E+02  0.13607615934E+03  0.12509000000E+03 0.  0.
         25    1    4    4    0    0  0.60356554898E+02 -0.52582296085E+02 -0.66199457997E+02  0.16259670329E+03  0.12509000000E+03 0.  0.
<mgrwt>
<rscale>  2 0.45995131E+03</rscale>
<asrwt>0</asrwt>
<pdfrwt beam="1">  1       21 0.20921427E-01 0.45995131E+03</pdfrwt>
<pdfrwt beam="2">  1       21 0.54670696E-01 0.45995131E+03</pdfrwt>
<totfact> 0.61830570E+04</totfact>
</mgrwt>
</event>
<event>
 7    0  0.4737014E-002  0.4545737E+03  0.7546771E-02  0.1026367E+00
         21   -1    0    0  502  501  0.00000000000E+00  0.00000000000E+00  0.66861034140E+02  0.66861034140E+02  0.00000000000E+00 0. -1.
         21   -1    0    0  501  502 -0.00000000000E+00 -0.00000000000E+00 -0.77263700912E+03  0.77263700912E+03  0.00000000000E+00 0. -1.
      99926    2    1    2    0    0  0.00000000000E+00  0.00000000000E+00 -0.70577597498E+03  0.83949804326E+03  0.45457368795E+03 0.  0.
      99925    2    3    3    0    0 -0.44666523374E+02 -0.63851993853E+02 -0.29366987468E+03  0.40183250723E+03  0.26297374990E+03 0.  0.
         25    1    3    3    0    0  0.44666523374E+02  0.63851993853E+02 -0.41210610030E+03  0.43766553604E+03  0.12509000000E+03 0.  0.
         25    1    4    4    0    0 -0.39643792855E+02 -0.17157004005E+02 -0.19528764979E+03  0.23590414867E+03  0.12509000000E+03 0.  0.
         25    1    4    4    0    0 -0.50227305192E+01 -0.46694989848E+02 -0.98382224890E+02  0.16592835856E+03  0.12509000000E+03 0.  0.
<mgrwt>
<rscale>  2 0.45457369E+03</rscale>
<asrwt>0</asrwt>
<pdfrwt beam="1">  1       21 0.98325049E-02 0.45457369E+03</pdfrwt>
<pdfrwt beam="2">  1       21 0.11362309E+00 0.45457369E+03</pdfrwt>
<totfact> 0.46066763E+04</totfact>
</mgrwt>
</event>
<event>
 7    0  0.4737014E-002  0.4510390E+03  0.7546771E-02  0.1027413E+00
         21   -1    0    0  502  501  0.00000000000E+00  0.00000000000E+00  0.34285449086E+02  0.34285449086E+02  0.00000000000E+00 0.  1.
         21   -1    0    0  501  502 -0.00000000000E+00 -0.00000000000E+00 -0.14834003039E+04  0.14834003039E+04  0.00000000000E+00 0.  1.
      99926    2    1    2    0    0  0.88817841970E-15  0.00000000000E+00 -0.14491148548E+04  0.15176857529E+04  0.45103900316E+03 0.  0.
      99925    2    3    3    0    0 -0.64233575846E+01  0.64651024248E+02 -0.12117632426E+04  0.12416344708E+04  0.26280218523E+03 0.  0.
         25    1    4    4    0    0 -0.11140584577E+01  0.34503799437E+02 -0.79201004686E+03  0.80257035563E+03  0.12509000000E+03 0.  0.
         25    1    3    3    0    0  0.64233575846E+01 -0.64651024248E+02 -0.23735161216E+03  0.27605128211E+03  0.12509000000E+03 0.  0.
         25    1    4    4    0    0 -0.53092991269E+01  0.30147224811E+02 -0.41975319575E+03  0.43906411521E+03  0.12509000000E+03 0.  0.
<mgrwt>
<rscale>  2 0.45103900E+03</rscale>
<asrwt>0</asrwt>
<pdfrwt beam="1">  1       21 0.50419780E-02 0.45103900E+03</pdfrwt>
<pdfrwt beam="2">  1       21 0.21814710E+00 0.45103900E+03</pdfrwt>
<totfact> 0.24081367E+04</totfact>
</mgrwt>
</event>
<event>
 7    0  0.4737014E-002  0.4533775E+03  0.7546771E-02  0.1026720E+00
         21   -1    0    0  502  501  0.00000000000E+00  0.00000000000E+00  0.14849326226E+04  0.14849326226E+04  0.00000000000E+00 0.  1.
         21   -1    0    0  501  502 -0.00000000000E+00 -0.00000000000E+00 -0.34606136703E+02  0.34606136703E+02  0.00000000000E+00 0.  1.
      99926    2    1    2    0    0  0.88817841970E-15  0.00000000000E+00  0.14503264859E+04  0.15195387593E+04  0.45337746451E+03 0.  0.
      99925    2    3    3    0    0  0.67324672110E+01  0.10262509016E+03  0.76865810289E+03  0.81889867499E+03  0.26302571267E+03 0.  0.
         25    1    4    4    0    0 -0.22058209180E+02  0.47805362666E+02  0.28784083973E+03  0.31823226488E+03  0.12509000000E+03 0.  0.
         25    1    3    3    0    0 -0.67324672110E+01 -0.10262509016E+03  0.68166838301E+03  0.70064008431E+03  0.12509000000E+03 0.  0.
         25    1    4    4    0    0  0.28790676391E+02  0.54819727497E+02  0.48081726315E+03  0.50066641012E+03  0.12509000000E+03 0.  0.
<mgrwt>
<rscale>  2 0.45337746E+03</rscale>
<asrwt>0</asrwt>
<pdfrwt beam="1">  1       21 0.21837240E+00 0.45337746E+03</pdfrwt>
<pdfrwt beam="2">  1       21 0.50891387E-02 0.45337746E+03</pdfrwt>
<totfact> 0.23600313E+04</totfact>
</mgrwt>
</event>
<event>
 7    0  0.4737014E-002  0.4553504E+03  0.7546771E-02  0.1026138E+00
         21   -1    0    0  502  501  0.00000000000E+00  0.00000000000E+00  0.37597974757E+03  0.37597974757E+03  0.00000000000E+00 0. -1.
         21   -1    0    0  501  502 -0.00000000000E+00 -0.00000000000E+00 -0.13786914299E+03  0.13786914299E+03  0.00000000000E+00 0. -1.
      99926    2    1    2    0    0 -0.14210854715E-13 -0.71054273576E-14  0.23811060458E+03  0.51384889056E+03  0.45535043902E+03 0.  0.
      99925    2    3    3    0    0  0.88533602307E+02  0.46155033246E+02  0.21085665499E+03  0.35149504336E+03  0.26290635352E+03 0.  0.
         25    1    4    4    0    0  0.11053354132E+02  0.14848275204E+02  0.65935911534E+02  0.14261030974E+03  0.12509000000E+03 0.  0.
         25    1    3    3    0    0 -0.88533602307E+02 -0.46155033246E+02  0.27253949592E+02  0.16235384720E+03  0.12509000000E+03 0.  0.
         25    1    4    4    0    0  0.77480248175E+02  0.31306758042E+02  0.14492074346E+03  0.20888473362E+03  0.12509000000E+03 0.  0.
<mgrwt>
<rscale>  2 0.45535044E+03</rscale>
<asrwt>0</asrwt>
<pdfrwt beam="1">  1       21 0.55291139E-01 0.45535044E+03</pdfrwt>
<pdfrwt beam="2">  1       21 0.20274874E-01 0.45535044E+03</pdfrwt>
<totfact> 0.64129758E+04</totfact>
</mgrwt>
</event>
<event>
 7    0  0.4737014E-002  0.4498923E+03  0.7546771E-02  0.1027754E+00
         21   -1    0    0  502  501  0.00000000000E+00  0.00000000000E+00  0.82225067189E+02  0.82225067189E+02  0.00000000000E+00 0.  1.
         21   -1    0    0  501  502 -0.00000000000E+00 -0.00000000000E+00 -0.61539357925E+03  0.61539357925E+03  0.00000000000E+00 0.  1.
      99926    2    1    2    0    0  0.00000000000E+00 -0.88817841970E-15 -0.53316851206E+03  0.69761864644E+03  0.44989233557E+03 0.  0.
      99925    2    3    3    0    0 -0.97898091920E+02  0.56212629156E+01 -0.40823332917E+03  0.49545054059E+03  0.26306111862E+03 0.  0.
         25    1    4    4    0    0 -0.47025199828E+02 -0.29056180785E+02 -0.15773179396E+03  0.20876412045E+03  0.12509000000E+03 0.  0.
         25    1    3    3    0    0  0.97898091920E+02 -0.56212629156E+01 -0.12493518289E+03  0.20216810585E+03  0.12509000000E+03 0.  0.
         25    1    4    4    0    0 -0.50872892092E+02  0.34677443700E+02 -0.25050153521E+03  0.28668642014E+03  0.12509000000E+03 0.  0.
<mgrwt>
<rscale>  2 0.44989234E+03</rscale>
<asrwt>0</asrwt>
<pdfrwt beam="1">  1       21 0.12091922E-01 0.44989234E+03</pdfrwt>
<pdfrwt beam="2">  1       21 0.90499056E-01 0.44989234E+03</pdfrwt>
<totfact> 0.55218906E+04</totfact>
</mgrwt>
</event>
<event>
 7    0  0.4737014E-002  0.4132086E+03  0.7546771E-02  0.1039300E+00
         21   -1    0    0  502  501  0.00000000000E+00  0.00000000000E+00  0.76730517339E+03  0.76730517339E+03  0.00000000000E+00 0.  1.
         21   -1    0    0  501  502 -0.00000000000E+00 -0.00000000000E+00 -0.55630187935E+02  0.55630187935E+02  0.00000000000E+00 0.  1.
      99926    2    1    2    0    0  0.00000000000E+00  0.35527136788E-14  0.71167498545E+03  0.82293536132E+03  0.41320857202E+03 0.  0.
      99925    2    3    3    0    0  0.46880414472E+02 -0.25547123501E+02  0.54774812444E+03  0.60993312509E+03  0.26294482400E+03 0.  0.
         25    1    3    3    0    0 -0.46880414472E+02  0.25547123501E+02  0.16392686101E+03  0.21300223623E+03  0.12509000000E+03 0.  0.
         25    1    4    4    0    0  0.56240598623E+02 -0.30389284939E+02  0.24922011757E+03  0.28608510740E+03  0.12509000000E+03 0.  0.
         25    1    4    4    0    0 -0.93601841515E+01  0.48421614386E+01  0.29852800687E+03  0.32384801769E+03  0.12509000000E+03 0.  0.
<mgrwt>
<rscale>  2 0.41320857E+03</rscale>
<asrwt>0</asrwt>
<pdfrwt beam="1">  1       21 0.11283899E+00 0.41320857E+03</pdfrwt>
<pdfrwt beam="2">  1       21 0.81809105E-02 0.41320857E+03</pdfrwt>
<totfact> 0.65712501E+04</totfact>
</mgrwt>
</event>
<event>
 7    0  0.4737014E-002  0.4536772E+03  0.7546771E-02  0.1026631E+00
         21   -1    0    0  502  501  0.00000000000E+00  0.00000000000E+00  0.47634798896E+03  0.47634798896E+03  0.00000000000E+00 0. -1.
         21   -1    0    0  501  502 -0.00000000000E+00 -0.00000000000E+00 -0.10802132499E+03  0.10802132499E+03  0.00000000000E+00 0. -1.
      99926    2    1    2    0    0  0.00000000000E+00  0.00000000000E+00  0.36832666397E+03  0.58436931395E+03  0.45367715800E+03 0.  0.
      99925    2    3    3    0    0 -0.35267620108E+02 -0.10531562597E+03  0.21438283084E+03  0.35703388345E+03  0.26301712810E+03 0.  0.
         25    1    4    4    0    0  0.21732446166E+02 -0.39042792210E+02  0.10365100834E+03  0.16848643408E+03  0.12509000000E+03 0.  0.
         25    1    3    3    0    0  0.35267620108E+02  0.10531562597E+03  0.15394383312E+03  0.22733543049E+03  0.12509000000E+03 0.  0.
         25    1    4    4    0    0 -0.57000066273E+02 -0.66272833757E+02  0.11073182250E+03  0.18854744937E+03  0.12509000000E+03 0.  0.
<mgrwt>
<rscale>  2 0.45367716E+03</rscale>
<asrwt>0</asrwt>
<pdfrwt beam="1">  1       21 0.70051174E-01 0.45367716E+03</pdfrwt>
<pdfrwt beam="2">  1       21 0.15885489E-01 0.45367716E+03</pdfrwt>
<totfact> 0.60278687E+04</totfact>
</mgrwt>
</event>
<event>
 7    0  0.4737014E-002  0.4522539E+03  0.7546771E-02  0.1027052E+00
         21   -1    0    0  502  501  0.00000000000E+00  0.00000000000E+00  0.45746045434E+03  0.45746045434E+03  0.00000000000E+00 0.  1.
         21   -1    0    0  501  502 -0.00000000000E+00 -0.00000000000E+00 -0.11177664909E+03  0.11177664909E+03  0.00000000000E+00 0.  1.
      99926    2    1    2    0    0 -0.35527136788E-14  0.00000000000E+00  0.34568380525E+03  0.56923710342E+03  0.45225389628E+03 0.  0.
      99925    2    3    3    0    0 -0.22752700219E+02 -0.10294948325E+03  0.26040568745E+03  0.38474822315E+03  0.26287600060E+03 0.  0.
         25    1    4    4    0    0  0.22005702493E+02 -0.62367695773E+02  0.10430934748E+03  0.17578944362E+03  0.12509000000E+03 0.  0.
         25    1    4    4    0    0 -0.44758402712E+02 -0.40581787482E+02  0.15609633997E+03  0.20895877952E+03  0.12509000000E+03 0.  0.
         25    1    3    3    0    0  0.22752700219E+02  0.10294948325E+03  0.85278117803E+02  0.18448888028E+03  0.12509000000E+03 0.  0.
<mgrwt>
<rscale>  2 0.45225390E+03</rscale>
<asrwt>0</asrwt>
<pdfrwt beam="1">  1       21 0.67273596E-01 0.45225390E+03</pdfrwt>
<pdfrwt beam="2">  1       21 0.16437743E-01 0.45225390E+03</pdfrwt>
<totfact> 0.61947247E+04</totfact>
</mgrwt>
</event>
<event>
 7    0  0.4737014E-002  0.4508080E+03  0.7546771E-02  0.1027481E+00
         21   -1    0    0  502  501  0.00000000000E+00  0.00000000000E+00  0.77268640276E+02  0.77268640276E+02  0.00000000000E+00 0.  1.
         21   -1    0    0  501  502 -0.00000000000E+00 -0.00000000000E+00 -0.65753669483E+03  0.65753669483E+03  0.00000000000E+00 0.  1.
      99926    2    1    2    0    0  0.00000000000E+00  0.00000000000E+00 -0.58026805455E+03  0.73480533510E+03  0.45080801386E+03 0.  0.
      99925    2    3    3    0    0 -0.12483024656E+02 -0.67390015523E+02 -0.50505690174E+03  0.57355563524E+03  0.26303298773E+03 0.  0.
         25    1    4    4    0    0 -0.22633770638E+02 -0.70959899037E+02 -0.29128222620E+03  0.32563850854E+03  0.12509000000E+03 0.  0.
         25    1    4    4    0    0  0.10150745982E+02  0.35698835142E+01 -0.21377467554E+03  0.24791712670E+03  0.12509000000E+03 0.  0.
         25    1    3    3    0    0  0.12483024656E+02  0.67390015523E+02 -0.75211152815E+02  0.16124969986E+03  0.12509000000E+03 0.  0.
<mgrwt>
<rscale>  2 0.45080801E+03</rscale>
<asrwt>0</asrwt>
<pdfrwt beam="1">  1       21 0.11363036E-01 0.45080801E+03</pdfrwt>
<pdfrwt beam="2">  1       21 0.96696571E-01 0.45080801E+03</pdfrwt>
<totfact> 0.52771614E+04</totfact>
</mgrwt>
</event>
<event>
 7    0  0.4737014E-002  0.4594815E+03  0.7546771E-02  0.1024932E+00
         21   -1    0    0  502  501  0.00000000000E+00  0.00000000000E+00  0.99100422250E+02  0.99100422250E+02  0.00000000000E+00 0.  1.
         21   -1    0    0  501  502 -0.00000000000E+00 -0.00000000000E+00 -0.53259926107E+03  0.53259926107E+03  0.00000000000E+00 0.  1.
      99926    2    1    2    0    0  0.14210854715E-13  0.71054273576E-14 -0.43349883882E+03  0.63169968332E+03  0.45948149761E+03 0.  0.
      99925    2    3    3    0    0  0.10454388537E+03  0.34684923458E+02 -0.21590900909E+03  0.35760971636E+03  0.26293638232E+03 0.  0.
         25    1    4    4    0    0  0.20863339100E+02 -0.99164573701E+01 -0.82587672335E+02  0.15166359737E+03  0.12509000000E+03 0.  0.
         25    1    3    3    0    0 -0.10454388537E+03 -0.34684923458E+02 -0.21758982973E+03  0.27408996695E+03  0.12509000000E+03 0.  0.
         25    1    4    4    0    0  0.83680546266E+02  0.44601380828E+02 -0.13332133675E+03  0.20594611899E+03  0.12509000000E+03 0.  0.
<mgrwt>
<rscale>  2 0.45948150E+03</rscale>
<asrwt>0</asrwt>
<pdfrwt beam="1">  1       21 0.14573591E-01 0.45948150E+03</pdfrwt>
<pdfrwt beam="2">  1       21 0.78323421E-01 0.45948150E+03</pdfrwt>
<totfact> 0.54803641E+04</totfact>
</mgrwt>
</event>
<event>
 7    0  0.4737014E-002  0.4681223E+03  0.7546771E-02  0.1022452E+00
         21   -1    0    0  502  501  0.00000000000E+00  0.00000000000E+00  0.35388462237E+03  0.35388462237E+03  0.00000000000E+00 0. -1.
         21   -1    0    0  501  502 -0.00000000000E+00 -0.00000000000E+00 -0.15480928747E+03  0.15480928747E+03  0.00000000000E+00 0. -1.
      99926    2    1    2    0    0  0.14210854715E-13  0.00000000000E+00  0.19907533489E+03  0.50869390984E+03  0.46812231836E+03 0.  0.
      99925    2    3    3    0    0  0.10081194145E+03  0.56809759442E+02  0.17527256903E+03  0.33663439668E+03  0.26308144607E+03 0.  0.
         25    1    3    3    0    0 -0.10081194145E+03 -0.56809759442E+02  0.23802765870E+02  0.17205951316E+03  0.12509000000E+03 0.  0.
         25    1    4    4    0    0  0.10747775421E+02  0.29282518932E+02  0.59990392432E+02  0.14219471114E+03  0.12509000000E+03 0.  0.
         25    1    4    4    0    0  0.90064166030E+02  0.27527240510E+02  0.11528217659E+03  0.19443968554E+03  0.12509000000E+03 0.  0.
<mgrwt>
<rscale>  2 0.46812232E+03</rscale>
<asrwt>0</asrwt>
<pdfrwt beam="1">  1       21 0.52041856E-01 0.46812232E+03</pdfrwt>
<pdfrwt beam="2">  1       21 0.22766072E-01 0.46812232E+03</pdfrwt>
<totfact> 0.58345678E+04</totfact>
</mgrwt>
</event>
<event>
 7    0  0.4737014E-002  0.4491175E+03  0.7546771E-02  0.1027986E+00
         21   -1    0    0  502  501  0.00000000000E+00  0.00000000000E+00  0.32497459780E+03  0.32497459780E+03  0.00000000000E+00 0.  1.
         21   -1    0    0  501  502 -0.00000000000E+00 -0.00000000000E+00 -0.15517101527E+03  0.15517101527E+03  0.00000000000E+00 0.  1.
      99926    2    1    2    0    0  0.00000000000E+00  0.00000000000E+00  0.16980358253E+03  0.48014561307E+03  0.44911752705E+03 0.  0.
      99925    2    3    3    0    0 -0.42940536130E+02  0.98527857731E+02  0.11088245609E+03  0.30501470308E+03  0.26303501978E+03 0.  0.
         25    1    4    4    0    0 -0.32554065539E+02  0.80066387255E+02  0.89273009854E+02  0.17631668083E+03  0.12509000000E+03 0.  0.
         25    1    3    3    0    0  0.42940536130E+02 -0.98527857731E+02  0.58921126443E+02  0.17513090999E+03  0.12509000000E+03 0.  0.
         25    1    4    4    0    0 -0.10386470591E+02  0.18461470475E+02  0.21609446236E+02  0.12869802225E+03  0.12509000000E+03 0.  0.
<mgrwt>
<rscale>  2 0.44911753E+03</rscale>
<asrwt>0</asrwt>
<pdfrwt beam="1">  1       21 0.47790382E-01 0.44911753E+03</pdfrwt>
<pdfrwt beam="2">  1       21 0.22819267E-01 0.44911753E+03</pdfrwt>
<totfact> 0.69896815E+04</totfact>
</mgrwt>
</event>
<event>
 7    0  0.4737014E-002  0.4353870E+03  0.7546771E-02  0.1032172E+00
         21   -1    0    0  502  501  0.00000000000E+00  0.00000000000E+00  0.10210646340E+03  0.10210646340E+03  0.00000000000E+00 0.  1.
         21   -1    0    0  501  502 -0.00000000000E+00 -0.00000000000E+00 -0.46412787783E+03  0.46412787783E+03  0.00000000000E+00 0.  1.
      99926    2    1    2    0    0  0.00000000000E+00 -0.35527136788E-14 -0.36202141442E+03  0.56623434123E+03  0.43538698268E+03 0.  0.
      99925    2    3    3    0    0 -0.88976729761E+02  0.17201428503E+02 -0.26245193883E+03  0.38245638784E+03  0.26301924041E+03 0.  0.
         25    1    4    4    0    0 -0.77020382587E+02  0.19600244282E+02 -0.10826695184E+03  0.18353623585E+03  0.12509000000E+03 0.  0.
         25    1    3    3    0    0  0.88976729761E+02 -0.17201428503E+02 -0.99569475593E+02  0.18377795339E+03  0.12509000000E+03 0.  0.
         25    1    4    4    0    0 -0.11956347174E+02 -0.23988157795E+01 -0.15418498699E+03  0.19892015199E+03  0.12509000000E+03 0.  0.
<mgrwt>
<rscale>  2 0.43538698E+03</rscale>
<asrwt>0</asrwt>
<pdfrwt beam="1">  1       21 0.15015656E-01 0.43538698E+03</pdfrwt>
<pdfrwt beam="2">  1       21 0.68254101E-01 0.43538698E+03</pdfrwt>
<totfact> 0.71227786E+04</totfact>
</mgrwt>
</event>
<event>
 7    0  0.4737014E-002  0.4604470E+03  0.7546771E-02  0.1024652E+00
         21   -1    0    0  502  501  0.00000000000E+00  0.00000000000E+00  0.42104797415E+03  0.42104797415E+03  0.00000000000E+00 0. -1.
         21   -1    0    0  501  502 -0.00000000000E+00 -0.00000000000E+00 -0.12588318648E+03  0.12588318648E+03  0.00000000000E+00 0. -1.
      99926    2    1    2    0    0  0.00000000000E+00 -0.71054273576E-14  0.29516478767E+03  0.54693116063E+03  0.46044700301E+03 0.  0.
      99925    2    3    3    0    0  0.10027736175E+03 -0.62590052765E+02  0.18551281958E+03  0.34286223552E+03  0.26299513747E+03 0.  0.
         25    1    3    3    0    0 -0.10027736175E+03  0.62590052765E+02  0.10965196809E+03  0.20406892510E+03  0.12509000000E+03 0.  0.
         25    1    4    4    0    0  0.93371341910E+02 -0.33406285910E+02  0.10660205317E+03  0.19195232030E+03  0.12509000000E+03 0.  0.
         25    1    4    4    0    0  0.69060198443E+01 -0.29183766855E+02  0.78910766409E+02  0.15090991522E+03  0.12509000000E+03 0.  0.
<mgrwt>
<rscale>  2 0.46044700E+03</rscale>
<asrwt>0</asrwt>
<pdfrwt beam="1">  1       21 0.61918819E-01 0.46044700E+03</pdfrwt>
<pdfrwt beam="2">  1       21 0.18512233E-01 0.46044700E+03</pdfrwt>
<totfact> 0.59465062E+04</totfact>
</mgrwt>
</event>
<event>
 7    0  0.4737014E-002  0.4561599E+03  0.7546771E-02  0.1025901E+00
         21   -1    0    0  502  501  0.00000000000E+00  0.00000000000E+00  0.15254664589E+04  0.15254664589E+04  0.00000000000E+00 0.  1.
         21   -1    0    0  501  502 -0.00000000000E+00 -0.00000000000E+00 -0.34101344862E+02  0.34101344862E+02  0.00000000000E+00 0.  1.
      99926    2    1    2    0    0  0.00000000000E+00  0.00000000000E+00  0.14913651140E+04  0.15595678037E+04  0.45615987456E+03 0.  0.
      99925    2    3    3    0    0  0.26758988979E+01 -0.90220529314E+02  0.69777576944E+03  0.75112580813E+03  0.26296777535E+03 0.  0.
         25    1    4    4    0    0  0.27913656212E+01 -0.10878343303E+02  0.25544083010E+03  0.28464654549E+03  0.12509000000E+03 0.  0.
         25    1    3    3    0    0 -0.26758988979E+01  0.90220529314E+02  0.79358934456E+03  0.80844199559E+03  0.12509000000E+03 0.  0.
         25    1    4    4    0    0 -0.11546672326E+00 -0.79342186011E+02  0.44233493934E+03  0.46647926265E+03  0.12509000000E+03 0.  0.
<mgrwt>
<rscale>  2 0.45615987E+03</rscale>
<asrwt>0</asrwt>
<pdfrwt beam="1">  1       21 0.22433326E+00 0.45615987E+03</pdfrwt>
<pdfrwt beam="2">  1       21 0.50149047E-02 0.45615987E+03</pdfrwt>
<totfact> 0.22156030E+04</totfact>
</mgrwt>
</event>
<event>
 7    0  0.4737014E-002  0.4505674E+03  0.7546771E-02  0.1027553E+00
         21   -1    0    0  502  501  0.00000000000E+00  0.00000000000E+00  0.95794080628E+03  0.95794080628E+03  0.00000000000E+00 0.  1.
         21   -1    0    0  501  502 -0.00000000000E+00 -0.00000000000E+00 -0.52981094419E+02  0.52981094419E+02  0.00000000000E+00 0.  1.
      99926    2    1    2    0    0  0.00000000000E+00 -0.35527136788E-14  0.90495971186E+03  0.10109219007E+04  0.45056743027E+03 0.  0.
      99925    2    3    3    0    0 -0.81892939858E+02  0.21531674434E+02  0.41793781983E+03  0.50101220476E+03  0.26300407119E+03 0.  0.
         25    1    4    4    0    0 -0.67153204959E+01  0.31281890604E+02  0.21636625570E+03  0.25196332454E+03  0.12509000000E+03 0.  0.
         25    1    4    4    0    0 -0.75177619362E+02 -0.97502161708E+01  0.20157156414E+03  0.24904888022E+03  0.12509000000E+03 0.  0.
         25    1    3    3    0    0  0.81892939858E+02 -0.21531674434E+02  0.48702189203E+03  0.50990969594E+03  0.12509000000E+03 0.  0.
<mgrwt>
<rscale>  2 0.45056743E+03</rscale>
<asrwt>0</asrwt>
<pdfrwt beam="1">  1       21 0.14087364E+00 0.45056743E+03</pdfrwt>
<pdfrwt beam="2">  1       21 0.77913380E-02 0.45056743E+03</pdfrwt>
<totfact> 0.40115237E+04</totfact>
</mgrwt>
</event>
<event>
 7    0  0.4737014E-002  0.4540473E+03  0.7546771E-02  0.1026522E+00
         21   -1    0    0  502  501  0.00000000000E+00  0.00000000000E+00  0.10171156273E+03  0.10171156273E+03  0.00000000000E+00 0. -1.
         21   -1    0    0  501  502 -0.00000000000E+00 -0.00000000000E+00 -0.50672454008E+03  0.50672454008E+03  0.00000000000E+00 0. -1.
      99926    2    1    2    0    0  0.00000000000E+00  0.00000000000E+00 -0.40501297735E+03  0.60843610280E+03  0.45404733164E+03 0.  0.
      99925    2    3    3    0    0  0.54842050171E+02  0.87840915783E+02 -0.31299699524E+03  0.42178636127E+03  0.26308352014E+03 0.  0.
         25    1    4    4    0    0  0.39489147271E+02  0.40208392445E+02 -0.21554762557E+03  0.25550811056E+03  0.12509000000E+03 0.  0.
         25    1    3    3    0    0 -0.54842050171E+02 -0.87840915783E+02 -0.92015982111E+02  0.18664974154E+03  0.12509000000E+03 0.  0.
         25    1    4    4    0    0  0.15352902900E+02  0.47632523339E+02 -0.97449369673E+02  0.16627825070E+03  0.12509000000E+03 0.  0.
<mgrwt>
<rscale>  2 0.45404733E+03</rscale>
<asrwt>0</asrwt>
<pdfrwt beam="1">  1       21 0.14957583E-01 0.45404733E+03</pdfrwt>
<pdfrwt beam="2">  1       21 0.74518315E-01 0.45404733E+03</pdfrwt>
<totfact> 0.58601743E+04</totfact>
</mgrwt>
</event>
<event>
 7    0  0.4737014E-002  0.4567486E+03  0.7546771E-02  0.1025728E+00
         21   -1    0    0  502  501  0.00000000000E+00  0.00000000000E+00  0.22674567392E+03  0.22674567392E+03  0.00000000000E+00 0. -1.
         21   -1    0    0  501  502 -0.00000000000E+00 -0.00000000000E+00 -0.23001460464E+03  0.23001460464E+03  0.00000000000E+00 0. -1.
      99926    2    1    2    0    0  0.00000000000E+00  0.00000000000E+00 -0.32689307207E+01  0.45676027856E+03  0.45674858091E+03 0.  0.
      99925    2    3    3    0    0 -0.88931883371E+02 -0.72148344860E+02 -0.93179354908E+01  0.28705947684E+03  0.26306283617E+03 0.  0.
         25    1    4    4    0    0 -0.71931743370E+02 -0.11516846606E+02  0.12624749241E+02  0.14530556030E+03  0.12509000000E+03 0.  0.
         25    1    3    3    0    0  0.88931883371E+02  0.72148344860E+02  0.60490047701E+01  0.16970080172E+03  0.12509000000E+03 0.  0.
         25    1    4    4    0    0 -0.17000140000E+02 -0.60631498255E+02 -0.21942684732E+02  0.14175391654E+03  0.12509000000E+03 0.  0.
<mgrwt>
<rscale>  2 0.45674858E+03</rscale>
<asrwt>0</asrwt>
<pdfrwt beam="1">  1       21 0.33344952E-01 0.45674858E+03</pdfrwt>
<pdfrwt beam="2">  1       21 0.33825677E-01 0.45674858E+03</pdfrwt>
<totfact> 0.67470758E+04</totfact>
</mgrwt>
</event>
<event>
 7    0  0.4737014E-002  0.4519916E+03  0.7546771E-02  0.1027130E+00
         21   -1    0    0  502  501  0.00000000000E+00  0.00000000000E+00  0.17173214548E+04  0.17173214548E+04  0.00000000000E+00 0.  1.
         21   -1    0    0  501  502 -0.00000000000E+00 -0.00000000000E+00 -0.29740562781E+02  0.29740562781E+02  0.00000000000E+00 0.  1.
      99926    2    1    2    0    0  0.00000000000E+00  0.00000000000E+00  0.16875808920E+04  0.17470620175E+04  0.45199162179E+03 0.  0.
      99925    2    3    3    0    0  0.92837262282E+02  0.59621751997E+02  0.10865070899E+04  0.11232746064E+04  0.26282061284E+03 0.  0.
         25    1    4    4    0    0  0.65501600143E+02  0.54566780272E+02  0.69631477065E+03  0.71257965243E+03  0.12509000000E+03 0.  0.
         25    1    4    4    0    0  0.27335662140E+02  0.50549717253E+01  0.39019231921E+03  0.41069495399E+03  0.12509000000E+03 0.  0.
         25    1    3    3    0    0 -0.92837262282E+02 -0.59621751997E+02  0.60107380211E+03  0.62378741111E+03  0.12509000000E+03 0.  0.
<mgrwt>
<rscale>  2 0.45199162E+03</rscale>
<asrwt>0</asrwt>
<pdfrwt beam="1">  1       21 0.25254721E+00 0.45199162E+03</pdfrwt>
<pdfrwt beam="2">  1       21 0.43736133E-02 0.45199162E+03</pdfrwt>
<totfact> 0.18732915E+04</totfact>
</mgrwt>
</event>
<event>
 6    0  0.4737014E-002  0.4368716E+03  0.7546771E-02  0.1031711E+00
         21   -1    0    0  502  501  0.00000000000E+00  0.00000000000E+00  0.25003821020E+03  0.25003821020E+03  0.00000000000E+00 0.  1.
         21   -1    0    0  501  502 -0.00000000000E+00 -0.00000000000E+00 -0.19082764414E+03  0.19082764414E+03  0.00000000000E+00 0.  1.
      99926    2    1    2    0    0  0.00000000000E+00 -0.17763568394E-14  0.59210566067E+02  0.44086585434E+03  0.43687161774E+03 0.  0.
         25    1    3    3    0    0 -0.22736945211E+02 -0.23305437380E+02  0.59930669345E+01  0.12939682005E+03  0.12509000000E+03 0.  0.
         25    1    3    3    0    0  0.86843038007E+02 -0.13173477446E+02 -0.98129237366E+01  0.15316349216E+03  0.12509000000E+03 0.  0.
         25    1    3    3    0    0 -0.64106092797E+02  0.36478914826E+02  0.63030422869E+02  0.15830554213E+03  0.12509000000E+03 0.  0.
<mgrwt>
<rscale>  2 0.43687162E+03</rscale>
<asrwt>0</asrwt>
<pdfrwt beam="1">  1       21 0.36770325E-01 0.43687162E+03</pdfrwt>
<pdfrwt beam="2">  1       21 0.28062889E-01 0.43687162E+03</pdfrwt>
<totfact> 0.80640811E+04</totfact>
</mgrwt>
</event>
<event>
 7    0  0.4737014E-002  0.4580715E+03  0.7546771E-02  0.1025342E+00
         21   -1    0    0  502  501  0.00000000000E+00  0.00000000000E+00  0.14824662287E+03  0.14824662287E+03  0.00000000000E+00 0. -1.
         21   -1    0    0  501  502 -0.00000000000E+00 -0.00000000000E+00 -0.35385208757E+03  0.35385208757E+03  0.00000000000E+00 0. -1.
      99926    2    1    2    0    0  0.00000000000E+00  0.00000000000E+00 -0.20560546470E+03  0.50209871044E+03  0.45807150960E+03 0.  0.
      99925    2    3    3    0    0  0.61731101399E+02  0.97971560858E+02 -0.12451804978E+03  0.31333475049E+03  0.26318200076E+03 0.  0.
         25    1    3    3    0    0 -0.61731101399E+02 -0.97971560858E+02 -0.81087414920E+02  0.18876395995E+03  0.12509000000E+03 0.  0.
         25    1    4    4    0    0  0.16603663925E+01  0.29315350863E+02 -0.83269742888E+02  0.15311271924E+03  0.12509000000E+03 0.  0.
         25    1    4    4    0    0  0.60070735007E+02  0.68656209996E+02 -0.41248306895E+02  0.16022203125E+03  0.12509000000E+03 0.  0.
<mgrwt>
<rscale>  2 0.45807151E+03</rscale>
<asrwt>0</asrwt>
<pdfrwt beam="1">  1       21 0.21800974E-01 0.45807151E+03</pdfrwt>
<pdfrwt beam="2">  1       21 0.52037071E-01 0.45807151E+03</pdfrwt>
<totfact> 0.63559590E+04</totfact>
</mgrwt>
</event>
<event>
 7    0  0.4737014E-002  0.4784909E+03  0.7546771E-02  0.1019551E+00
         21   -1    0    0  502  501  0.00000000000E+00  0.00000000000E+00  0.24922935342E+02  0.24922935342E+02  0.00000000000E+00 0. -1.
         21   -1    0    0  501  502 -0.00000000000E+00 -0.00000000000E+00 -0.22966153942E+04  0.22966153942E+04  0.00000000000E+00 0. -1.
      99926    2    1    2    0    0  0.00000000000E+00  0.00000000000E+00 -0.22716924589E+04  0.23215383296E+04  0.47849094861E+03 0.  0.
      99925    2    3    3    0    0  0.38031361967E+02  0.81824626972E+02 -0.92072811071E+03  0.96179797486E+03  0.26300843433E+03 0.  0.
         25    1    4    4    0    0  0.20027104815E+02  0.54639286166E+02 -0.60699221418E+03  0.62247376868E+03  0.12509000000E+03 0.  0.
         25    1    4    4    0    0  0.18004257152E+02  0.27185340806E+02 -0.31373589653E+03  0.33932420618E+03  0.12509000000E+03 0.  0.
         25    1    3    3    0    0 -0.38031361967E+02 -0.81824626972E+02 -0.13509643482E+04  0.13597403547E+04  0.12509000000E+03 0.  0.
<mgrwt>
<rscale>  2 0.47849095E+03</rscale>
<asrwt>0</asrwt>
<pdfrwt beam="1">  1       21 0.36651361E-02 0.47849095E+03</pdfrwt>
<pdfrwt beam="2">  1       21 0.33773770E+00 0.47849095E+03</pdfrwt>
<totfact> 0.76418997E+03</totfact>
</mgrwt>
</event>
<event>
 7    0  0.4737014E-002  0.4513206E+03  0.7546771E-02  0.1027329E+00
         21   -1    0    0  502  501  0.00000000000E+00  0.00000000000E+00  0.25412887922E+02  0.25412887922E+02  0.00000000000E+00 0. -1.
         21   -1    0    0  501  502 -0.00000000000E+00 -0.00000000000E+00 -0.20038092655E+04  0.20038092655E+04  0.00000000000E+00 0. -1.
      99926    2    1    2    0    0  0.00000000000E+00  0.00000000000E+00 -0.19783963776E+04  0.20292221534E+04  0.45132064115E+03 0.  0.
      99925    2    3    3    0    0 -0.36037932784E+02 -0.47153498389E+02 -0.16638336564E+04  0.16855371252E+04  0.26300338219E+03 0.  0.
         25    1    3    3    0    0  0.36037932784E+02  0.47153498389E+02 -0.31456272116E+03  0.34368502827E+03  0.12509000000E+03 0.  0.
         25    1    4    4    0    0 -0.49180872570E+02 -0.64107635378E+01 -0.71709886165E+03  0.72961506398E+03  0.12509000000E+03 0.  0.
         25    1    4    4    0    0  0.13142939785E+02 -0.40742734852E+02 -0.94673479477E+03  0.95592206117E+03  0.12509000000E+03 0.  0.
<mgrwt>
<rscale>  2 0.45132064E+03</rscale>
<asrwt>0</asrwt>
<pdfrwt beam="1">  1       21 0.37371880E-02 0.45132064E+03</pdfrwt>
<pdfrwt beam="2">  1       21 0.29467794E+00 0.45132064E+03</pdfrwt>
<totfact> 0.13623381E+04</totfact>
</mgrwt>
</event>
<event>
 7    0  0.5034252E-002  0.4214087E+03  0.7546771E-02  0.1036609E+00
         21   -1    0    0  502  501  0.00000000000E+00  0.00000000000E+00  0.23058881741E+03  0.23058881741E+03  0.00000000000E+00 0. -1.
         21   -1    0    0  501  502 -0.00000000000E+00 -0.00000000000E+00 -0.19253460032E+03  0.19253460032E+03  0.00000000000E+00 0. -1.
      99926    2    1    2    0    0  0.35527136788E-14 -0.71054273576E-14  0.38054217096E+02  0.42312341773E+03  0.42140871277E+03 0.  0.
      99925    2    3    3    0    0 -0.31130892877E+02  0.35393878326E+02 -0.37696181642E+02  0.26947612643E+03  0.26263000875E+03 0.  0.
         25    1    4    4    0    0  0.31145493739E+01 -0.12201412672E+02  0.19910439777E+01  0.12573801034E+03  0.12509000000E+03 0.  0.
         25    1    3    3    0    0  0.31130892877E+02 -0.35393878326E+02  0.75750398738E+02  0.15364729130E+03  0.12509000000E+03 0.  0.
         25    1    4    4    0    0 -0.34245442251E+02  0.47595290998E+02 -0.39687225619E+02  0.14373811609E+03  0.12509000000E+03 0.  0.
<mgrwt>
<rscale>  2 0.42140871E+03</rscale>
<asrwt>0</asrwt>
<pdfrwt beam="1">  1       21 0.33910120E-01 0.42140871E+03</pdfrwt>
<pdfrwt beam="2">  1       21 0.28313912E-01 0.42140871E+03</pdfrwt>
<totfact> 0.93637135E+04</totfact>
</mgrwt>
</event>
<event>
 7    0  0.4737014E-002  0.4628167E+03  0.7546771E-02  0.1023967E+00
         21   -1    0    0  502  501  0.00000000000E+00  0.00000000000E+00  0.17905718837E+04  0.17905718837E+04  0.00000000000E+00 0.  1.
         21   -1    0    0  501  502 -0.00000000000E+00 -0.00000000000E+00 -0.29906546765E+02  0.29906546765E+02  0.00000000000E+00 0.  1.
      99926    2    1    2    0    0  0.00000000000E+00 -0.14210854715E-13  0.17606653370E+04  0.18204784305E+04  0.46281668845E+03 0.  0.
      99925    2    3    3    0    0 -0.41874215806E+02  0.64712791179E+02  0.14639255499E+04  0.14893542776E+04  0.26297709659E+03 0.  0.
         25    1    3    3    0    0  0.41874215806E+02 -0.64712791179E+02  0.29673978712E+03  0.33112415292E+03  0.12509000000E+03 0.  0.
         25    1    4    4    0    0 -0.51964616111E+02  0.53469476360E+02  0.88233271294E+03  0.89426943963E+03  0.12509000000E+03 0.  0.
         25    1    4    4    0    0  0.10090400305E+02  0.11243314819E+02  0.58159283692E+03  0.59508483795E+03  0.12509000000E+03 0.  0.
<mgrwt>
<rscale>  2 0.46281669E+03</rscale>
<asrwt>0</asrwt>
<pdfrwt beam="1">  1       21 0.26331932E+00 0.46281669E+03</pdfrwt>
<pdfrwt beam="2">  1       21 0.43980228E-02 0.46281669E+03</pdfrwt>
<totfact> 0.15883336E+04</totfact>
</mgrwt>
</event>
<event>
 7    0  0.4737014E-002  0.4584444E+03  0.7546771E-02  0.1025233E+00
         21   -1    0    0  502  501  0.00000000000E+00  0.00000000000E+00  0.35287396477E+03  0.35287396477E+03  0.00000000000E+00 0.  1.
         21   -1    0    0  501  502 -0.00000000000E+00 -0.00000000000E+00 -0.14889964922E+03  0.14889964922E+03  0.00000000000E+00 0.  1.
      99926    2    1    2    0    0 -0.35527136788E-14  0.14210854715E-13  0.20397431555E+03  0.50177361399E+03  0.45844436772E+03 0.  0.
      99925    2    3    3    0    0 -0.19463792744E+02  0.10030618040E+03  0.18913523719E+03  0.33957658751E+03  0.26286869685E+03 0.  0.
         25    1    3    3    0    0  0.19463792744E+02 -0.10030618040E+03  0.14839078365E+02  0.16219702649E+03  0.12509000000E+03 0.  0.
         25    1    4    4    0    0  0.20706322846E+02  0.73326822697E+02  0.11578570102E+03  0.18670675240E+03  0.12509000000E+03 0.  0.
         25    1    4    4    0    0 -0.40170115590E+02  0.26979357705E+02  0.73349536168E+02  0.15286983510E+03  0.12509000000E+03 0.  0.
<mgrwt>
<rscale>  2 0.45844437E+03</rscale>
<asrwt>0</asrwt>
<pdfrwt beam="1">  1       21 0.51893230E-01 0.45844437E+03</pdfrwt>
<pdfrwt beam="2">  1       21 0.21897007E-01 0.45844437E+03</pdfrwt>
<totfact> 0.63395102E+04</totfact>
</mgrwt>
</event>
<event>
 7    0  0.4737014E-002  0.4802377E+03  0.7546771E-02  0.1019070E+00
         21   -1    0    0  502  501  0.00000000000E+00  0.00000000000E+00  0.24421051446E+03  0.24421051446E+03  0.00000000000E+00 0.  1.
         21   -1    0    0  501  502 -0.00000000000E+00 -0.00000000000E+00 -0.23609574656E+03  0.23609574656E+03  0.00000000000E+00 0.  1.
      99926    2    1    2    0    0  0.71054273576E-14  0.14210854715E-13  0.81147679063E+01  0.48030626102E+03  0.48023770668E+03 0.  0.
      99925    2    3    3    0    0 -0.53413500244E+02 -0.91552319428E+02  0.89296076139E+02  0.29735068689E+03  0.26307567842E+03 0.  0.
         25    1    3    3    0    0  0.53413500244E+02  0.91552319428E+02 -0.81181308232E+02  0.18295557414E+03  0.12509000000E+03 0.  0.
         25    1    4    4    0    0 -0.45858679694E+01 -0.79633443337E+02  0.55215620268E+02  0.15829967879E+03  0.12509000000E+03 0.  0.
         25    1    4    4    0    0 -0.48827632275E+02 -0.11918876091E+02  0.34080455870E+02  0.13905100810E+03  0.12509000000E+03 0.  0.
<mgrwt>
<rscale>  2 0.48023771E+03</rscale>
<asrwt>0</asrwt>
<pdfrwt beam="1">  1       21 0.35913311E-01 0.48023771E+03</pdfrwt>
<pdfrwt beam="2">  1       21 0.34719963E-01 0.48023771E+03</pdfrwt>
<totfact> 0.54829189E+04</totfact>
</mgrwt>
</event>
<event>
 7    0  0.4737014E-002  0.4625257E+03  0.7546771E-02  0.1024051E+00
         21   -1    0    0  502  501  0.00000000000E+00  0.00000000000E+00  0.17237147358E+03  0.17237147358E+03  0.00000000000E+00 0.  1.
         21   -1    0    0  501  502 -0.00000000000E+00 -0.00000000000E+00 -0.31027474996E+03  0.31027474996E+03  0.00000000000E+00 0.  1.
      99926    2    1    2    0    0 -0.26645352591E-14  0.35527136788E-14 -0.13790327638E+03  0.48264622355E+03  0.46252574357E+03 0.  0.
      99925    2    3    3    0    0  0.46633237960E+01 -0.20000756918E+02 -0.20989762838E+03  0.33686394861E+03  0.26267570997E+03 0.  0.
         25    1    3    3    0    0 -0.46633237960E+01  0.20000756918E+02  0.71994351997E+02  0.14578227494E+03  0.12509000000E+03 0.  0.
         25    1    4    4    0    0 -0.29038534734E+02 -0.20499128563E+02 -0.13395432107E+03  0.18669418578E+03  0.12509000000E+03 0.  0.
         25    1    4    4    0    0  0.33701858530E+02  0.49837164464E+00 -0.75943307313E+02  0.15016976283E+03  0.12509000000E+03 0.  0.
<mgrwt>
<rscale>  2 0.46252574E+03</rscale>
<asrwt>0</asrwt>
<pdfrwt beam="1">  1       21 0.25348746E-01 0.46252574E+03</pdfrwt>
<pdfrwt beam="2">  1       21 0.45628639E-01 0.46252574E+03</pdfrwt>
<totfact> 0.62679541E+04</totfact>
</mgrwt>
</event>
<event>
 7    0  0.4737014E-002  0.4442875E+03  0.7546771E-02  0.1029439E+00
         21   -1    0    0  502  501  0.00000000000E+00  0.00000000000E+00  0.14775413742E+04  0.14775413742E+04  0.00000000000E+00 0. -1.
         21   -1    0    0  501  502 -0.00000000000E+00 -0.00000000000E+00 -0.33398624958E+02  0.33398624958E+02  0.00000000000E+00 0. -1.
      99926    2    1    2    0    0  0.00000000000E+00  0.00000000000E+00  0.14441427493E+04  0.15109399992E+04  0.44428752050E+03 0.  0.
      99925    2    3    3    0    0 -0.88802028188E+02  0.39023689916E+02  0.80155564877E+03  0.84914370242E+03  0.26295421788E+03 0.  0.
         25    1    3    3    0    0  0.88802028188E+02 -0.39023689916E+02  0.64258710049E+03  0.66179629676E+03  0.12509000000E+03 0.  0.
         25    1    4    4    0    0 -0.18327757478E+01  0.16519918018E+02  0.35095028456E+03  0.37294755274E+03  0.12509000000E+03 0.  0.
         25    1    4    4    0    0 -0.86969252440E+02  0.22503771899E+02  0.45060536421E+03  0.47619614969E+03  0.12509000000E+03 0.  0.
<mgrwt>
<rscale>  2 0.44428752E+03</rscale>
<asrwt>0</asrwt>
<pdfrwt beam="1">  1       21 0.21728545E+00 0.44428752E+03</pdfrwt>
<pdfrwt beam="2">  1       21 0.49115635E-02 0.44428752E+03</pdfrwt>
<totfact> 0.25575014E+04</totfact>
</mgrwt>
</event>
<event>
 7    0  0.4737014E-002  0.4517170E+03  0.7546771E-02  0.1027211E+00
         21   -1    0    0  502  501  0.00000000000E+00  0.00000000000E+00  0.13724763810E+04  0.13724763810E+04  0.00000000000E+00 0. -1.
         21   -1    0    0  501  502 -0.00000000000E+00 -0.00000000000E+00 -0.37167897563E+02  0.37167897563E+02  0.00000000000E+00 0. -1.
      99926    2    1    2    0    0  0.35527136788E-14  0.71054273576E-14  0.13353084834E+04  0.14096442785E+04  0.45171699785E+03 0.  0.
      99925    2    3    3    0    0 -0.23389748770E+02 -0.63526614421E+02  0.57060816320E+03  0.63182887697E+03  0.26273816391E+03 0.  0.
         25    1    4    4    0    0 -0.22819213487E+02 -0.48137897611E+02  0.21333403472E+03  0.25297607033E+03  0.12509000000E+03 0.  0.
         25    1    4    4    0    0 -0.57053528280E+00 -0.15388716810E+02  0.35727412848E+03  0.37885280664E+03  0.12509000000E+03 0.  0.
         25    1    3    3    0    0  0.23389748770E+02  0.63526614421E+02  0.76470032021E+03  0.77781540157E+03  0.12509000000E+03 0.  0.
<mgrwt>
<rscale>  2 0.45171700E+03</rscale>
<asrwt>0</asrwt>
<pdfrwt beam="1">  1       21 0.20183473E+00 0.45171700E+03</pdfrwt>
<pdfrwt beam="2">  1       21 0.54658682E-02 0.45171700E+03</pdfrwt>
<totfact> 0.26752152E+04</totfact>
</mgrwt>
</event>
<event>
 7    0  0.4737014E-002  0.4568985E+03  0.7546771E-02  0.1025685E+00
         21   -1    0    0  502  501  0.00000000000E+00  0.00000000000E+00  0.36165064059E+03  0.36165064059E+03  0.00000000000E+00 0. -1.
         21   -1    0    0  501  502 -0.00000000000E+00 -0.00000000000E+00 -0.14430794610E+03  0.14430794610E+03  0.00000000000E+00 0. -1.
      99926    2    1    2    0    0  0.00000000000E+00  0.00000000000E+00  0.21734269450E+03  0.50595858669E+03  0.45689850579E+03 0.  0.
      99925    2    3    3    0    0  0.43973720588E+02  0.46540684898E+02  0.24225604699E+03  0.36324241141E+03  0.26297781978E+03 0.  0.
         25    1    4    4    0    0  0.55237813244E+02  0.45127141654E+02  0.14534196457E+03  0.20459586919E+03  0.12509000000E+03 0.  0.
         25    1    4    4    0    0 -0.11264092656E+02  0.14135432446E+01  0.96914082417E+02  0.15864654222E+03  0.12509000000E+03 0.  0.
         25    1    3    3    0    0 -0.43973720588E+02 -0.46540684898E+02 -0.24913352489E+02  0.14271617528E+03  0.12509000000E+03 0.  0.
<mgrwt>
<rscale>  2 0.45689851E+03</rscale>
<asrwt>0</asrwt>
<pdfrwt beam="1">  1       21 0.53183918E-01 0.45689851E+03</pdfrwt>
<pdfrwt beam="2">  1       21 0.21221757E-01 0.45689851E+03</pdfrwt>
<totfact> 0.63885908E+04</totfact>
</mgrwt>
</event>
<event>
 7    0  0.4737014E-002  0.4555695E+03  0.7546771E-02  0.1026074E+00
         21   -1    0    0  502  501  0.00000000000E+00  0.00000000000E+00  0.12180216093E+04  0.12180216093E+04  0.00000000000E+00 0. -1.
         21   -1    0    0  501  502 -0.00000000000E+00 -0.00000000000E+00 -0.42598494358E+02  0.42598494358E+02  0.00000000000E+00 0. -1.
      99926    2    1    2    0    0  0.00000000000E+00  0.00000000000E+00  0.11754231149E+04  0.12606201036E+04  0.45556947505E+03 0.  0.
      99925    2    3    3    0    0  0.62658723580E+02  0.89864374619E+02  0.82333217450E+03  0.87123949306E+03  0.26302217251E+03 0.  0.
         25    1    3    3    0    0 -0.62658723580E+02 -0.89864374619E+02  0.35209094040E+03  0.38938061056E+03  0.12509000000E+03 0.  0.
         25    1    4    4    0    0  0.40706090113E+02  0.75975394018E+01  0.33427395078E+03  0.35930668049E+03  0.12509000000E+03 0.  0.
         25    1    4    4    0    0  0.21952633467E+02  0.82266835217E+02  0.48905822372E+03  0.51193281257E+03  0.12509000000E+03 0.  0.
<mgrwt>
<rscale>  2 0.45556948E+03</rscale>
<asrwt>0</asrwt>
<pdfrwt beam="1">  1       21 0.17912080E+00 0.45556948E+03</pdfrwt>
<pdfrwt beam="2">  1       21 0.62644852E-02 0.45556948E+03</pdfrwt>
<totfact> 0.30146302E+04</totfact>
</mgrwt>
</event>
<event>
 7    0  0.4737014E-002  0.4537003E+03  0.7546771E-02  0.1026624E+00
         21   -1    0    0  502  501  0.00000000000E+00  0.00000000000E+00  0.11494183766E+04  0.11494183766E+04  0.00000000000E+00 0.  1.
         21   -1    0    0  501  502 -0.00000000000E+00 -0.00000000000E+00 -0.44771335195E+02  0.44771335195E+02  0.00000000000E+00 0.  1.
      99926    2    1    2    0    0  0.00000000000E+00  0.00000000000E+00  0.11046470414E+04  0.11941897118E+04  0.45370032143E+03 0.  0.
      99925    2    3    3    0    0  0.88763513080E+02  0.65372108053E+02  0.74705833461E+03  0.79963975919E+03  0.26301162601E+03 0.  0.
         25    1    4    4    0    0  0.15169662362E+02  0.35270587649E+02  0.26910582283E+03  0.29923165773E+03  0.12509000000E+03 0.  0.
         25    1    4    4    0    0  0.73593850718E+02  0.30101520405E+02  0.47795251178E+03  0.50040810146E+03  0.12509000000E+03 0.  0.
         25    1    3    3    0    0 -0.88763513080E+02 -0.65372108053E+02  0.35758870677E+03  0.39454995258E+03  0.12509000000E+03 0.  0.
<mgrwt>
<rscale>  2 0.45370032E+03</rscale>
<asrwt>0</asrwt>
<pdfrwt beam="1">  1       21 0.16903210E+00 0.45370032E+03</pdfrwt>
<pdfrwt beam="2">  1       21 0.65840206E-02 0.45370032E+03</pdfrwt>
<totfact> 0.32670175E+04</totfact>
</mgrwt>
</event>
<event>
 7    0  0.4737014E-002  0.4521300E+03  0.7546771E-02  0.1027089E+00
         21   -1    0    0  502  501  0.00000000000E+00  0.00000000000E+00  0.16767522509E+03  0.16767522509E+03  0.00000000000E+00 0. -1.
         21   -1    0    0  501  502 -0.00000000000E+00 -0.00000000000E+00 -0.30478791829E+03  0.30478791829E+03  0.00000000000E+00 0. -1.
      99926    2    1    2    0    0  0.00000000000E+00  0.00000000000E+00 -0.13711269320E+03  0.47246314338E+03  0.45212999372E+03 0.  0.
      99925    2    3    3    0    0  0.10446769616E+03  0.34732045696E+02 -0.76490540068E+02  0.29514318374E+03  0.26294273454E+03 0.  0.
         25    1    4    4    0    0  0.19677037279E+02  0.42842635352E+02 -0.38439787281E+02  0.13909637862E+03  0.12509000000E+03 0.  0.
         25    1    3    3    0    0 -0.10446769616E+03 -0.34732045696E+02 -0.60622153132E+02  0.17731995965E+03  0.12509000000E+03 0.  0.
         25    1    4    4    0    0  0.84790658881E+02 -0.81105896555E+01 -0.38050752788E+02  0.15604680511E+03  0.12509000000E+03 0.  0.
<mgrwt>
<rscale>  2 0.45212999E+03</rscale>
<asrwt>0</asrwt>
<pdfrwt beam="1">  1       21 0.24658122E-01 0.45212999E+03</pdfrwt>
<pdfrwt beam="2">  1       21 0.44821752E-01 0.45212999E+03</pdfrwt>
<totfact> 0.68806734E+04</totfact>
</mgrwt>
</event>
<event>
 7    0  0.4737014E-002  0.4543881E+03  0.7546771E-02  0.1026421E+00
         21   -1    0    0  502  501  0.00000000000E+00  0.00000000000E+00  0.29549460837E+03  0.29549460837E+03  0.00000000000E+00 0.  1.
         21   -1    0    0  501  502 -0.00000000000E+00 -0.00000000000E+00 -0.17468045937E+03  0.17468045937E+03  0.00000000000E+00 0.  1.
      99926    2    1    2    0    0  0.00000000000E+00  0.00000000000E+00  0.12081414900E+03  0.47017506774E+03  0.45438808933E+03 0.  0.
      99925    2    3    3    0    0 -0.84426962968E+02  0.70414716001E+02  0.50833504424E+02  0.28953469844E+03  0.26298317840E+03 0.  0.
         25    1    3    3    0    0  0.84426962968E+02 -0.70414716001E+02  0.69980644580E+02  0.18064036930E+03  0.12509000000E+03 0.  0.
         25    1    4    4    0    0 -0.21972437418E+02  0.54324268893E+02  0.55133587368E+02  0.14873175435E+03  0.12509000000E+03 0.  0.
         25    1    4    4    0    0 -0.62454525550E+02  0.16090447108E+02 -0.43000829443E+01  0.14080294409E+03  0.12509000000E+03 0.  0.
<mgrwt>
<rscale>  2 0.45438809E+03</rscale>
<asrwt>0</asrwt>
<pdfrwt beam="1">  1       21 0.43455089E-01 0.45438809E+03</pdfrwt>
<pdfrwt beam="2">  1       21 0.25688303E-01 0.45438809E+03</pdfrwt>
<totfact> 0.67750986E+04</totfact>
</mgrwt>
</event>
<event>
 7    0  0.4737014E-002  0.4410244E+03  0.7546771E-02  0.1030433E+00
         21   -1    0    0  502  501  0.00000000000E+00  0.00000000000E+00  0.16396819216E+04  0.16396819216E+04  0.00000000000E+00 0.  1.
         21   -1    0    0  501  502 -0.00000000000E+00 -0.00000000000E+00 -0.29655520715E+02  0.29655520715E+02  0.00000000000E+00 0.  1.
      99926    2    1    2    0    0 -0.88817841970E-15  0.88817841970E-15  0.16100264009E+04  0.16693374424E+04  0.44102435848E+03 0.  0.
      99925    2    3    3    0    0 -0.67289927368E+01 -0.76618794926E+01  0.65016050856E+03  0.70130127404E+03  0.26269907944E+03 0.  0.
         25    1    4    4    0    0 -0.18335657392E+02 -0.12968835339E+01  0.42475253614E+03  0.44317051266E+03  0.12509000000E+03 0.  0.
         25    1    4    4    0    0  0.11606664655E+02 -0.63649959588E+01  0.22540797243E+03  0.25813076138E+03  0.12509000000E+03 0.  0.
         25    1    3    3    0    0  0.67289927368E+01  0.76618794926E+01  0.95986589236E+03  0.96803616831E+03  0.12509000000E+03 0.  0.
<mgrwt>
<rscale>  2 0.44102436E+03</rscale>
<asrwt>0</asrwt>
<pdfrwt beam="1">  1       21 0.24112963E+00 0.44102436E+03</pdfrwt>
<pdfrwt beam="2">  1       21 0.43611071E-02 0.44102436E+03</pdfrwt>
<totfact> 0.22222800E+04</totfact>
</mgrwt>
</event>
<event>
 7    0  0.4737014E-002  0.4530214E+03  0.7546771E-02  0.1026825E+00
         21   -1    0    0  502  501  0.00000000000E+00  0.00000000000E+00  0.49479407345E+02  0.49479407345E+02  0.00000000000E+00 0. -1.
         21   -1    0    0  501  502 -0.00000000000E+00 -0.00000000000E+00 -0.10369381931E+04  0.10369381931E+04  0.00000000000E+00 0. -1.
      99926    2    1    2    0    0  0.00000000000E+00  0.00000000000E+00 -0.98745878578E+03  0.10864176005E+04  0.45302135600E+03 0.  0.
      99925    2    3    3    0    0 -0.92650488962E+02 -0.38090681308E+02 -0.50591031301E+03  0.57890262253E+03  0.26296005106E+03 0.  0.
         25    1    3    3    0    0  0.92650488962E+02  0.38090681308E+02 -0.48154847277E+03  0.50751497794E+03  0.12509000000E+03 0.  0.
         25    1    4    4    0    0 -0.66585054351E+02 -0.42608158150E+02 -0.32780792095E+03  0.35965895754E+03  0.12509000000E+03 0.  0.
         25    1    4    4    0    0 -0.26065434610E+02  0.45174768426E+01 -0.17810239206E+03  0.21924366499E+03  0.12509000000E+03 0.  0.
<mgrwt>
<rscale>  2 0.45302136E+03</rscale>
<asrwt>0</asrwt>
<pdfrwt beam="1">  1       21 0.72763837E-02 0.45302136E+03</pdfrwt>
<pdfrwt beam="2">  1       21 0.15249091E+00 0.45302136E+03</pdfrwt>
<totfact> 0.36529474E+04</totfact>
</mgrwt>
</event>
<event>
 7    0  0.4737014E-002  0.4732070E+03  0.7546771E-02  0.1021019E+00
         21   -1    0    0  502  501  0.00000000000E+00  0.00000000000E+00  0.29795828828E+03  0.29795828828E+03  0.00000000000E+00 0. -1.
         21   -1    0    0  501  502 -0.00000000000E+00 -0.00000000000E+00 -0.18788274684E+03  0.18788274684E+03  0.00000000000E+00 0. -1.
      99926    2    1    2    0    0  0.00000000000E+00 -0.14210854715E-13  0.11007554144E+03  0.48584103512E+03  0.47320702296E+03 0.  0.
      99925    2    3    3    0    0 -0.75059500513E+02  0.10210974710E+03  0.88816870550E+02  0.30650958707E+03  0.26457392427E+03 0.  0.
         25    1    4    4    0    0  0.37256753598E+01  0.32909919900E+02  0.28557163564E+02  0.13251401124E+03  0.12509000000E+03 0.  0.
         25    1    3    3    0    0  0.75059500513E+02 -0.10210974710E+03  0.21258670894E+02  0.17933144805E+03  0.12509000000E+03 0.  0.
         25    1    4    4    0    0 -0.78785175873E+02  0.69199827200E+02  0.60259706986E+02  0.17399557583E+03  0.12509000000E+03 0.  0.
<mgrwt>
<rscale>  2 0.47320702E+03</rscale>
<asrwt>0</asrwt>
<pdfrwt beam="1">  1       21 0.43817396E-01 0.47320702E+03</pdfrwt>
<pdfrwt beam="2">  1       21 0.27629816E-01 0.47320702E+03</pdfrwt>
<totfact> 0.57506604E+04</totfact>
</mgrwt>
</event>
<event>
 7    0  0.4737014E-002  0.4457796E+03  0.7546771E-02  0.1028988E+00
         21   -1    0    0  502  501  0.00000000000E+00  0.00000000000E+00  0.38681040119E+03  0.38681040119E+03  0.00000000000E+00 0. -1.
         21   -1    0    0  501  502 -0.00000000000E+00 -0.00000000000E+00 -0.12843465535E+03  0.12843465535E+03  0.00000000000E+00 0. -1.
      99926    2    1    2    0    0  0.00000000000E+00  0.35527136788E-14  0.25837574584E+03  0.51524505654E+03  0.44577958932E+03 0.  0.
      99925    2    3    3    0    0  0.97063485780E+02  0.28531434479E+02  0.19385720083E+03  0.34190863863E+03  0.26284128258E+03 0.  0.
         25    1    3    3    0    0 -0.97063485780E+02 -0.28531434479E+02  0.64518545008E+02  0.17333641791E+03  0.12509000000E+03 0.  0.
         25    1    4    4    0    0  0.71801329053E+02 -0.18953212300E+02  0.10104775600E+03  0.17712372004E+03  0.12509000000E+03 0.  0.
         25    1    4    4    0    0  0.25262156726E+02  0.47484646779E+02  0.92809444830E+02  0.16478491858E+03  0.12509000000E+03 0.  0.
<mgrwt>
<rscale>  2 0.44577959E+03</rscale>
<asrwt>0</asrwt>
<pdfrwt beam="1">  1       21 0.56883882E-01 0.44577959E+03</pdfrwt>
<pdfrwt beam="2">  1       21 0.18887449E-01 0.44577959E+03</pdfrwt>
<totfact> 0.69132734E+04</totfact>
</mgrwt>
</event>
<event>
 7    0  0.4737014E-002  0.4659992E+03  0.7546771E-02  0.1023056E+00
         21   -1    0    0  502  501  0.00000000000E+00  0.00000000000E+00  0.48434176523E+02  0.48434176523E+02  0.00000000000E+00 0. -1.
         21   -1    0    0  501  502 -0.00000000000E+00 -0.00000000000E+00 -0.11208783742E+04  0.11208783742E+04  0.00000000000E+00 0. -1.
      99926    2    1    2    0    0 -0.71054273576E-14  0.00000000000E+00 -0.10724441977E+04  0.11693125508E+04  0.46599923192E+03 0.  0.
      99925    2    3    3    0    0 -0.50324468346E+02  0.97596386894E+02 -0.80850054734E+03  0.85726869883E+03  0.26301878281E+03 0.  0.
         25    1    3    3    0    0  0.50324468346E+02 -0.97596386894E+02 -0.26394365038E+03  0.31204385192E+03  0.12509000000E+03 0.  0.
         25    1    4    4    0    0  0.61686547120E+01  0.30705545443E+02 -0.30537890789E+03  0.33148856437E+03  0.12509000000E+03 0.  0.
         25    1    4    4    0    0 -0.56493123058E+02  0.66890841451E+02 -0.50312163945E+03  0.52578013447E+03  0.12509000000E+03 0.  0.
<mgrwt>
<rscale>  2 0.46599923E+03</rscale>
<asrwt>0</asrwt>
<pdfrwt beam="1">  1       21 0.71226728E-02 0.46599923E+03</pdfrwt>
<pdfrwt beam="2">  1       21 0.16483506E+00 0.46599923E+03</pdfrwt>
<totfact> 0.30449361E+04</totfact>
</mgrwt>
</event>
<event>
 7    0  0.4737014E-002  0.4523099E+03  0.7546771E-02  0.1027035E+00
         21   -1    0    0  502  501  0.00000000000E+00  0.00000000000E+00  0.20747302269E+04  0.20747302269E+04  0.00000000000E+00 0. -1.
         21   -1    0    0  501  502 -0.00000000000E+00 -0.00000000000E+00 -0.24651906516E+02  0.24651906516E+02  0.00000000000E+00 0. -1.
      99926    2    1    2    0    0 -0.14210854715E-13  0.00000000000E+00  0.20500783204E+04  0.20993821335E+04  0.45230987431E+03 0.  0.
      99925    2    3    3    0    0 -0.72271521862E+02  0.13322531484E+02  0.90945409347E+03  0.94956832334E+03  0.26300682471E+03 0.  0.
         25    1    3    3    0    0  0.72271521862E+02 -0.13322531484E+02  0.11406242269E+04  0.11498138101E+04  0.12509000000E+03 0.  0.
         25    1    4    4    0    0 -0.47006488359E+02  0.45940334333E+02  0.46110628903E+03  0.48227237340E+03  0.12509000000E+03 0.  0.
         25    1    4    4    0    0 -0.25265033503E+02 -0.32617802850E+02  0.44834780445E+03  0.46729594994E+03  0.12509000000E+03 0.  0.
<mgrwt>
<rscale>  2 0.45230987E+03</rscale>
<asrwt>0</asrwt>
<pdfrwt beam="1">  1       21 0.30510727E+00 0.45230987E+03</pdfrwt>
<pdfrwt beam="2">  1       21 0.36252818E-02 0.45230987E+03</pdfrwt>
<totfact> 0.12411434E+04</totfact>
</mgrwt>
</event>
<event>
 7    0  0.4737014E-002  0.4512545E+03  0.7546771E-02  0.1027349E+00
         21   -1    0    0  502  501  0.00000000000E+00  0.00000000000E+00  0.62229538713E+02  0.62229538713E+02  0.00000000000E+00 0.  1.
         21   -1    0    0  501  502 -0.00000000000E+00 -0.00000000000E+00 -0.81806247806E+03  0.81806247806E+03  0.00000000000E+00 0.  1.
      99926    2    1    2    0    0 -0.35527136788E-14  0.00000000000E+00 -0.75583293934E+03  0.88029201677E+03  0.45125447653E+03 0.  0.
      99925    2    3    3    0    0 -0.24841381528E+02 -0.96668800131E+02 -0.56577729080E+03  0.63183556425E+03  0.26296442024E+03 0.  0.
         25    1    4    4    0    0  0.11815729156E+02 -0.28342073079E+02 -0.32562861193E+03  0.35017764859E+03  0.12509000000E+03 0.  0.
         25    1    3    3    0    0  0.24841381528E+02  0.96668800131E+02 -0.19005564854E+03  0.24845645252E+03  0.12509000000E+03 0.  0.
         25    1    4    4    0    0 -0.36657110684E+02 -0.68326727052E+02 -0.24014867887E+03  0.28165791566E+03  0.12509000000E+03 0.  0.
<mgrwt>
<rscale>  2 0.45125448E+03</rscale>
<asrwt>0</asrwt>
<pdfrwt beam="1">  1       21 0.91514023E-02 0.45125448E+03</pdfrwt>
<pdfrwt beam="2">  1       21 0.12030331E+00 0.45125448E+03</pdfrwt>
<totfact> 0.45414406E+04</totfact>
</mgrwt>
</event>
<event>
 7    0  0.4737014E-002  0.4417166E+03  0.7546771E-02  0.1030221E+00
         21   -1    0    0  502  501  0.00000000000E+00  0.00000000000E+00  0.31900272152E+02  0.31900272152E+02  0.00000000000E+00 0. -1.
         21   -1    0    0  501  502 -0.00000000000E+00 -0.00000000000E+00 -0.15290902925E+04  0.15290902925E+04  0.00000000000E+00 0. -1.
      99926    2    1    2    0    0  0.00000000000E+00  0.00000000000E+00 -0.14971900204E+04  0.15609905647E+04  0.44171663531E+03 0.  0.
      99925    2    3    3    0    0 -0.46816404782E+02  0.63432216397E+02 -0.11724882551E+04  0.12042074845E+04  0.26300482035E+03 0.  0.
         25    1    4    4    0    0  0.68804063352E+01  0.10490890963E+02 -0.45788569033E+03  0.47483071961E+03  0.12509000000E+03 0.  0.
         25    1    4    4    0    0 -0.53696811117E+02  0.52941325433E+02 -0.71460256480E+03  0.72937676490E+03  0.12509000000E+03 0.  0.
         25    1    3    3    0    0  0.46816404782E+02 -0.63432216397E+02 -0.32470176526E+03  0.35678308017E+03  0.12509000000E+03 0.  0.
<mgrwt>
<rscale>  2 0.44171664E+03</rscale>
<asrwt>0</asrwt>
<pdfrwt beam="1">  1       21 0.46912150E-02 0.44171664E+03</pdfrwt>
<pdfrwt beam="2">  1       21 0.22486629E+00 0.44171664E+03</pdfrwt>
<totfact> 0.24782973E+04</totfact>
</mgrwt>
</event>
<event>
 7    0  0.4737014E-002  0.4509649E+03  0.7546771E-02  0.1027435E+00
         21   -1    0    0  502  501  0.00000000000E+00  0.00000000000E+00  0.10343264216E+03  0.10343264216E+03  0.00000000000E+00 0.  1.
         21   -1    0    0  501  502 -0.00000000000E+00 -0.00000000000E+00 -0.49155012379E+03  0.49155012379E+03  0.00000000000E+00 0.  1.
      99926    2    1    2    0    0  0.14210854715E-13  0.00000000000E+00 -0.38811748163E+03  0.59498276595E+03  0.45096486807E+03 0.  0.
      99925    2    3    3    0    0  0.97012887153E+02  0.37408915370E+02 -0.19968093791E+03  0.34605151775E+03  0.26280838790E+03 0.  0.
         25    1    4    4    0    0  0.62850710364E+02  0.18227503283E+02 -0.14969200417E+03  0.20576116709E+03  0.12509000000E+03 0.  0.
         25    1    3    3    0    0 -0.97012887153E+02 -0.37408915370E+02 -0.18843654372E+03  0.24893124820E+03  0.12509000000E+03 0.  0.
         25    1    4    4    0    0  0.34162176789E+02  0.19181412087E+02 -0.49988933745E+02  0.14029035066E+03  0.12509000000E+03 0.  0.
<mgrwt>
<rscale>  2 0.45096487E+03</rscale>
<asrwt>0</asrwt>
<pdfrwt beam="1">  1       21 0.15210683E-01 0.45096487E+03</pdfrwt>
<pdfrwt beam="2">  1       21 0.72286783E-01 0.45096487E+03</pdfrwt>
<totfact> 0.60907174E+04</totfact>
</mgrwt>
</event>
<event>
 7    0  0.4737014E-002  0.4448013E+03  0.7546771E-02  0.1029284E+00
         21   -1    0    0  502  501  0.00000000000E+00  0.00000000000E+00  0.68636497629E+02  0.68636497629E+02  0.00000000000E+00 0.  1.
         21   -1    0    0  501  502 -0.00000000000E+00 -0.00000000000E+00 -0.72063756251E+03  0.72063756251E+03  0.00000000000E+00 0.  1.
      99926    2    1    2    0    0  0.17763568394E-14  0.00000000000E+00 -0.65200106488E+03  0.78927406014E+03  0.44480125158E+03 0.  0.
      99925    2    3    3    0    0  0.15221073785E+02 -0.94641543626E+02 -0.34560182482E+03  0.44472115379E+03  0.26295927525E+03 0.  0.
         25    1    4    4    0    0 -0.27764853131E+02 -0.66190889306E+02 -0.18973498901E+03  0.23832539741E+03  0.12509000000E+03 0.  0.
         25    1    3    3    0    0 -0.15221073785E+02  0.94641543626E+02 -0.30639924006E+03  0.34455290635E+03  0.12509000000E+03 0.  0.
         25    1    4    4    0    0  0.42985926915E+02 -0.28450654320E+02 -0.15586683581E+03  0.20639575638E+03  0.12509000000E+03 0.  0.
<mgrwt>
<rscale>  2 0.44480125E+03</rscale>
<asrwt>0</asrwt>
<pdfrwt beam="1">  1       21 0.10093603E-01 0.44480125E+03</pdfrwt>
<pdfrwt beam="2">  1       21 0.10597611E+00 0.44480125E+03</pdfrwt>
<totfact> 0.52354675E+04</totfact>
</mgrwt>
</event>
<event>
 7    0  0.4737014E-002  0.4550257E+03  0.7546771E-02  0.1026234E+00
         21   -1    0    0  502  501  0.00000000000E+00  0.00000000000E+00  0.40906153348E+03  0.40906153348E+03  0.00000000000E+00 0. -1.
         21   -1    0    0  501  502 -0.00000000000E+00 -0.00000000000E+00 -0.12653865423E+03  0.12653865423E+03  0.00000000000E+00 0. -1.
      99926    2    1    2    0    0  0.00000000000E+00  0.00000000000E+00  0.28252287925E+03  0.53560018771E+03  0.45502569573E+03 0.  0.
      99925    2    3    3    0    0 -0.40938157517E+01  0.10734215771E+03  0.13585504064E+03  0.31492381577E+03  0.26302342010E+03 0.  0.
         25    1    3    3    0    0  0.40938157517E+01 -0.10734215771E+03  0.14666783860E+03  0.22067637194E+03  0.12509000000E+03 0.  0.
         25    1    4    4    0    0  0.28763003722E+02  0.28310886904E+02  0.76975471401E+02  0.15232054358E+03  0.12509000000E+03 0.  0.
         25    1    4    4    0    0 -0.32856819474E+02  0.79031270807E+02  0.58879569244E+02  0.16260327219E+03  0.12509000000E+03 0.  0.
<mgrwt>
<rscale>  2 0.45502570E+03</rscale>
<asrwt>0</asrwt>
<pdfrwt beam="1">  1       21 0.60156107E-01 0.45502570E+03</pdfrwt>
<pdfrwt beam="2">  1       21 0.18608626E-01 0.45502570E+03</pdfrwt>
<totfact> 0.62815433E+04</totfact>
</mgrwt>
</event>
<event>
 7    0  0.4737014E-002  0.4513278E+03  0.7546771E-02  0.1027327E+00
         21   -1    0    0  502  501  0.00000000000E+00  0.00000000000E+00  0.19510402799E+03  0.19510402799E+03  0.00000000000E+00 0.  1.
         21   -1    0    0  501  502 -0.00000000000E+00 -0.00000000000E+00 -0.26101051969E+03  0.26101051969E+03  0.00000000000E+00 0.  1.
      99926    2    1    2    0    0  0.00000000000E+00  0.00000000000E+00 -0.65906491700E+02  0.45611454768E+03  0.45132783534E+03 0.  0.
      99925    2    3    3    0    0  0.26815910329E+02 -0.98622909243E+02 -0.81894593005E+02  0.29379172501E+03  0.26298532668E+03 0.  0.
         25    1    4    4    0    0  0.66121006728E+01 -0.83324351586E+02 -0.19434526766E+02  0.15169665907E+03  0.12509000000E+03 0.  0.
         25    1    4    4    0    0  0.20203809657E+02 -0.15298557657E+02 -0.62460066239E+02  0.14209506594E+03  0.12509000000E+03 0.  0.
         25    1    3    3    0    0 -0.26815910329E+02  0.98622909243E+02  0.15988101305E+02  0.16232282266E+03  0.12509000000E+03 0.  0.
<mgrwt>
<rscale>  2 0.45132784E+03</rscale>
<asrwt>0</asrwt>
<pdfrwt beam="1">  1       21 0.28691769E-01 0.45132784E+03</pdfrwt>
<pdfrwt beam="2">  1       21 0.38383900E-01 0.45132784E+03</pdfrwt>
<totfact> 0.70506904E+04</totfact>
</mgrwt>
</event>
<event>
 7    0  0.4737014E-002  0.4480828E+03  0.7546771E-02  0.1028295E+00
         21   -1    0    0  502  501  0.00000000000E+00  0.00000000000E+00  0.29828164313E+03  0.29828164313E+03  0.00000000000E+00 0.  1.
         21   -1    0    0  501  502 -0.00000000000E+00 -0.00000000000E+00 -0.16827902329E+03  0.16827902329E+03  0.00000000000E+00 0.  1.
      99926    2    1    2    0    0  0.71054273576E-14  0.00000000000E+00  0.13000261984E+03  0.46656066641E+03  0.44808277615E+03 0.  0.
      99925    2    3    3    0    0  0.54136928068E+02 -0.11676670180E+02 -0.12517167558E+02  0.26900928194E+03  0.26294897353E+03 0.  0.
         25    1    3    3    0    0 -0.54136928068E+02  0.11676670180E+02  0.14251978740E+03  0.19755138447E+03  0.12509000000E+03 0.  0.
         25    1    4    4    0    0  0.19936620237E+02  0.29653354575E+01 -0.45112989557E+02  0.13449517451E+03  0.12509000000E+03 0.  0.
         25    1    4    4    0    0  0.34200307831E+02 -0.14642005638E+02  0.32595821999E+02  0.13451410743E+03  0.12509000000E+03 0.  0.
<mgrwt>
<rscale>  2 0.44808278E+03</rscale>
<asrwt>0</asrwt>
<pdfrwt beam="1">  1       21 0.43864947E-01 0.44808278E+03</pdfrwt>
<pdfrwt beam="2">  1       21 0.24746915E-01 0.44808278E+03</pdfrwt>
<totfact> 0.71538428E+04</totfact>
</mgrwt>
</event>
<event>
 7    0  0.4737014E-002  0.4532352E+03  0.7546771E-02  0.1026762E+00
         21   -1    0    0  502  501  0.00000000000E+00  0.00000000000E+00  0.93251691421E+02  0.93251691421E+02  0.00000000000E+00 0. -1.
         21   -1    0    0  501  502 -0.00000000000E+00 -0.00000000000E+00 -0.55071966807E+03  0.55071966807E+03  0.00000000000E+00 0. -1.
      99926    2    1    2    0    0 -0.14210854715E-13  0.00000000000E+00 -0.45746797665E+03  0.64397135949E+03  0.45323521728E+03 0.  0.
      99925    2    3    3    0    0 -0.75218452351E+02 -0.76286351084E+02 -0.33198565227E+03  0.43691884256E+03  0.26307067251E+03 0.  0.
         25    1    3    3    0    0  0.75218452351E+02  0.76286351084E+02 -0.12548232438E+03  0.20705251693E+03  0.12509000000E+03 0.  0.
         25    1    4    4    0    0 -0.10873211651E+01 -0.54835787249E+02 -0.14720190829E+03  0.20080850514E+03  0.12509000000E+03 0.  0.
         25    1    4    4    0    0 -0.74131131186E+02 -0.21450563835E+02 -0.18478374398E+03  0.23611033742E+03  0.12509000000E+03 0.  0.
<mgrwt>
<rscale>  2 0.45323522E+03</rscale>
<asrwt>0</asrwt>
<pdfrwt beam="1">  1       21 0.13713485E-01 0.45323522E+03</pdfrwt>
<pdfrwt beam="2">  1       21 0.80988183E-01 0.45323522E+03</pdfrwt>
<totfact> 0.56837469E+04</totfact>
</mgrwt>
</event>
<event>
 7    0  0.4737014E-002  0.4200003E+03  0.7546771E-02  0.1037066E+00
         21   -1    0    0  502  501  0.00000000000E+00  0.00000000000E+00  0.54833102048E+02  0.54833102048E+02  0.00000000000E+00 0. -1.
         21   -1    0    0  501  502 -0.00000000000E+00 -0.00000000000E+00 -0.80425980672E+03  0.80425980672E+03  0.00000000000E+00 0. -1.
      99926    2    1    2    0    0 -0.17763568394E-14  0.00000000000E+00 -0.74942670467E+03  0.85909290877E+03  0.42000028598E+03 0.  0.
      99925    2    3    3    0    0  0.13280345152E+02 -0.70987509843E+02 -0.53593571996E+03  0.60133041581E+03  0.26297448342E+03 0.  0.
         25    1    4    4    0    0  0.28757798093E+02 -0.59196725345E+02 -0.22630135276E+03  0.26681655421E+03  0.12509000000E+03 0.  0.
         25    1    3    3    0    0 -0.13280345152E+02  0.70987509843E+02 -0.21349098471E+03  0.25776249295E+03  0.12509000000E+03 0.  0.
         25    1    4    4    0    0 -0.15477452941E+02 -0.11790784498E+02 -0.30963436720E+03  0.33451386160E+03  0.12509000000E+03 0.  0.
<mgrwt>
<rscale>  2 0.42000029E+03</rscale>
<asrwt>0</asrwt>
<pdfrwt beam="1">  1       21 0.80636919E-02 0.42000029E+03</pdfrwt>
<pdfrwt beam="2">  1       21 0.11827349E+00 0.42000029E+03</pdfrwt>
<totfact> 0.59843305E+04</totfact>
</mgrwt>
</event>
<event>
 7    0  0.4737014E-002  0.4525585E+03  0.7546771E-02  0.1026962E+00
         21   -1    0    0  502  501  0.00000000000E+00  0.00000000000E+00  0.48776670912E+02  0.48776670912E+02  0.00000000000E+00 0.  1.
         21   -1    0    0  501  502 -0.00000000000E+00 -0.00000000000E+00 -0.10497290864E+04  0.10497290864E+04  0.00000000000E+00 0.  1.
      99926    2    1    2    0    0  0.00000000000E+00  0.00000000000E+00 -0.10009524155E+04  0.10985057573E+04  0.45255846116E+03 0.  0.
      99925    2    3    3    0    0  0.39086644492E+02  0.10342867257E+03 -0.61140589626E+03  0.67469063862E+03  0.26299245573E+03 0.  0.
         25    1    4    4    0    0  0.46413118370E+02  0.24004495571E+02 -0.32503972656E+03  0.35217712207E+03  0.12509000000E+03 0.  0.
         25    1    3    3    0    0 -0.39086644492E+02 -0.10342867257E+03 -0.38954651921E+03  0.42381511867E+03  0.12509000000E+03 0.  0.
         25    1    4    4    0    0 -0.73264738774E+01  0.79424176997E+02 -0.28636616969E+03  0.32251351655E+03  0.12509000000E+03 0.  0.
<mgrwt>
<rscale>  2 0.45255846E+03</rscale>
<asrwt>0</asrwt>
<pdfrwt beam="1">  1       21 0.71730404E-02 0.45255846E+03</pdfrwt>
<pdfrwt beam="2">  1       21 0.15437191E+00 0.45255846E+03</pdfrwt>
<totfact> 0.36231287E+04</totfact>
</mgrwt>
</event>
<event>
 7    0  0.4737014E-002  0.4546954E+03  0.7546771E-02  0.1026331E+00
         21   -1    0    0  502  501  0.00000000000E+00  0.00000000000E+00  0.14025098186E+03  0.14025098186E+03  0.00000000000E+00 0.  1.
         21   -1    0    0  501  502 -0.00000000000E+00 -0.00000000000E+00 -0.36853194772E+03  0.36853194772E+03  0.00000000000E+00 0.  1.
      99926    2    1    2    0    0 -0.13322676296E-14  0.00000000000E+00 -0.22828096586E+03  0.50878292958E+03  0.45469535962E+03 0.  0.
      99925    2    3    3    0    0 -0.28045681417E+01  0.68920112303E+02 -0.45131468930E+02  0.27651348733E+03  0.26394130352E+03 0.  0.
         25    1    3    3    0    0  0.28045681417E+01 -0.68920112303E+02 -0.18314949693E+03  0.23226944226E+03  0.12509000000E+03 0.  0.
         25    1    4    4    0    0 -0.15008543381E+02  0.17787717682E+02  0.14964652456E+02  0.12811365344E+03  0.12509000000E+03 0.  0.
         25    1    4    4    0    0  0.12203975239E+02  0.51132394621E+02 -0.60096121386E+02  0.14839983388E+03  0.12509000000E+03 0.  0.
<mgrwt>
<rscale>  2 0.45469536E+03</rscale>
<asrwt>0</asrwt>
<pdfrwt beam="1">  1       21 0.20625145E-01 0.45469536E+03</pdfrwt>
<pdfrwt beam="2">  1       21 0.54195874E-01 0.45469536E+03</pdfrwt>
<totfact> 0.64814500E+04</totfact>
</mgrwt>
</event>
<event>
 7    0  0.4737014E-002  0.4555413E+03  0.7546771E-02  0.1026082E+00
         21   -1    0    0  502  501  0.00000000000E+00  0.00000000000E+00  0.40585468694E+03  0.40585468694E+03  0.00000000000E+00 0.  1.
         21   -1    0    0  501  502 -0.00000000000E+00 -0.00000000000E+00 -0.12782768604E+03  0.12782768604E+03  0.00000000000E+00 0.  1.
      99926    2    1    2    0    0  0.14210854715E-13  0.00000000000E+00  0.27802700090E+03  0.53368237299E+03  0.45554128464E+03 0.  0.
      99925    2    3    3    0    0 -0.85771616957E+02 -0.80519285780E+01  0.26178623220E+03  0.38093135172E+03  0.26297349586E+03 0.  0.
         25    1    3    3    0    0  0.85771616957E+02  0.80519285780E+01  0.16240768698E+02  0.15275102126E+03  0.12509000000E+03 0.  0.
         25    1    4    4    0    0 -0.73180759378E+02 -0.32553886290E+02  0.14572692862E+03  0.20808417739E+03  0.12509000000E+03 0.  0.
         25    1    4    4    0    0 -0.12590857579E+02  0.24501957712E+02  0.11605930359E+03  0.17284717434E+03  0.12509000000E+03 0.  0.
<mgrwt>
<rscale>  2 0.45554128E+03</rscale>
<asrwt>0</asrwt>
<pdfrwt beam="1">  1       21 0.59684512E-01 0.45554128E+03</pdfrwt>
<pdfrwt beam="2">  1       21 0.18798189E-01 0.45554128E+03</pdfrwt>
<totfact> 0.62688524E+04</totfact>
</mgrwt>
</event>
<event>
 7    0  0.4737014E-002  0.4461884E+03  0.7546771E-02  0.1028865E+00
         21   -1    0    0  502  501  0.00000000000E+00  0.00000000000E+00  0.20517721802E+03  0.20517721802E+03  0.00000000000E+00 0.  1.
         21   -1    0    0  501  502 -0.00000000000E+00 -0.00000000000E+00 -0.24257576415E+03  0.24257576415E+03  0.00000000000E+00 0.  1.
      99926    2    1    2    0    0  0.00000000000E+00  0.00000000000E+00 -0.37398546130E+02  0.44775298218E+03  0.44618839272E+03 0.  0.
      99925    2    3    3    0    0 -0.68794712268E+02 -0.78886692929E+02 -0.23528242082E+02  0.28405901103E+03  0.26302114138E+03 0.  0.
         25    1    4    4    0    0 -0.29404312951E+02 -0.56700632947E+02  0.24637809341E+02  0.14259770386E+03  0.12509000000E+03 0.  0.
         25    1    4    4    0    0 -0.39390399316E+02 -0.22186059982E+02 -0.48166051423E+02  0.14146130717E+03  0.12509000000E+03 0.  0.
         25    1    3    3    0    0  0.68794712268E+02  0.78886692929E+02 -0.13870304048E+02  0.16369397115E+03  0.12509000000E+03 0.  0.
<mgrwt>
<rscale>  2 0.44618839E+03</rscale>
<asrwt>0</asrwt>
<pdfrwt beam="1">  1       21 0.30173121E-01 0.44618839E+03</pdfrwt>
<pdfrwt beam="2">  1       21 0.35672906E-01 0.44618839E+03</pdfrwt>
<totfact> 0.74158171E+04</totfact>
</mgrwt>
</event>
<event>
 7    0  0.4737014E-002  0.4574592E+03  0.7546771E-02  0.1025521E+00
         21   -1    0    0  502  501  0.00000000000E+00  0.00000000000E+00  0.11103771620E+04  0.11103771620E+04  0.00000000000E+00 0. -1.
         21   -1    0    0  501  502 -0.00000000000E+00 -0.00000000000E+00 -0.47116621981E+02  0.47116621981E+02  0.00000000000E+00 0. -1.
      99926    2    1    2    0    0  0.35527136788E-14  0.00000000000E+00  0.10632605401E+04  0.11574937840E+04  0.45745916102E+03 0.  0.
      99925    2    3    3    0    0 -0.27070963286E+02 -0.81998984554E+02  0.86149032502E+03  0.90487668583E+03  0.26302008656E+03 0.  0.
         25    1    4    4    0    0 -0.41051970247E+02 -0.11406189579E+02  0.38841359554E+03  0.41027794813E+03  0.12509000000E+03 0.  0.
         25    1    4    4    0    0  0.13981006962E+02 -0.70592794975E+02  0.47307672948E+03  0.49459873770E+03  0.12509000000E+03 0.  0.
         25    1    3    3    0    0  0.27070963286E+02  0.81998984554E+02  0.20177021503E+03  0.25261709818E+03  0.12509000000E+03 0.  0.
<mgrwt>
<rscale>  2 0.45745916E+03</rscale>
<asrwt>0</asrwt>
<pdfrwt beam="1">  1       21 0.16329074E+00 0.45745916E+03</pdfrwt>
<pdfrwt beam="2">  1       21 0.69289157E-02 0.45745916E+03</pdfrwt>
<totfact> 0.32898137E+04</totfact>
</mgrwt>
</event>
<event>
 7    0  0.4737014E-002  0.5057186E+03  0.7546771E-02  0.1012297E+00
         21   -1    0    0  502  501  0.00000000000E+00  0.00000000000E+00  0.86476409690E+03  0.86476409690E+03  0.00000000000E+00 0. -1.
         21   -1    0    0  501  502 -0.00000000000E+00 -0.00000000000E+00 -0.73936719522E+02  0.73936719522E+02  0.00000000000E+00 0. -1.
      99926    2    1    2    0    0  0.14210854715E-13  0.00000000000E+00  0.79082737738E+03  0.93870081642E+03  0.50571857979E+03 0.  0.
      99925    2    3    3    0    0  0.10342370566E+03  0.11442357606E+03  0.52364931204E+03  0.60580316796E+03  0.26267786100E+03 0.  0.
         25    1    4    4    0    0  0.94463541591E+02  0.67070426574E+02  0.28703889780E+03  0.33385721463E+03  0.12509000000E+03 0.  0.
         25    1    3    3    0    0 -0.10342370566E+03 -0.11442357606E+03  0.26717806534E+03  0.33289764846E+03  0.12509000000E+03 0.  0.
         25    1    4    4    0    0  0.89601640709E+01  0.47353149488E+02  0.23661041424E+03  0.27194595333E+03  0.12509000000E+03 0.  0.
<mgrwt>
<rscale>  2 0.50571858E+03</rscale>
<asrwt>0</asrwt>
<pdfrwt beam="1">  1       21 0.12717119E+00 0.50571858E+03</pdfrwt>
<pdfrwt beam="2">  1       21 0.10873047E-01 0.50571858E+03</pdfrwt>
<totfact> 0.28495214E+04</totfact>
</mgrwt>
</event>
<event>
 7    0  0.4737014E-002  0.4507697E+03  0.7546771E-02  0.1027493E+00
         21   -1    0    0  502  501  0.00000000000E+00  0.00000000000E+00  0.73072428873E+02  0.73072428873E+02  0.00000000000E+00 0.  1.
         21   -1    0    0  501  502 -0.00000000000E+00 -0.00000000000E+00 -0.69517790700E+03  0.69517790700E+03  0.00000000000E+00 0.  1.
      99926    2    1    2    0    0 -0.14210854715E-13 -0.71054273576E-14 -0.62210547813E+03  0.76825033588E+03  0.45076973352E+03 0.  0.
      99925    2    3    3    0    0  0.84116686088E+02  0.61532555268E+02 -0.33771010988E+03  0.44054603957E+03  0.26300346467E+03 0.  0.
         25    1    3    3    0    0 -0.84116686088E+02 -0.61532555268E+02 -0.28439536825E+03  0.32770429631E+03  0.12509000000E+03 0.  0.
         25    1    4    4    0    0  0.81140738087E+02  0.36472695047E+02 -0.15955564161E+03  0.22140367597E+03  0.12509000000E+03 0.  0.
         25    1    4    4    0    0  0.29759480006E+01  0.25059860221E+02 -0.17815446827E+03  0.21914236360E+03  0.12509000000E+03 0.  0.
<mgrwt>
<rscale>  2 0.45076973E+03</rscale>
<asrwt>0</asrwt>
<pdfrwt beam="1">  1       21 0.10745946E-01 0.45076973E+03</pdfrwt>
<pdfrwt beam="2">  1       21 0.10223204E+00 0.45076973E+03</pdfrwt>
<totfact> 0.51011830E+04</totfact>
</mgrwt>
</event>
<event>
 7    0  0.4737014E-002  0.4491835E+03  0.7546771E-02  0.1027966E+00
         21   -1    0    0  502  501  0.00000000000E+00  0.00000000000E+00  0.18647530906E+03  0.18647530906E+03  0.00000000000E+00 0.  1.
         21   -1    0    0  501  502 -0.00000000000E+00 -0.00000000000E+00 -0.27049938441E+03  0.27049938441E+03  0.00000000000E+00 0.  1.
      99926    2    1    2    0    0  0.00000000000E+00  0.00000000000E+00 -0.84024075351E+02  0.45697469347E+03  0.44918350953E+03 0.  0.
      99925    2    3    3    0    0 -0.65084914143E+02 -0.85646016673E+02 -0.52272584069E+02  0.28896590941E+03  0.26305434331E+03 0.  0.
         25    1    3    3    0    0  0.65084914143E+02  0.85646016673E+02 -0.31751491282E+02  0.16800878406E+03  0.12509000000E+03 0.  0.
         25    1    4    4    0    0 -0.52334841713E+02 -0.70911465201E+02 -0.54251937401E+02  0.16235193983E+03  0.12509000000E+03 0.  0.
         25    1    4    4    0    0 -0.12750072431E+02 -0.14734551472E+02  0.19793533318E+01  0.12661396958E+03  0.12509000000E+03 0.  0.
<mgrwt>
<rscale>  2 0.44918351E+03</rscale>
<asrwt>0</asrwt>
<pdfrwt beam="1">  1       21 0.27422840E-01 0.44918351E+03</pdfrwt>
<pdfrwt beam="2">  1       21 0.39779321E-01 0.44918351E+03</pdfrwt>
<totfact> 0.71666867E+04</totfact>
</mgrwt>
</event>
<event>
 7    0  0.4737014E-002  0.4528863E+03  0.7546771E-02  0.1026865E+00
         21   -1    0    0  502  501  0.00000000000E+00  0.00000000000E+00  0.47980058440E+03  0.47980058440E+03  0.00000000000E+00 0.  1.
         21   -1    0    0  501  502 -0.00000000000E+00 -0.00000000000E+00 -0.10687045746E+03  0.10687045746E+03  0.00000000000E+00 0.  1.
      99926    2    1    2    0    0 -0.14210854715E-13  0.00000000000E+00  0.37293012694E+03  0.58667104185E+03  0.45288633428E+03 0.  0.
      99925    2    3    3    0    0 -0.82688837183E+02  0.37282872237E+02  0.31844478697E+03  0.42283082479E+03  0.26296647635E+03 0.  0.
         25    1    3    3    0    0  0.82688837183E+02 -0.37282872237E+02  0.54485339966E+02  0.16384021707E+03  0.12509000000E+03 0.  0.
         25    1    4    4    0    0 -0.67518386002E+02 -0.92167463445E+01  0.18511132488E+03  0.23357523747E+03  0.12509000000E+03 0.  0.
         25    1    4    4    0    0 -0.15170451182E+02  0.46499618581E+02  0.13333346209E+03  0.18925558732E+03  0.12509000000E+03 0.  0.
<mgrwt>
<rscale>  2 0.45288633E+03</rscale>
<asrwt>0</asrwt>
<pdfrwt beam="1">  1       21 0.70558909E-01 0.45288633E+03</pdfrwt>
<pdfrwt beam="2">  1       21 0.15716244E-01 0.45288633E+03</pdfrwt>
<totfact> 0.60510917E+04</totfact>
</mgrwt>
</event>
<event>
 7    0  0.4737014E-002  0.4523700E+03  0.7546771E-02  0.1027018E+00
         21   -1    0    0  502  501  0.00000000000E+00  0.00000000000E+00  0.73633066560E+03  0.73633066560E+03  0.00000000000E+00 0.  1.
         21   -1    0    0  501  502 -0.00000000000E+00 -0.00000000000E+00 -0.69479177026E+02  0.69479177026E+02  0.00000000000E+00 0.  1.
      99926    2    1    2    0    0 -0.71054273576E-14  0.00000000000E+00  0.66685148857E+03  0.80580984262E+03  0.45236997542E+03 0.  0.
      99925    2    3    3    0    0 -0.61755477216E+02  0.18619750807E+02  0.58150655521E+03  0.64121427817E+03  0.26238415100E+03 0.  0.
         25    1    3    3    0    0  0.61755477216E+02 -0.18619750807E+02  0.85344933365E+02  0.16459556445E+03  0.12509000000E+03 0.  0.
         25    1    4    4    0    0 -0.32722055660E+02  0.48196740750E+02  0.31548256497E+03  0.34434055184E+03  0.12509000000E+03 0.  0.
         25    1    4    4    0    0 -0.29033421556E+02 -0.29576989943E+02  0.26602399024E+03  0.29687372633E+03  0.12509000000E+03 0.  0.
<mgrwt>
<rscale>  2 0.45236998E+03</rscale>
<asrwt>0</asrwt>
<pdfrwt beam="1">  1       21 0.10828392E+00 0.45236998E+03</pdfrwt>
<pdfrwt beam="2">  1       21 0.10217526E-01 0.45236998E+03</pdfrwt>
<totfact> 0.48477897E+04</totfact>
</mgrwt>
</event>
<event>
 7    0  0.4737014E-002  0.4525755E+03  0.7546771E-02  0.1026957E+00
         21   -1    0    0  502  501  0.00000000000E+00  0.00000000000E+00  0.41064676492E+03  0.41064676492E+03  0.00000000000E+00 0.  1.
         21   -1    0    0  501  502 -0.00000000000E+00 -0.00000000000E+00 -0.12469631056E+03  0.12469631056E+03  0.00000000000E+00 0.  1.
      99926    2    1    2    0    0  0.00000000000E+00 -0.35527136788E-14  0.28595045436E+03  0.53534307548E+03  0.45257545903E+03 0.  0.
      99925    2    3    3    0    0  0.75356098513E+02 -0.19035267969E+02  0.27351652519E+03  0.38754932154E+03  0.26332926929E+03 0.  0.
         25    1    3    3    0    0 -0.75356098513E+02  0.19035267969E+02  0.12433929168E+02  0.14779375394E+03  0.12509000000E+03 0.  0.
         25    1    4    4    0    0  0.33304536796E+02  0.11250154582E+02  0.84330739838E+02  0.15490300168E+03  0.12509000000E+03 0.  0.
         25    1    4    4    0    0  0.42051561717E+02 -0.30285422551E+02  0.18918578535E+03  0.23264631985E+03  0.12509000000E+03 0.  0.
<mgrwt>
<rscale>  2 0.45257546E+03</rscale>
<asrwt>0</asrwt>
<pdfrwt beam="1">  1       21 0.60389230E-01 0.45257546E+03</pdfrwt>
<pdfrwt beam="2">  1       21 0.18337693E-01 0.45257546E+03</pdfrwt>
<totfact> 0.64066163E+04</totfact>
</mgrwt>
</event>
<event>
 7    0  0.4737014E-002  0.4568118E+03  0.7546771E-02  0.1025710E+00
         21   -1    0    0  502  501  0.00000000000E+00  0.00000000000E+00  0.15798755954E+02  0.15798755954E+02  0.00000000000E+00 0.  1.
         21   -1    0    0  501  502 -0.00000000000E+00 -0.00000000000E+00 -0.33021121808E+04  0.33021121808E+04  0.00000000000E+00 0.  1.
      99926    2    1    2    0    0  0.00000000000E+00  0.00000000000E+00 -0.32863134249E+04  0.33179109368E+04  0.45681184081E+03 0.  0.
      99925    2    3    3    0    0  0.21019590447E+02 -0.11169723314E+03 -0.19427824695E+04  0.19637909158E+04  0.26296946992E+03 0.  0.
         25    1    4    4    0    0 -0.21653231166E+02 -0.53059556500E+02 -0.77865833038E+03  0.79072149492E+03  0.12509000000E+03 0.  0.
         25    1    4    4    0    0  0.42672821613E+02 -0.58637676642E+02 -0.11641241392E+04  0.11730694209E+04  0.12509000000E+03 0.  0.
         25    1    3    3    0    0 -0.21019590447E+02  0.11169723314E+03 -0.13435309553E+04  0.13541200209E+04  0.12509000000E+03 0.  0.
<mgrwt>
<rscale>  2 0.45681184E+03</rscale>
<asrwt>0</asrwt>
<pdfrwt beam="1">  1       21 0.23233467E-02 0.45681184E+03</pdfrwt>
<pdfrwt beam="2">  1       21 0.48560467E+00 0.45681184E+03</pdfrwt>
<totfact> 0.18062540E+03</totfact>
</mgrwt>
</event>
<event>
 7    0  0.4737014E-002  0.4539114E+03  0.7546771E-02  0.1026562E+00
         21   -1    0    0  502  501  0.00000000000E+00  0.00000000000E+00  0.39794090757E+03  0.39794090757E+03  0.00000000000E+00 0.  1.
         21   -1    0    0  501  502 -0.00000000000E+00 -0.00000000000E+00 -0.12943853186E+03  0.12943853186E+03  0.00000000000E+00 0.  1.
      99926    2    1    2    0    0  0.00000000000E+00  0.14210854715E-13  0.26850237571E+03  0.52737943943E+03  0.45391138714E+03 0.  0.
      99925    2    3    3    0    0 -0.36491840638E+02  0.10599749612E+03  0.17058599463E+03  0.33295143373E+03  0.26303982977E+03 0.  0.
         25    1    4    4    0    0  0.98320152505E+01  0.67727016546E+02  0.56765844144E+02  0.15347145160E+03  0.12509000000E+03 0.  0.
         25    1    3    3    0    0  0.36491840638E+02 -0.10599749612E+03  0.97916381084E+02  0.19442800570E+03  0.12509000000E+03 0.  0.
         25    1    4    4    0    0 -0.46323855889E+02  0.38270479572E+02  0.11382015048E+03  0.17947998213E+03  0.12509000000E+03 0.  0.
<mgrwt>
<rscale>  2 0.45391139E+03</rscale>
<asrwt>0</asrwt>
<pdfrwt beam="1">  1       21 0.58520721E-01 0.45391139E+03</pdfrwt>
<pdfrwt beam="2">  1       21 0.19035078E-01 0.45391139E+03</pdfrwt>
<totfact> 0.63934186E+04</totfact>
</mgrwt>
</event>
<event>
 7    0  0.4737014E-002  0.4457757E+03  0.7546771E-02  0.1028989E+00
         21   -1    0    0  502  501  0.00000000000E+00  0.00000000000E+00  0.11202863601E+04  0.11202863601E+04  0.00000000000E+00 0.  1.
         21   -1    0    0  501  502 -0.00000000000E+00 -0.00000000000E+00 -0.44344901459E+02  0.44344901459E+02  0.00000000000E+00 0.  1.
      99926    2    1    2    0    0  0.00000000000E+00  0.88817841970E-15  0.10759414586E+04  0.11646312615E+04  0.44577567562E+03 0.  0.
      99925    2    3    3    0    0 -0.57457594939E+02 -0.45210267419E+01  0.90862616131E+03  0.94792009036E+03  0.26387342001E+03 0.  0.
         25    1    4    4    0    0 -0.59468965989E+02 -0.16176316810E+02  0.38645309997E+03  0.41084271652E+03  0.12509000000E+03 0.  0.
         25    1    3    3    0    0  0.57457594939E+02  0.45210267419E+01  0.16731529730E+03  0.21671117117E+03  0.12509000000E+03 0.  0.
         25    1    4    4    0    0  0.20113710506E+01  0.11655290068E+02  0.52217306134E+03  0.53707737384E+03  0.12509000000E+03 0.  0.
<mgrwt>
<rscale>  2 0.44577568E+03</rscale>
<asrwt>0</asrwt>
<pdfrwt beam="1">  1       21 0.16474798E+00 0.44577568E+03</pdfrwt>
<pdfrwt beam="2">  1       21 0.65213098E-02 0.44577568E+03</pdfrwt>
<totfact> 0.35802728E+04</totfact>
</mgrwt>
</event>
<event>
 7    0  0.4737014E-002  0.4561176E+03  0.7546771E-02  0.1025913E+00
         21   -1    0    0  502  501  0.00000000000E+00  0.00000000000E+00  0.35558561717E+03  0.35558561717E+03  0.00000000000E+00 0. -1.
         21   -1    0    0  501  502 -0.00000000000E+00 -0.00000000000E+00 -0.14626805878E+03  0.14626805878E+03  0.00000000000E+00 0. -1.
      99926    2    1    2    0    0  0.71054273576E-14  0.14210854715E-13  0.20931755839E+03  0.50185367595E+03  0.45611760744E+03 0.  0.
      99925    2    3    3    0    0  0.54518099274E+02  0.97549344534E+02  0.10532053234E+03  0.30449363112E+03  0.26293698693E+03 0.  0.
         25    1    4    4    0    0  0.19299191248E+02  0.58586806894E+02  0.12331426875E+02  0.14001587379E+03  0.12509000000E+03 0.  0.
         25    1    3    3    0    0 -0.54518099274E+02 -0.97549344534E+02  0.10399702605E+03  0.19736004483E+03  0.12509000000E+03 0.  0.
         25    1    4    4    0    0  0.35218908026E+02  0.38962537640E+02  0.92989105467E+02  0.16447775733E+03  0.12509000000E+03 0.  0.
<mgrwt>
<rscale>  2 0.45611761E+03</rscale>
<asrwt>0</asrwt>
<pdfrwt beam="1">  1       21 0.52292002E-01 0.45611761E+03</pdfrwt>
<pdfrwt beam="2">  1       21 0.21510009E-01 0.45611761E+03</pdfrwt>
<totfact> 0.64565934E+04</totfact>
</mgrwt>
</event>
<event>
 7    0  0.4737014E-002  0.4454948E+03  0.7546771E-02  0.1029074E+00
         21   -1    0    0  502  501  0.00000000000E+00  0.00000000000E+00  0.49591925091E+02  0.49591925091E+02  0.00000000000E+00 0.  1.
         21   -1    0    0  501  502 -0.00000000000E+00 -0.00000000000E+00 -0.10004937061E+04  0.10004937061E+04  0.00000000000E+00 0.  1.
      99926    2    1    2    0    0  0.00000000000E+00 -0.14210854715E-13 -0.95090178103E+03  0.10500856312E+04  0.44549482120E+03 0.  0.
      99925    2    3    3    0    0  0.71484260116E+02  0.71334341101E+02 -0.66199415470E+03  0.71945938859E+03  0.26303414854E+03 0.  0.
         25    1    4    4    0    0  0.22660521605E+02  0.65561686153E+02 -0.40365889646E+03  0.42825208315E+03  0.12509000000E+03 0.  0.
         25    1    4    4    0    0  0.48823738511E+02  0.57726549488E+01 -0.25833525825E+03  0.29120730544E+03  0.12509000000E+03 0.  0.
         25    1    3    3    0    0 -0.71484260116E+02 -0.71334341101E+02 -0.28890762633E+03  0.33062624263E+03  0.12509000000E+03 0.  0.
<mgrwt>
<rscale>  2 0.44549482E+03</rscale>
<asrwt>0</asrwt>
<pdfrwt beam="1">  1       21 0.72929306E-02 0.44549482E+03</pdfrwt>
<pdfrwt beam="2">  1       21 0.14713142E+00 0.44549482E+03</pdfrwt>
<totfact> 0.40172922E+04</totfact>
</mgrwt>
</event>
<event>
 7    0  0.4737014E-002  0.4555409E+03  0.7546771E-02  0.1026082E+00
         21   -1    0    0  502  501  0.00000000000E+00  0.00000000000E+00  0.52632946727E+03  0.52632946727E+03  0.00000000000E+00 0. -1.
         21   -1    0    0  501  502 -0.00000000000E+00 -0.00000000000E+00 -0.98568247246E+02  0.98568247246E+02  0.00000000000E+00 0. -1.
      99926    2    1    2    0    0  0.17763568394E-14  0.00000000000E+00  0.42776122003E+03  0.62489771452E+03  0.45554087879E+03 0.  0.
      99925    2    3    3    0    0  0.12935138189E+02 -0.36742866498E+02  0.12245232344E+03  0.29266528613E+03  0.26294684282E+03 0.  0.
         25    1    4    4    0    0  0.29511933554E+02 -0.50244201788E+02  0.51641991784E+02  0.14734258533E+03  0.12509000000E+03 0.  0.
         25    1    4    4    0    0 -0.16576795365E+02  0.13501335289E+02  0.70810331655E+02  0.14532270080E+03  0.12509000000E+03 0.  0.
         25    1    3    3    0    0 -0.12935138189E+02  0.36742866498E+02  0.30530889659E+03  0.33223242839E+03  0.12509000000E+03 0.  0.
<mgrwt>
<rscale>  2 0.45554088E+03</rscale>
<asrwt>0</asrwt>
<pdfrwt beam="1">  1       21 0.77401391E-01 0.45554088E+03</pdfrwt>
<pdfrwt beam="2">  1       21 0.14495331E-01 0.45554088E+03</pdfrwt>
<totfact> 0.56927839E+04</totfact>
</mgrwt>
</event>
<event>
 7    0  0.4737014E-002  0.4648027E+03  0.7546771E-02  0.1023397E+00
         21   -1    0    0  502  501  0.00000000000E+00  0.00000000000E+00  0.33406148722E+03  0.33406148722E+03  0.00000000000E+00 0. -1.
         21   -1    0    0  501  502 -0.00000000000E+00 -0.00000000000E+00 -0.16167797527E+03  0.16167797527E+03  0.00000000000E+00 0. -1.
      99926    2    1    2    0    0  0.14210854715E-13  0.00000000000E+00  0.17238351195E+03  0.49573946249E+03  0.46480268876E+03 0.  0.
      99925    2    3    3    0    0 -0.86124579388E+02  0.75384210481E+02  0.15327612538E+03  0.32511466158E+03  0.26287972573E+03 0.  0.
         25    1    3    3    0    0  0.86124579388E+02 -0.75384210481E+02  0.19107386568E+02  0.17062480091E+03  0.12509000000E+03 0.  0.
         25    1    4    4    0    0 -0.59412037396E+02  0.62960664182E+02  0.49627173848E+02  0.16001312417E+03  0.12509000000E+03 0.  0.
         25    1    4    4    0    0 -0.26712541993E+02  0.12423546300E+02  0.10364895153E+03  0.16510153741E+03  0.12509000000E+03 0.  0.
<mgrwt>
<rscale>  2 0.46480269E+03</rscale>
<asrwt>0</asrwt>
<pdfrwt beam="1">  1       21 0.49126689E-01 0.46480269E+03</pdfrwt>
<pdfrwt beam="2">  1       21 0.23776173E-01 0.46480269E+03</pdfrwt>
<totfact> 0.60707455E+04</totfact>
</mgrwt>
</event>
<event>
 7    0  0.4737014E-002  0.4531851E+03  0.7546771E-02  0.1026776E+00
         21   -1    0    0  502  501  0.00000000000E+00  0.00000000000E+00  0.47842510088E+02  0.47842510088E+02  0.00000000000E+00 0.  1.
         21   -1    0    0  501  502 -0.00000000000E+00 -0.00000000000E+00 -0.10731917511E+04  0.10731917511E+04  0.00000000000E+00 0.  1.
      99926    2    1    2    0    0  0.00000000000E+00  0.14210854715E-13 -0.10253492410E+04  0.11210342612E+04  0.45318511528E+03 0.  0.
      99925    2    3    3    0    0 -0.23894746276E+02  0.10043267966E+03 -0.54215735127E+03  0.61134848303E+03  0.26297279731E+03 0.  0.
         25    1    4    4    0    0 -0.37563974976E+01  0.34735641887E+02 -0.17900898927E+03  0.22116148326E+03  0.12509000000E+03 0.  0.
         25    1    4    4    0    0 -0.20138348779E+02  0.65697037777E+02 -0.36314836200E+03  0.39018699977E+03  0.12509000000E+03 0.  0.
         25    1    3    3    0    0  0.23894746276E+02 -0.10043267966E+03 -0.48319188974E+03  0.50968577815E+03  0.12509000000E+03 0.  0.
<mgrwt>
<rscale>  2 0.45318512E+03</rscale>
<asrwt>0</asrwt>
<pdfrwt beam="1">  1       21 0.70356634E-02 0.45318512E+03</pdfrwt>
<pdfrwt beam="2">  1       21 0.15782231E+00 0.45318512E+03</pdfrwt>
<totfact> 0.35260571E+04</totfact>
</mgrwt>
</event>
<event>
 7    0  0.4737014E-002  0.4431209E+03  0.7546771E-02  0.1029794E+00
         21   -1    0    0  502  501  0.00000000000E+00  0.00000000000E+00  0.18690195489E+03  0.18690195489E+03  0.00000000000E+00 0. -1.
         21   -1    0    0  501  502 -0.00000000000E+00 -0.00000000000E+00 -0.26264587430E+03  0.26264587430E+03  0.00000000000E+00 0. -1.
      99926    2    1    2    0    0  0.00000000000E+00  0.14210854715E-13 -0.75743919405E+02  0.44954782919E+03  0.44312087448E+03 0.  0.
      99925    2    3    3    0    0 -0.35008187985E+02  0.67045330550E+02  0.20709426573E+02  0.27441529187E+03  0.26297190438E+03 0.  0.
         25    1    4    4    0    0 -0.21035016487E+02 -0.78571158839E+01  0.12814041845E+02  0.12773376201E+03  0.12509000000E+03 0.  0.
         25    1    3    3    0    0  0.35008187985E+02 -0.67045330550E+02 -0.96453345978E+02  0.17513253731E+03  0.12509000000E+03 0.  0.
         25    1    4    4    0    0 -0.13973171498E+02  0.74902446434E+02  0.78953847288E+01  0.14668152987E+03  0.12509000000E+03 0.  0.
<mgrwt>
<rscale>  2 0.44312087E+03</rscale>
<asrwt>0</asrwt>
<pdfrwt beam="1">  1       21 0.27485582E-01 0.44312087E+03</pdfrwt>
<pdfrwt beam="2">  1       21 0.38624393E-01 0.44312087E+03</pdfrwt>
<totfact> 0.75886864E+04</totfact>
</mgrwt>
</event>
<event>
 7    0  0.4737014E-002  0.4552321E+03  0.7546771E-02  0.1026173E+00
         21   -1    0    0  502  501  0.00000000000E+00  0.00000000000E+00  0.21815255140E+03  0.21815255140E+03  0.00000000000E+00 0.  1.
         21   -1    0    0  501  502 -0.00000000000E+00 -0.00000000000E+00 -0.23749004500E+03  0.23749004500E+03  0.00000000000E+00 0.  1.
      99926    2    1    2    0    0  0.00000000000E+00  0.00000000000E+00 -0.19337493598E+02  0.45564259640E+03  0.45523206939E+03 0.  0.
      99925    2    3    3    0    0  0.28907951240E+02 -0.73618925886E+02 -0.93382005719E+02  0.29015690588E+03  0.26308822692E+03 0.  0.
         25    1    4    4    0    0 -0.24730163177E+02 -0.33100967454E+02 -0.32753630558E+02  0.13574816180E+03  0.12509000000E+03 0.  0.
         25    1    4    4    0    0  0.53638114417E+02 -0.40517958432E+02 -0.60628375162E+02  0.15440874408E+03  0.12509000000E+03 0.  0.
         25    1    3    3    0    0 -0.28907951240E+02  0.73618925886E+02  0.74044512121E+02  0.16548569053E+03  0.12509000000E+03 0.  0.
<mgrwt>
<rscale>  2 0.45523207E+03</rscale>
<asrwt>0</asrwt>
<pdfrwt beam="1">  1       21 0.32081258E-01 0.45523207E+03</pdfrwt>
<pdfrwt beam="2">  1       21 0.34925006E-01 0.45523207E+03</pdfrwt>
<totfact> 0.68372074E+04</totfact>
</mgrwt>
</event>
<event>
 7    0  0.4737014E-002  0.4546844E+03  0.7546771E-02  0.1026334E+00
         21   -1    0    0  502  501  0.00000000000E+00  0.00000000000E+00  0.54087496796E+02  0.54087496796E+02  0.00000000000E+00 0.  1.
         21   -1    0    0  501  502 -0.00000000000E+00 -0.00000000000E+00 -0.95557173288E+03  0.95557173288E+03  0.00000000000E+00 0.  1.
      99926    2    1    2    0    0  0.00000000000E+00  0.00000000000E+00 -0.90148423608E+03  0.10096592297E+04  0.45468443140E+03 0.  0.
      99925    2    3    3    0    0  0.49945407989E+02 -0.10163660680E+02 -0.79109116967E+03  0.83521158426E+03  0.26297396825E+03 0.  0.
         25    1    3    3    0    0 -0.49945407989E+02  0.10163660680E+02 -0.11039306641E+03  0.17444764541E+03  0.12509000000E+03 0.  0.
         25    1    4    4    0    0 -0.72464656613E+01 -0.66106178218E+01 -0.29932353227E+03  0.32455861813E+03  0.12509000000E+03 0.  0.
         25    1    4    4    0    0  0.57191873650E+02 -0.35530428581E+01 -0.49176763740E+03  0.51065296613E+03  0.12509000000E+03 0.  0.
<mgrwt>
<rscale>  2 0.45468443E+03</rscale>
<asrwt>0</asrwt>
<pdfrwt beam="1">  1       21 0.79540445E-02 0.45468443E+03</pdfrwt>
<pdfrwt beam="2">  1       21 0.14052524E+00 0.45468443E+03</pdfrwt>
<totfact> 0.38888918E+04</totfact>
</mgrwt>
</event>
<event>
 7    0  0.4737014E-002  0.4346518E+03  0.7546771E-02  0.1032401E+00
         21   -1    0    0  502  501  0.00000000000E+00  0.00000000000E+00  0.15036299051E+04  0.15036299051E+04  0.00000000000E+00 0. -1.
         21   -1    0    0  501  502 -0.00000000000E+00 -0.00000000000E+00 -0.31411016113E+02  0.31411016113E+02  0.00000000000E+00 0. -1.
      99926    2    1    2    0    0 -0.35527136788E-14 -0.14210854715E-13  0.14722188889E+04  0.15350409212E+04  0.43465178328E+03 0.  0.
      99925    2    3    3    0    0  0.25778923894E+02  0.88057829577E+02  0.89406777174E+03  0.93643841809E+03  0.26294675535E+03 0.  0.
         25    1    3    3    0    0 -0.25778923894E+02 -0.88057829577E+02  0.57815111720E+03  0.59860250308E+03  0.12509000000E+03 0.  0.
         25    1    4    4    0    0  0.10323497160E+02  0.23290581916E+02  0.54397124950E+03  0.55874972410E+03  0.12509000000E+03 0.  0.
         25    1    4    4    0    0  0.15455426734E+02  0.64767247662E+02  0.35009652224E+03  0.37768869400E+03  0.12509000000E+03 0.  0.
<mgrwt>
<rscale>  2 0.43465178E+03</rscale>
<asrwt>0</asrwt>
<pdfrwt beam="1">  1       21 0.22112200E+00 0.43465178E+03</pdfrwt>
<pdfrwt beam="2">  1       21 0.46192681E-02 0.43465178E+03</pdfrwt>
<totfact> 0.26947089E+04</totfact>
</mgrwt>
</event>
<event>
 7    0  0.4737014E-002  0.4548523E+03  0.7546771E-02  0.1026285E+00
         21   -1    0    0  502  501  0.00000000000E+00  0.00000000000E+00  0.71172006239E+03  0.71172006239E+03  0.00000000000E+00 0. -1.
         21   -1    0    0  501  502 -0.00000000000E+00 -0.00000000000E+00 -0.72672759567E+02  0.72672759567E+02  0.00000000000E+00 0. -1.
      99926    2    1    2    0    0  0.71054273576E-14  0.00000000000E+00  0.63904730282E+03  0.78439282196E+03  0.45485233196E+03 0.  0.
      99925    2    3    3    0    0  0.56776880210E+02 -0.70689297109E+02  0.51878135248E+03  0.58860723065E+03  0.26287599631E+03 0.  0.
         25    1    4    4    0    0 -0.31769167826E+01 -0.10290609860E+02  0.20800241669E+03  0.24295782124E+03  0.12509000000E+03 0.  0.
         25    1    4    4    0    0  0.59953796993E+02 -0.60398687249E+02  0.31077893579E+03  0.34564940941E+03  0.12509000000E+03 0.  0.
         25    1    3    3    0    0 -0.56776880210E+02  0.70689297109E+02  0.12026595034E+03  0.19578559131E+03  0.12509000000E+03 0.  0.
<mgrwt>
<rscale>  2 0.45485233E+03</rscale>
<asrwt>0</asrwt>
<pdfrwt beam="1">  1       21 0.10466471E+00 0.45485233E+03</pdfrwt>
<pdfrwt beam="2">  1       21 0.10687171E-01 0.45485233E+03</pdfrwt>
<totfact> 0.48585299E+04</totfact>
</mgrwt>
</event>
<event>
 7    0  0.4737014E-002  0.4547769E+03  0.7546771E-02  0.1026307E+00
         21   -1    0    0  502  501  0.00000000000E+00  0.00000000000E+00  0.64497891765E+03  0.64497891765E+03  0.00000000000E+00 0.  1.
         21   -1    0    0  501  502 -0.00000000000E+00 -0.00000000000E+00 -0.80166179892E+02  0.80166179892E+02  0.00000000000E+00 0.  1.
      99926    2    1    2    0    0  0.14210854715E-13  0.00000000000E+00  0.56481273776E+03  0.72514509755E+03  0.45477685051E+03 0.  0.
      99925    2    3    3    0    0  0.85537429856E+02 -0.49676141283E+02  0.26843926254E+03  0.38859032365E+03  0.26297990615E+03 0.  0.
         25    1    3    3    0    0 -0.85537429856E+02  0.49676141283E+02  0.29637347522E+03  0.33655477390E+03  0.12509000000E+03 0.  0.
         25    1    4    4    0    0  0.20665005301E+02 -0.10409673454E+02  0.80934712601E+02  0.15077579232E+03  0.12509000000E+03 0.  0.
         25    1    4    4    0    0  0.64872424554E+02 -0.39266467829E+02  0.18750454994E+03  0.23781453133E+03  0.12509000000E+03 0.  0.
<mgrwt>
<rscale>  2 0.45477685E+03</rscale>
<asrwt>0</asrwt>
<pdfrwt beam="1">  1       21 0.94849838E-01 0.45477685E+03</pdfrwt>
<pdfrwt beam="2">  1       21 0.11789144E-01 0.45477685E+03</pdfrwt>
<totfact> 0.51649541E+04</totfact>
</mgrwt>
</event>
<event>
 7    0  0.4737014E-002  0.4499233E+03  0.7546771E-02  0.1027745E+00
         21   -1    0    0  502  501  0.00000000000E+00  0.00000000000E+00  0.39405247818E+02  0.39405247818E+02  0.00000000000E+00 0.  1.
         21   -1    0    0  501  502 -0.00000000000E+00 -0.00000000000E+00 -0.12842894615E+04  0.12842894615E+04  0.00000000000E+00 0.  1.
      99926    2    1    2    0    0  0.00000000000E+00  0.00000000000E+00 -0.12448842137E+04  0.13236947093E+04  0.44992330236E+03 0.  0.
      99925    2    3    3    0    0 -0.83224797167E+02 -0.12481657853E+02 -0.58659233622E+03  0.64835933879E+03  0.26305342546E+03 0.  0.
         25    1    3    3    0    0  0.83224797167E+02  0.12481657853E+02 -0.65829187750E+03  0.67533537056E+03  0.12509000000E+03 0.  0.
         25    1    4    4    0    0 -0.56379355391E+01  0.11116986246E+02 -0.30108797114E+03  0.32627725658E+03  0.12509000000E+03 0.  0.
         25    1    4    4    0    0 -0.77586861628E+02 -0.23598644099E+02 -0.28550436508E+03  0.32208208221E+03  0.12509000000E+03 0.  0.
<mgrwt>
<rscale>  2 0.44992330E+03</rscale>
<asrwt>0</asrwt>
<pdfrwt beam="1">  1       21 0.57948892E-02 0.44992330E+03</pdfrwt>
<pdfrwt beam="2">  1       21 0.18886610E+00 0.44992330E+03</pdfrwt>
<totfact> 0.29585026E+04</totfact>
</mgrwt>
</event>
<event>
 7    0  0.4737014E-002  0.4542429E+03  0.7546771E-02  0.1026464E+00
         21   -1    0    0  502  501  0.00000000000E+00  0.00000000000E+00  0.13095011761E+04  0.13095011761E+04  0.00000000000E+00 0. -1.
         21   -1    0    0  501  502 -0.00000000000E+00 -0.00000000000E+00 -0.39392218678E+02  0.39392218678E+02  0.00000000000E+00 0. -1.
      99926    2    1    2    0    0 -0.71054273576E-14  0.00000000000E+00  0.12701089574E+04  0.13488933948E+04  0.45424291602E+03 0.  0.
      99925    2    3    3    0    0  0.52943179362E+02 -0.55121605465E+02  0.10447954176E+04  0.10800903610E+04  0.26297595273E+03 0.  0.
         25    1    4    4    0    0  0.57923029450E+02 -0.10428315646E+02  0.45700722938E+03  0.47745883897E+03  0.12509000000E+03 0.  0.
         25    1    3    3    0    0 -0.52943179362E+02  0.55121605465E+02  0.22531353985E+03  0.26880303378E+03  0.12509000000E+03 0.  0.
         25    1    4    4    0    0 -0.49798500888E+01 -0.44693289819E+02  0.58778818821E+03  0.60263152205E+03  0.12509000000E+03 0.  0.
<mgrwt>
<rscale>  2 0.45424292E+03</rscale>
<asrwt>0</asrwt>
<pdfrwt beam="1">  1       21 0.19257367E+00 0.45424292E+03</pdfrwt>
<pdfrwt beam="2">  1       21 0.57929742E-02 0.45424292E+03</pdfrwt>
<totfact> 0.27890055E+04</totfact>
</mgrwt>
</event>
<event>
 7    0  0.4737014E-002  0.4507864E+03  0.7546771E-02  0.1027488E+00
         21   -1    0    0  502  501  0.00000000000E+00  0.00000000000E+00  0.27404527215E+02  0.27404527215E+02  0.00000000000E+00 0. -1.
         21   -1    0    0  501  502 -0.00000000000E+00 -0.00000000000E+00 -0.18537845856E+04  0.18537845856E+04  0.00000000000E+00 0. -1.
      99926    2    1    2    0    0  0.00000000000E+00  0.00000000000E+00 -0.18263800584E+04  0.18811891128E+04  0.45078638013E+03 0.  0.
      99925    2    3    3    0    0 -0.10380963597E+03  0.22281316346E+02 -0.10513955495E+04  0.10890266329E+04  0.26319860930E+03 0.  0.
         25    1    4    4    0    0 -0.56051400675E+02 -0.95472142205E+01 -0.39095910529E+03  0.41440250835E+03  0.12509000000E+03 0.  0.
         25    1    4    4    0    0 -0.47758235294E+02  0.31828530567E+02 -0.66043644423E+03  0.67462412451E+03  0.12509000000E+03 0.  0.
         25    1    3    3    0    0  0.10380963597E+03 -0.22281316346E+02 -0.77498450887E+03  0.79216247996E+03  0.12509000000E+03 0.  0.
<mgrwt>
<rscale>  2 0.45078638E+03</rscale>
<asrwt>0</asrwt>
<pdfrwt beam="1">  1       21 0.40300775E-02 0.45078638E+03</pdfrwt>
<pdfrwt beam="2">  1       21 0.27261538E+00 0.45078638E+03</pdfrwt>
<totfact> 0.16273789E+04</totfact>
</mgrwt>
</event>
<event>
 7    0  0.4737014E-002  0.4459490E+03  0.7546771E-02  0.1028937E+00
         21   -1    0    0  502  501  0.00000000000E+00  0.00000000000E+00  0.54217776868E+03  0.54217776868E+03  0.00000000000E+00 0.  1.
         21   -1    0    0  501  502 -0.00000000000E+00 -0.00000000000E+00 -0.91699876290E+02  0.91699876290E+02  0.00000000000E+00 0.  1.
      99926    2    1    2    0    0  0.00000000000E+00  0.00000000000E+00  0.45047789239E+03  0.63387764497E+03  0.44594902989E+03 0.  0.
      99925    2    3    3    0    0  0.93484494652E+02  0.35936260035E+02  0.32828329913E+03  0.43235893059E+03  0.26293260513E+03 0.  0.
         25    1    4    4    0    0  0.68764218198E+02  0.34871583448E+02  0.12771061614E+03  0.19468450018E+03  0.12509000000E+03 0.  0.
         25    1    3    3    0    0 -0.93484494652E+02 -0.35936260035E+02  0.12219459326E+03  0.20151871438E+03  0.12509000000E+03 0.  0.
         25    1    4    4    0    0  0.24720276454E+02  0.10646765871E+01  0.20057268300E+03  0.23767443041E+03  0.12509000000E+03 0.  0.
<mgrwt>
<rscale>  2 0.44594903E+03</rscale>
<asrwt>0</asrwt>
<pdfrwt beam="1">  1       21 0.79732023E-01 0.44594903E+03</pdfrwt>
<pdfrwt beam="2">  1       21 0.13485276E-01 0.44594903E+03</pdfrwt>
<totfact> 0.60873336E+04</totfact>
</mgrwt>
</event>
<event>
 7    0  0.4737014E-002  0.4542142E+03  0.7546771E-02  0.1026473E+00
         21   -1    0    0  502  501  0.00000000000E+00  0.00000000000E+00  0.23235906587E+03  0.23235906587E+03  0.00000000000E+00 0. -1.
         21   -1    0    0  501  502 -0.00000000000E+00 -0.00000000000E+00 -0.22197389183E+03  0.22197389183E+03  0.00000000000E+00 0. -1.
      99926    2    1    2    0    0  0.00000000000E+00  0.35527136788E-14  0.10385174040E+02  0.45433295771E+03  0.45421424969E+03 0.  0.
      99925    2    3    3    0    0  0.44696479748E+02  0.89747925027E+01 -0.97520147380E+02  0.28295796334E+03  0.26168054508E+03 0.  0.
         25    1    4    4    0    0  0.22741873484E+02  0.37397974942E+02 -0.28160836958E+02  0.13548557922E+03  0.12509000000E+03 0.  0.
         25    1    3    3    0    0 -0.44696479748E+02 -0.89747925027E+01  0.10790532142E+03  0.17137499436E+03  0.12509000000E+03 0.  0.
         25    1    4    4    0    0  0.21954606264E+02 -0.28423182439E+02 -0.69359310422E+02  0.14747238412E+03  0.12509000000E+03 0.  0.
<mgrwt>
<rscale>  2 0.45421425E+03</rscale>
<asrwt>0</asrwt>
<pdfrwt beam="1">  1       21 0.34170451E-01 0.45421425E+03</pdfrwt>
<pdfrwt beam="2">  1       21 0.32643219E-01 0.45421425E+03</pdfrwt>
<totfact> 0.69026436E+04</totfact>
</mgrwt>
</event>
<event>
 7    0  0.4737014E-002  0.4606375E+03  0.7546771E-02  0.1024596E+00
         21   -1    0    0  502  501  0.00000000000E+00  0.00000000000E+00  0.89241421076E+02  0.89241421076E+02  0.00000000000E+00 0. -1.
         21   -1    0    0  501  502 -0.00000000000E+00 -0.00000000000E+00 -0.59441816422E+03  0.59441816422E+03  0.00000000000E+00 0. -1.
      99926    2    1    2    0    0  0.00000000000E+00  0.00000000000E+00 -0.50517674314E+03  0.68365958529E+03  0.46063747867E+03 0.  0.
      99925    2    3    3    0    0 -0.76955163979E+02 -0.86630482565E+02 -0.27994514482E+03  0.40116406541E+03  0.26293798793E+03 0.  0.
         25    1    4    4    0    0 -0.61623414326E+02 -0.14218528789E+02 -0.16001465510E+03  0.21272472753E+03  0.12509000000E+03 0.  0.
         25    1    3    3    0    0  0.76955163979E+02  0.86630482565E+02 -0.22523159832E+03  0.28249551989E+03  0.12509000000E+03 0.  0.
         25    1    4    4    0    0 -0.15331749652E+02 -0.72411953776E+02 -0.11993048971E+03  0.18843933788E+03  0.12509000000E+03 0.  0.
<mgrwt>
<rscale>  2 0.46063748E+03</rscale>
<asrwt>0</asrwt>
<pdfrwt beam="1">  1       21 0.13123739E-01 0.46063748E+03</pdfrwt>
<pdfrwt beam="2">  1       21 0.87414434E-01 0.46063748E+03</pdfrwt>
<totfact> 0.51475178E+04</totfact>
</mgrwt>
</event>
<event>
 7    0  0.4737014E-002  0.4481720E+03  0.7546771E-02  0.1028269E+00
         21   -1    0    0  502  501  0.00000000000E+00  0.00000000000E+00  0.18994524845E+03  0.18994524845E+03  0.00000000000E+00 0. -1.
         21   -1    0    0  501  502 -0.00000000000E+00 -0.00000000000E+00 -0.26436319511E+03  0.26436319511E+03  0.00000000000E+00 0. -1.
      99926    2    1    2    0    0  0.00000000000E+00  0.00000000000E+00 -0.74417946652E+02  0.45430844356E+03  0.44817198831E+03 0.  0.
      99925    2    3    3    0    0  0.85942659358E+02  0.62548732028E+02 -0.50617278076E+02  0.28843962642E+03  0.26331886501E+03 0.  0.
         25    1    3    3    0    0 -0.85942659358E+02 -0.62548732028E+02 -0.23800668576E+02  0.16586881714E+03  0.12509000000E+03 0.  0.
         25    1    4    4    0    0  0.73951372324E+02  0.57063720901E+01 -0.35463160972E+02  0.14968804908E+03  0.12509000000E+03 0.  0.
         25    1    4    4    0    0  0.11991287034E+02  0.56842359938E+02 -0.15154117104E+02  0.13875157734E+03  0.12509000000E+03 0.  0.
<mgrwt>
<rscale>  2 0.44817199E+03</rscale>
<asrwt>0</asrwt>
<pdfrwt beam="1">  1       21 0.27933125E-01 0.44817199E+03</pdfrwt>
<pdfrwt beam="2">  1       21 0.38876940E-01 0.44817199E+03</pdfrwt>
<totfact> 0.72463228E+04</totfact>
</mgrwt>
</event>
<event>
 7    0  0.4737014E-002  0.4476477E+03  0.7546771E-02  0.1028426E+00
         21   -1    0    0  502  501  0.00000000000E+00  0.00000000000E+00  0.64473304498E+03  0.64473304498E+03  0.00000000000E+00 0. -1.
         21   -1    0    0  501  502 -0.00000000000E+00 -0.00000000000E+00 -0.77702115889E+02  0.77702115889E+02  0.00000000000E+00 0. -1.
      99926    2    1    2    0    0  0.00000000000E+00 -0.17763568394E-14  0.56703092909E+03  0.72243516087E+03  0.44764772658E+03 0.  0.
      99925    2    3    3    0    0 -0.54190479020E+02 -0.15508212463E+02  0.50436466796E+03  0.57159855704E+03  0.26299064519E+03 0.  0.
         25    1    4    4    0    0 -0.25330428064E+02 -0.40326256648E+02  0.20377791437E+03  0.24380480727E+03  0.12509000000E+03 0.  0.
         25    1    4    4    0    0 -0.28860050956E+02  0.24818044184E+02  0.30058675359E+03  0.32779374978E+03  0.12509000000E+03 0.  0.
         25    1    3    3    0    0  0.54190479020E+02  0.15508212463E+02  0.62666261133E+02  0.15083660383E+03  0.12509000000E+03 0.  0.
<mgrwt>
<rscale>  2 0.44764773E+03</rscale>
<asrwt>0</asrwt>
<pdfrwt beam="1">  1       21 0.94813680E-01 0.44764773E+03</pdfrwt>
<pdfrwt beam="2">  1       21 0.11426782E-01 0.44764773E+03</pdfrwt>
<totfact> 0.54802694E+04</totfact>
</mgrwt>
</event>
<event>
 7    0  0.4737014E-002  0.4476761E+03  0.7546771E-02  0.1028417E+00
         21   -1    0    0  502  501  0.00000000000E+00  0.00000000000E+00  0.23405821002E+03  0.23405821002E+03  0.00000000000E+00 0. -1.
         21   -1    0    0  501  502 -0.00000000000E+00 -0.00000000000E+00 -0.21406413220E+03  0.21406413220E+03  0.00000000000E+00 0. -1.
      99926    2    1    2    0    0  0.00000000000E+00 -0.71054273576E-14  0.19994077815E+02  0.44812234222E+03  0.44767607759E+03 0.  0.
      99925    2    3    3    0    0 -0.30320725138E+02 -0.48775437609E+02 -0.76717996908E+02  0.27989890989E+03  0.26298167051E+03 0.  0.
         25    1    4    4    0    0 -0.19984713479E+02  0.12313669757E+02 -0.54907516843E+02  0.13861226043E+03  0.12509000000E+03 0.  0.
         25    1    4    4    0    0 -0.10336011659E+02 -0.61089107366E+02 -0.21810480065E+02  0.14128664946E+03  0.12509000000E+03 0.  0.
         25    1    3    3    0    0  0.30320725138E+02  0.48775437609E+02  0.96712074723E+02  0.16822343233E+03  0.12509000000E+03 0.  0.
<mgrwt>
<rscale>  2 0.44767608E+03</rscale>
<asrwt>0</asrwt>
<pdfrwt beam="1">  1       21 0.34420325E-01 0.44767608E+03</pdfrwt>
<pdfrwt beam="2">  1       21 0.31480019E-01 0.44767608E+03</pdfrwt>
<totfact> 0.73239864E+04</totfact>
</mgrwt>
</event>
<event>
 7    0  0.4737014E-002  0.4578128E+03  0.7546771E-02  0.1025417E+00
         21   -1    0    0  502  501  0.00000000000E+00  0.00000000000E+00  0.65530215985E+02  0.65530215985E+02  0.00000000000E+00 0.  1.
         21   -1    0    0  501  502 -0.00000000000E+00 -0.00000000000E+00 -0.79960288055E+03  0.79960288055E+03  0.00000000000E+00 0.  1.
      99926    2    1    2    0    0 -0.44408920985E-15  0.00000000000E+00 -0.73407266456E+03  0.86513309653E+03  0.45781284152E+03 0.  0.
      99925    2    3    3    0    0 -0.34609355108E+01 -0.11543364248E+03 -0.47878274737E+03  0.55828239373E+03  0.26288668296E+03 0.  0.
         25    1    3    3    0    0  0.34609355108E+01  0.11543364248E+03 -0.25528991719E+03  0.30685070280E+03  0.12509000000E+03 0.  0.
         25    1    4    4    0    0 -0.20196433959E+02 -0.89295789424E+02 -0.21929863734E+03  0.26855359687E+03  0.12509000000E+03 0.  0.
         25    1    4    4    0    0  0.16735498448E+02 -0.26137853057E+02 -0.25948411003E+03  0.28972879685E+03  0.12509000000E+03 0.  0.
<mgrwt>
<rscale>  2 0.45781284E+03</rscale>
<asrwt>0</asrwt>
<pdfrwt beam="1">  1       21 0.96367967E-02 0.45781284E+03</pdfrwt>
<pdfrwt beam="2">  1       21 0.11758866E+00 0.45781284E+03</pdfrwt>
<totfact> 0.43795535E+04</totfact>
</mgrwt>
</event>
<event>
 7    0  0.4737014E-002  0.4374601E+03  0.7546771E-02  0.1031529E+00
         21   -1    0    0  502  501  0.00000000000E+00  0.00000000000E+00  0.15588028567E+03  0.15588028567E+03  0.00000000000E+00 0. -1.
         21   -1    0    0  501  502 -0.00000000000E+00 -0.00000000000E+00 -0.30692042934E+03  0.30692042934E+03  0.00000000000E+00 0. -1.
      99926    2    1    2    0    0 -0.17208456882E-14  0.00000000000E+00 -0.15104014366E+03  0.46280071501E+03  0.43746014312E+03 0.  0.
      99925    2    3    3    0    0 -0.10389262056E+00  0.84696614056E+02 -0.14401835486E+03  0.31157128387E+03  0.26298640872E+03 0.  0.
         25    1    3    3    0    0  0.10389262056E+00 -0.84696614056E+02 -0.70217888063E+01  0.15122943114E+03  0.12509000000E+03 0.  0.
         25    1    4    4    0    0 -0.33047487726E+02  0.66808815273E+02 -0.79886450342E+02  0.16608704733E+03  0.12509000000E+03 0.  0.
         25    1    4    4    0    0  0.32943595106E+02  0.17887798784E+02 -0.64131904516E+02  0.14548423654E+03  0.12509000000E+03 0.  0.
<mgrwt>
<rscale>  2 0.43746014E+03</rscale>
<asrwt>0</asrwt>
<pdfrwt beam="1">  1       21 0.22923572E-01 0.43746014E+03</pdfrwt>
<pdfrwt beam="2">  1       21 0.45135357E-01 0.43746014E+03</pdfrwt>
<totfact> 0.78320918E+04</totfact>
</mgrwt>
</event>
<event>
 7    0  0.4737014E-002  0.4276039E+03  0.7546771E-02  0.1034620E+00
         21   -1    0    0  502  501  0.00000000000E+00  0.00000000000E+00  0.14156431078E+02  0.14156431078E+02  0.00000000000E+00 0. -1.
         21   -1    0    0  501  502 -0.00000000000E+00 -0.00000000000E+00 -0.32290116384E+04  0.32290116384E+04  0.00000000000E+00 0. -1.
      99926    2    1    2    0    0  0.00000000000E+00  0.00000000000E+00 -0.32148552074E+04  0.32431680695E+04  0.42760393221E+03 0.  0.
      99925    2    3    3    0    0 -0.25685285585E+02 -0.31745356674E+02 -0.15141759506E+04  0.15374057929E+04  0.26309743700E+03 0.  0.
         25    1    4    4    0    0  0.30831444216E+01  0.20746858771E+02 -0.66642114625E+03  0.67838380745E+03  0.12509000000E+03 0.  0.
         25    1    3    3    0    0  0.25685285585E+02  0.31745356674E+02 -0.17006792568E+04  0.17057622766E+04  0.12509000000E+03 0.  0.
         25    1    4    4    0    0 -0.28768430006E+02 -0.52492215445E+02 -0.84775480430E+03  0.85902198549E+03  0.12509000000E+03 0.  0.
<mgrwt>
<rscale>  2 0.42760393E+03</rscale>
<asrwt>0</asrwt>
<pdfrwt beam="1">  1       21 0.20818270E-02 0.42760393E+03</pdfrwt>
<pdfrwt beam="2">  1       21 0.47485490E+00 0.42760393E+03</pdfrwt>
<totfact> 0.26213896E+03</totfact>
</mgrwt>
</event>
<event>
 7    0  0.4737014E-002  0.4589418E+03  0.7546771E-02  0.1025089E+00
         21   -1    0    0  502  501  0.00000000000E+00  0.00000000000E+00  0.12823249595E+03  0.12823249595E+03  0.00000000000E+00 0. -1.
         21   -1    0    0  501  502 -0.00000000000E+00 -0.00000000000E+00 -0.41063615516E+03  0.41063615516E+03  0.00000000000E+00 0. -1.
      99926    2    1    2    0    0 -0.14210854715E-13  0.00000000000E+00 -0.28240365921E+03  0.53886865110E+03  0.45894182246E+03 0.  0.
      99925    2    3    3    0    0  0.96212879183E+02 -0.48698518538E+02 -0.22978215867E+03  0.36553373181E+03  0.26303346710E+03 0.  0.
         25    1    4    4    0    0  0.91345236635E+02 -0.26618192285E+02 -0.12739729614E+03  0.20231178804E+03  0.12509000000E+03 0.  0.
         25    1    4    4    0    0  0.48676425485E+01 -0.22080326253E+02 -0.10238486253E+03  0.16322194377E+03  0.12509000000E+03 0.  0.
         25    1    3    3    0    0 -0.96212879183E+02  0.48698518538E+02 -0.52621500536E+02  0.17333491930E+03  0.12509000000E+03 0.  0.
<mgrwt>
<rscale>  2 0.45894182E+03</rscale>
<asrwt>0</asrwt>
<pdfrwt beam="1">  1       21 0.18857720E-01 0.45894182E+03</pdfrwt>
<pdfrwt beam="2">  1       21 0.60387671E-01 0.45894182E+03</pdfrwt>
<totfact> 0.60691873E+04</totfact>
</mgrwt>
</event>
<event>
 7    0  0.4737014E-002  0.4567259E+03  0.7546771E-02  0.1025735E+00
         21   -1    0    0  502  501  0.00000000000E+00  0.00000000000E+00  0.13074228597E+04  0.13074228597E+04  0.00000000000E+00 0.  1.
         21   -1    0    0  501  502 -0.00000000000E+00 -0.00000000000E+00 -0.39887355864E+02  0.39887355864E+02  0.00000000000E+00 0.  1.
      99926    2    1    2    0    0  0.00000000000E+00 -0.88817841970E-15  0.12675355038E+04  0.13473102155E+04  0.45672591723E+03 0.  0.
      99925    2    3    3    0    0  0.47572164394E+02  0.45493671776E+01  0.11042353218E+04  0.11361272022E+04  0.26299347172E+03 0.  0.
         25    1    3    3    0    0 -0.47572164394E+02 -0.45493671776E+01  0.16330018203E+03  0.21118301333E+03  0.12509000000E+03 0.  0.
         25    1    4    4    0    0  0.10816853089E+02  0.25025285643E+02  0.41236660951E+03  0.43178350822E+03  0.12509000000E+03 0.  0.
         25    1    4    4    0    0  0.36755311304E+02 -0.20475918465E+02  0.69186871226E+03  0.70434369398E+03  0.12509000000E+03 0.  0.
<mgrwt>
<rscale>  2 0.45672592E+03</rscale>
<asrwt>0</asrwt>
<pdfrwt beam="1">  1       21 0.19226804E+00 0.45672592E+03</pdfrwt>
<pdfrwt beam="2">  1       21 0.58657885E-02 0.45672592E+03</pdfrwt>
<totfact> 0.27401048E+04</totfact>
</mgrwt>
</event>
<event>
 7    0  0.4737014E-002  0.4579344E+03  0.7546771E-02  0.1025382E+00
         21   -1    0    0  502  501  0.00000000000E+00  0.00000000000E+00  0.61354389108E+02  0.61354389108E+02  0.00000000000E+00 0.  1.
         21   -1    0    0  501  502 -0.00000000000E+00 -0.00000000000E+00 -0.85447811240E+03  0.85447811240E+03  0.00000000000E+00 0.  1.
      99926    2    1    2    0    0  0.00000000000E+00  0.00000000000E+00 -0.79312372329E+03  0.91583250151E+03  0.45793441710E+03 0.  0.
      99925    2    3    3    0    0  0.67939498248E+02  0.52816896525E+02 -0.34287693219E+03  0.44067454779E+03  0.26310466827E+03 0.  0.
         25    1    3    3    0    0 -0.67939498248E+02 -0.52816896525E+02 -0.45024679110E+03  0.47515795372E+03  0.12509000000E+03 0.  0.
         25    1    4    4    0    0  0.53962801499E+02 -0.90771720766E+01 -0.16635864638E+03  0.21521404769E+03  0.12509000000E+03 0.  0.
         25    1    4    4    0    0  0.13976696748E+02  0.61894068602E+02 -0.17651828580E+03  0.22546050009E+03  0.12509000000E+03 0.  0.
<mgrwt>
<rscale>  2 0.45793442E+03</rscale>
<asrwt>0</asrwt>
<pdfrwt beam="1">  1       21 0.90227053E-02 0.45793442E+03</pdfrwt>
<pdfrwt beam="2">  1       21 0.12565853E+00 0.45793442E+03</pdfrwt>
<totfact> 0.41592687E+04</totfact>
</mgrwt>
</event>
<event>
 7    0  0.4737014E-002  0.4631396E+03  0.7546771E-02  0.1023875E+00
         21   -1    0    0  502  501  0.00000000000E+00  0.00000000000E+00  0.14047325679E+03  0.14047325679E+03  0.00000000000E+00 0.  1.
         21   -1    0    0  501  502 -0.00000000000E+00 -0.00000000000E+00 -0.38174222851E+03  0.38174222851E+03  0.00000000000E+00 0.  1.
      99926    2    1    2    0    0  0.00000000000E+00  0.00000000000E+00 -0.24126897172E+03  0.52221548530E+03  0.46313960787E+03 0.  0.
      99925    2    3    3    0    0 -0.52685573585E+02  0.29666990639E+02 -0.32899681595E+02  0.27177353761E+03  0.26291170894E+03 0.  0.
         25    1    4    4    0    0 -0.24806049459E+02  0.86753441929E+01  0.23887601071E+02  0.13003356210E+03  0.12509000000E+03 0.  0.
         25    1    4    4    0    0 -0.27879524126E+02  0.20991646446E+02 -0.56787282665E+02  0.14173997551E+03  0.12509000000E+03 0.  0.
         25    1    3    3    0    0  0.52685573585E+02 -0.29666990639E+02 -0.20836929012E+03  0.25044194769E+03  0.12509000000E+03 0.  0.
<mgrwt>
<rscale>  2 0.46313961E+03</rscale>
<asrwt>0</asrwt>
<pdfrwt beam="1">  1       21 0.20657832E-01 0.46313961E+03</pdfrwt>
<pdfrwt beam="2">  1       21 0.56138563E-01 0.46313961E+03</pdfrwt>
<totfact> 0.59781377E+04</totfact>
</mgrwt>
</event>
<event>
 7    0  0.4737014E-002  0.4523396E+03  0.7546771E-02  0.1027027E+00
         21   -1    0    0  502  501  0.00000000000E+00  0.00000000000E+00  0.18621940728E+03  0.18621940728E+03  0.00000000000E+00 0.  1.
         21   -1    0    0  501  502 -0.00000000000E+00 -0.00000000000E+00 -0.27469096443E+03  0.27469096443E+03  0.00000000000E+00 0.  1.
      99926    2    1    2    0    0  0.35527136788E-14 -0.14210854715E-13 -0.88471557153E+02  0.46091037171E+03  0.45233964488E+03 0.  0.
      99925    2    3    3    0    0  0.18998138311E+02 -0.99779995289E+02 -0.10899023538E+02  0.28207530023E+03  0.26292719443E+03 0.  0.
         25    1    4    4    0    0 -0.14217683925E+02 -0.17080193426E+02 -0.18017040062E+02  0.12831990249E+03  0.12509000000E+03 0.  0.
         25    1    3    3    0    0 -0.18998138311E+02  0.99779995289E+02 -0.77572533615E+02  0.17883507148E+03  0.12509000000E+03 0.  0.
         25    1    4    4    0    0  0.33215822236E+02 -0.82699801863E+02  0.71180165239E+01  0.15375539774E+03  0.12509000000E+03 0.  0.
<mgrwt>
<rscale>  2 0.45233964E+03</rscale>
<asrwt>0</asrwt>
<pdfrwt beam="1">  1       21 0.27385207E-01 0.45233964E+03</pdfrwt>
<pdfrwt beam="2">  1       21 0.40395730E-01 0.45233964E+03</pdfrwt>
<totfact> 0.69574620E+04</totfact>
</mgrwt>
</event>
<event>
 7    0  0.4737014E-002  0.4551161E+03  0.7546771E-02  0.1026207E+00
         21   -1    0    0  502  501  0.00000000000E+00  0.00000000000E+00  0.62088095000E+02  0.62088095000E+02  0.00000000000E+00 0.  1.
         21   -1    0    0  501  502 -0.00000000000E+00 -0.00000000000E+00 -0.83401915666E+03  0.83401915666E+03  0.00000000000E+00 0.  1.
      99926    2    1    2    0    0 -0.71054273576E-14  0.00000000000E+00 -0.77193106166E+03  0.89610725166E+03  0.45511607588E+03 0.  0.
      99925    2    3    3    0    0  0.63676949287E+02  0.93683386153E+02 -0.48132629922E+03  0.56005670968E+03  0.26297752951E+03 0.  0.
         25    1    4    4    0    0  0.25026693556E+02  0.19397708426E+02 -0.28338324756E+03  0.31137787265E+03  0.12509000000E+03 0.  0.
         25    1    3    3    0    0 -0.63676949287E+02 -0.93683386153E+02 -0.29060476244E+03  0.33605054198E+03  0.12509000000E+03 0.  0.
         25    1    4    4    0    0  0.38650255731E+02  0.74285677726E+02 -0.19794305166E+03  0.24867883702E+03  0.12509000000E+03 0.  0.
<mgrwt>
<rscale>  2 0.45511608E+03</rscale>
<asrwt>0</asrwt>
<pdfrwt beam="1">  1       21 0.91306029E-02 0.45511608E+03</pdfrwt>
<pdfrwt beam="2">  1       21 0.12264987E+00 0.45511608E+03</pdfrwt>
<totfact> 0.43362997E+04</totfact>
</mgrwt>
</event>
<event>
 7    0  0.4737014E-002  0.4604321E+03  0.7546771E-02  0.1024656E+00
         21   -1    0    0  502  501  0.00000000000E+00  0.00000000000E+00  0.71866657937E+03  0.71866657937E+03  0.00000000000E+00 0.  1.
         21   -1    0    0  501  502 -0.00000000000E+00 -0.00000000000E+00 -0.73746890298E+02  0.73746890298E+02  0.00000000000E+00 0.  1.
      99926    2    1    2    0    0 -0.14210854715E-13  0.00000000000E+00  0.64491968908E+03  0.79241346967E+03  0.46043208138E+03 0.  0.
      99925    2    3    3    0    0  0.64394618136E+02 -0.96166785763E+02  0.44489759294E+03  0.52963777717E+03  0.26303533844E+03 0.  0.
         25    1    4    4    0    0  0.15833766066E+02 -0.83646282533E+02  0.21014842506E+03  0.25895419939E+03  0.12509000000E+03 0.  0.
         25    1    3    3    0    0 -0.64394618136E+02  0.96166785763E+02  0.20002209613E+03  0.26277569250E+03  0.12509000000E+03 0.  0.
         25    1    4    4    0    0  0.48560852070E+02 -0.12520503230E+02  0.23474916789E+03  0.27068357778E+03  0.12509000000E+03 0.  0.
<mgrwt>
<rscale>  2 0.46043208E+03</rscale>
<asrwt>0</asrwt>
<pdfrwt beam="1">  1       21 0.10568626E+00 0.46043208E+03</pdfrwt>
<pdfrwt beam="2">  1       21 0.10845131E-01 0.46043208E+03</pdfrwt>
<totfact> 0.46135438E+04</totfact>
</mgrwt>
</event>
<event>
 7    0  0.4737014E-002  0.4616789E+03  0.7546771E-02  0.1024295E+00
         21   -1    0    0  502  501  0.00000000000E+00  0.00000000000E+00  0.37958197546E+02  0.37958197546E+02  0.00000000000E+00 0. -1.
         21   -1    0    0  501  502 -0.00000000000E+00 -0.00000000000E+00 -0.14038296924E+04  0.14038296924E+04  0.00000000000E+00 0. -1.
      99926    2    1    2    0    0  0.00000000000E+00 -0.14210854715E-13 -0.13658714948E+04  0.14417878899E+04  0.46167887014E+03 0.  0.
      99925    2    3    3    0    0 -0.52937290272E+02  0.10020875809E+03 -0.73939804243E+03  0.79297308849E+03  0.26315908120E+03 0.  0.
         25    1    4    4    0    0  0.77667078198E+00  0.64448381244E+02 -0.44379266112E+03  0.46556807368E+03  0.12509000000E+03 0.  0.
         25    1    4    4    0    0 -0.53713961054E+02  0.35760376842E+02 -0.29560538131E+03  0.32740501481E+03  0.12509000000E+03 0.  0.
         25    1    3    3    0    0  0.52937290272E+02 -0.10020875809E+03 -0.62647345240E+03  0.64881480143E+03  0.12509000000E+03 0.  0.
<mgrwt>
<rscale>  2 0.46167887E+03</rscale>
<asrwt>0</asrwt>
<pdfrwt beam="1">  1       21 0.55820882E-02 0.46167887E+03</pdfrwt>
<pdfrwt beam="2">  1       21 0.20644553E+00 0.46167887E+03</pdfrwt>
<totfact> 0.23971132E+04</totfact>
</mgrwt>
</event>
<event>
 7    0  0.4737014E-002  0.4572900E+03  0.7546771E-02  0.1025570E+00
         21   -1    0    0  502  501  0.00000000000E+00  0.00000000000E+00  0.83315816966E+02  0.83315816966E+02  0.00000000000E+00 0. -1.
         21   -1    0    0  501  502 -0.00000000000E+00 -0.00000000000E+00 -0.62747439521E+03  0.62747439521E+03  0.00000000000E+00 0. -1.
      99926    2    1    2    0    0  0.00000000000E+00  0.00000000000E+00 -0.54415857824E+03  0.71079021217E+03  0.45729002553E+03 0.  0.
      99925    2    3    3    0    0  0.59291725560E+02 -0.96982322035E+02 -0.37223838082E+03  0.46969864889E+03  0.26293407748E+03 0.  0.
         25    1    3    3    0    0 -0.59291725560E+02  0.96982322035E+02 -0.17192019742E+03  0.24109156328E+03  0.12509000000E+03 0.  0.
         25    1    4    4    0    0  0.37479854753E+02 -0.88396394518E+02 -0.18195051387E+03  0.24077408431E+03  0.12509000000E+03 0.  0.
         25    1    4    4    0    0  0.21811870807E+02 -0.85859275161E+01 -0.19028786695E+03  0.22892456458E+03  0.12509000000E+03 0.  0.
<mgrwt>
<rscale>  2 0.45729003E+03</rscale>
<asrwt>0</asrwt>
<pdfrwt beam="1">  1       21 0.12252326E-01 0.45729003E+03</pdfrwt>
<pdfrwt beam="2">  1       21 0.92275644E-01 0.45729003E+03</pdfrwt>
<totfact> 0.51388900E+04</totfact>
</mgrwt>
</event>
<event>
 7    0  0.4737014E-002  0.3920346E+03  0.7546771E-02  0.1046573E+00
         21   -1    0    0  502  501  0.00000000000E+00  0.00000000000E+00  0.11300339243E+03  0.11300339243E+03  0.00000000000E+00 0.  1.
         21   -1    0    0  501  502 -0.00000000000E+00 -0.00000000000E+00 -0.34001434317E+03  0.34001434317E+03  0.00000000000E+00 0.  1.
      99926    2    1    2    0    0  0.00000000000E+00  0.00000000000E+00 -0.22701095074E+03  0.45301773560E+03  0.39203456100E+03 0.  0.
      99925    2    3    3    0    0 -0.14142398476E+02 -0.19404886916E+02 -0.16430407013E+03  0.31104513949E+03  0.26301462748E+03 0.  0.
         25    1    4    4    0    0 -0.28190946503E+02 -0.40906508499E+02 -0.66088174093E+02  0.14994407877E+03  0.12509000000E+03 0.  0.
         25    1    3    3    0    0  0.14142398476E+02  0.19404886916E+02 -0.62706880611E+02  0.14197259611E+03  0.12509000000E+03 0.  0.
         25    1    4    4    0    0  0.14048548027E+02  0.21501621582E+02 -0.98215896034E+02  0.16110106072E+03  0.12509000000E+03 0.  0.
<mgrwt>
<rscale>  2 0.39203456E+03</rscale>
<asrwt>0</asrwt>
<pdfrwt beam="1">  1       21 0.16618146E-01 0.39203456E+03</pdfrwt>
<pdfrwt beam="2">  1       21 0.50002109E-01 0.39203456E+03</pdfrwt>
<totfact> 0.11722077E+05</totfact>
</mgrwt>
</event>
<event>
 7    0  0.4737014E-002  0.4552466E+03  0.7546771E-02  0.1026169E+00
         21   -1    0    0  502  501  0.00000000000E+00  0.00000000000E+00  0.49251344229E+02  0.49251344229E+02  0.00000000000E+00 0.  1.
         21   -1    0    0  501  502 -0.00000000000E+00 -0.00000000000E+00 -0.10519989681E+04  0.10519989681E+04  0.00000000000E+00 0.  1.
      99926    2    1    2    0    0  0.00000000000E+00 -0.14210854715E-13 -0.10027476238E+04  0.11012503123E+04  0.45524658508E+03 0.  0.
      99925    2    3    3    0    0  0.81960372653E+02  0.64574747686E+02 -0.73805646544E+03  0.79045083006E+03  0.26305468603E+03 0.  0.
         25    1    4    4    0    0  0.58006242982E+02 -0.45597883411E+01 -0.37127970635E+03  0.39608287560E+03  0.12509000000E+03 0.  0.
         25    1    4    4    0    0  0.23954129671E+02  0.69134536027E+02 -0.36677675908E+03  0.39436795446E+03  0.12509000000E+03 0.  0.
         25    1    3    3    0    0 -0.81960372653E+02 -0.64574747686E+02 -0.26469115841E+03  0.31079948225E+03  0.12509000000E+03 0.  0.
<mgrwt>
<rscale>  2 0.45524659E+03</rscale>
<asrwt>0</asrwt>
<pdfrwt beam="1">  1       21 0.72428449E-02 0.45524659E+03</pdfrwt>
<pdfrwt beam="2">  1       21 0.15470573E+00 0.45524659E+03</pdfrwt>
<totfact> 0.35382784E+04</totfact>
</mgrwt>
</event>
<event>
 7    0  0.4737014E-002  0.4482399E+03  0.7546771E-02  0.1028248E+00
         21   -1    0    0  502  501  0.00000000000E+00  0.00000000000E+00  0.30164178866E+03  0.30164178866E+03  0.00000000000E+00 0. -1.
         21   -1    0    0  501  502 -0.00000000000E+00 -0.00000000000E+00 -0.16652121908E+03  0.16652121908E+03  0.00000000000E+00 0. -1.
      99926    2    1    2    0    0  0.14210854715E-13  0.00000000000E+00  0.13512056959E+03  0.46816300774E+03  0.44823992848E+03 0.  0.
      99925    2    3    3    0    0  0.86002407285E+02 -0.60973254872E+02  0.10302133283E+03  0.30145361697E+03  0.26295767017E+03 0.  0.
         25    1    4    4    0    0  0.35683698819E+02  0.71274745385E+01  0.65476467020E+02  0.14580398859E+03  0.12509000000E+03 0.  0.
         25    1    3    3    0    0 -0.86002407285E+02  0.60973254872E+02  0.32099236759E+02  0.16670939076E+03  0.12509000000E+03 0.  0.
         25    1    4    4    0    0  0.50318708466E+02 -0.68100729411E+02  0.37544865809E+02  0.15564962839E+03  0.12509000000E+03 0.  0.
<mgrwt>
<rscale>  2 0.44823993E+03</rscale>
<asrwt>0</asrwt>
<pdfrwt beam="1">  1       21 0.44359087E-01 0.44823993E+03</pdfrwt>
<pdfrwt beam="2">  1       21 0.24488414E-01 0.44823993E+03</pdfrwt>
<totfact> 0.71321918E+04</totfact>
</mgrwt>
</event>
<event>
 7    0  0.4737014E-002  0.4645467E+03  0.7546771E-02  0.1023471E+00
         21   -1    0    0  502  501  0.00000000000E+00  0.00000000000E+00  0.37825039524E+03  0.37825039524E+03  0.00000000000E+00 0. -1.
         21   -1    0    0  501  502 -0.00000000000E+00 -0.00000000000E+00 -0.14263278205E+03  0.14263278205E+03  0.00000000000E+00 0. -1.
      99926    2    1    2    0    0  0.00000000000E+00 -0.88817841970E-15  0.23561761318E+03  0.52088317729E+03  0.46454668736E+03 0.  0.
      99925    2    3    3    0    0 -0.24412976240E+02  0.36983365175E+01  0.13180078102E+02  0.26449355929E+03  0.26300847391E+03 0.  0.
         25    1    4    4    0    0 -0.40966653949E+02 -0.16541941890E+02  0.28788040897E+02  0.13575036639E+03  0.12509000000E+03 0.  0.
         25    1    3    3    0    0  0.24412976240E+02 -0.36983365175E+01  0.22243753508E+03  0.25638961799E+03  0.12509000000E+03 0.  0.
         25    1    4    4    0    0  0.16553677709E+02  0.20240278408E+02 -0.15607962794E+02  0.12874319290E+03  0.12509000000E+03 0.  0.
<mgrwt>
<rscale>  2 0.46454669E+03</rscale>
<asrwt>0</asrwt>
<pdfrwt beam="1">  1       21 0.55625058E-01 0.46454669E+03</pdfrwt>
<pdfrwt beam="2">  1       21 0.20975409E-01 0.46454669E+03</pdfrwt>
<totfact> 0.59212838E+04</totfact>
</mgrwt>
</event>
<event>
 7    0  0.4737014E-002  0.4571645E+03  0.7546771E-02  0.1025607E+00
         21   -1    0    0  502  501  0.00000000000E+00  0.00000000000E+00  0.42987134259E+03  0.42987134259E+03  0.00000000000E+00 0. -1.
         21   -1    0    0  501  502 -0.00000000000E+00 -0.00000000000E+00 -0.12154764000E+03  0.12154764000E+03  0.00000000000E+00 0. -1.
      99926    2    1    2    0    0  0.00000000000E+00 -0.35527136788E-14  0.30832370258E+03  0.55141898259E+03  0.45716450955E+03 0.  0.
      99925    2    3    3    0    0 -0.75608618009E+02  0.29580295069E+02  0.94802632128E+02  0.29097625837E+03  0.26284593758E+03 0.  0.
         25    1    4    4    0    0 -0.49009439924E+02  0.40712634424E+02  0.18380029060E+02  0.14157957964E+03  0.12509000000E+03 0.  0.
         25    1    3    3    0    0  0.75608618009E+02 -0.29580295069E+02  0.21352107045E+03  0.26044272422E+03  0.12509000000E+03 0.  0.
         25    1    4    4    0    0 -0.26599178085E+02 -0.11132339355E+02  0.76422603068E+02  0.14939667872E+03  0.12509000000E+03 0.  0.
<mgrwt>
<rscale>  2 0.45716451E+03</rscale>
<asrwt>0</asrwt>
<pdfrwt beam="1">  1       21 0.63216373E-01 0.45716451E+03</pdfrwt>
<pdfrwt beam="2">  1       21 0.17874653E-01 0.45716451E+03</pdfrwt>
<totfact> 0.60726214E+04</totfact>
</mgrwt>
</event>
<event>
 7    0  0.4737014E-002  0.4538624E+03  0.7546771E-02  0.1026576E+00
         21   -1    0    0  502  501  0.00000000000E+00  0.00000000000E+00  0.15983162132E+03  0.15983162132E+03  0.00000000000E+00 0. -1.
         21   -1    0    0  501  502 -0.00000000000E+00 -0.00000000000E+00 -0.32220011122E+03  0.32220011122E+03  0.00000000000E+00 0. -1.
      99926    2    1    2    0    0  0.00000000000E+00  0.00000000000E+00 -0.16236848990E+03  0.48203173254E+03  0.45386238517E+03 0.  0.
      99925    2    3    3    0    0  0.83147335460E+02  0.74241061931E+02 -0.90028965267E+02  0.29953315832E+03  0.26303931964E+03 0.  0.
         25    1    4    4    0    0  0.30958616691E+02  0.49288412364E+02 -0.59587037306E+01  0.13809705931E+03  0.12509000000E+03 0.  0.
         25    1    4    4    0    0  0.52188718769E+02  0.24952649567E+02 -0.84070261536E+02  0.16143609901E+03  0.12509000000E+03 0.  0.
         25    1    3    3    0    0 -0.83147335460E+02 -0.74241061931E+02 -0.72339524630E+02  0.18249857423E+03  0.12509000000E+03 0.  0.
<mgrwt>
<rscale>  2 0.45386239E+03</rscale>
<asrwt>0</asrwt>
<pdfrwt beam="1">  1       21 0.23504651E-01 0.45386239E+03</pdfrwt>
<pdfrwt beam="2">  1       21 0.47382369E-01 0.45386239E+03</pdfrwt>
<totfact> 0.67156910E+04</totfact>
</mgrwt>
</event>
<event>
 7    0  0.4737014E-002  0.4562448E+03  0.7546771E-02  0.1025876E+00
         21   -1    0    0  502  501  0.00000000000E+00  0.00000000000E+00  0.19020512352E+03  0.19020512352E+03  0.00000000000E+00 0. -1.
         21   -1    0    0  501  502 -0.00000000000E+00 -0.00000000000E+00 -0.27359847479E+03  0.27359847479E+03  0.00000000000E+00 0. -1.
      99926    2    1    2    0    0  0.00000000000E+00  0.00000000000E+00 -0.83393351262E+02  0.46380359831E+03  0.45624481013E+03 0.  0.
      99925    2    3    3    0    0 -0.74855950515E+02 -0.56793363057E+02 -0.11879833453E+03  0.30339811101E+03  0.26288489889E+03 0.  0.
         25    1    4    4    0    0 -0.17752157540E+02  0.19234885340E+01 -0.77688708310E+02  0.14833031519E+03  0.12509000000E+03 0.  0.
         25    1    4    4    0    0 -0.57103792975E+02 -0.58716851590E+02 -0.41109626223E+02  0.15506779582E+03  0.12509000000E+03 0.  0.
         25    1    3    3    0    0  0.74855950515E+02  0.56793363057E+02  0.35404983271E+02  0.16040548730E+03  0.12509000000E+03 0.  0.
<mgrwt>
<rscale>  2 0.45624481E+03</rscale>
<asrwt>0</asrwt>
<pdfrwt beam="1">  1       21 0.27971342E-01 0.45624481E+03</pdfrwt>
<pdfrwt beam="2">  1       21 0.40235070E-01 0.45624481E+03</pdfrwt>
<totfact> 0.67231293E+04</totfact>
</mgrwt>
</event>
<event>
 7    0  0.4737014E-002  0.4524708E+03  0.7546771E-02  0.1026988E+00
         21   -1    0    0  502  501  0.00000000000E+00  0.00000000000E+00  0.19174577200E+03  0.19174577200E+03  0.00000000000E+00 0.  1.
         21   -1    0    0  501  502 -0.00000000000E+00 -0.00000000000E+00 -0.26692869960E+03  0.26692869960E+03  0.00000000000E+00 0.  1.
      99926    2    1    2    0    0  0.71054273576E-14  0.00000000000E+00 -0.75182927606E+02  0.45867447160E+03  0.45247077065E+03 0.  0.
      99925    2    3    3    0    0  0.49574254971E+02  0.95110257345E+02 -0.75517235427E+02  0.29389829714E+03  0.26300149887E+03 0.  0.
         25    1    4    4    0    0  0.46363225315E+02  0.29424119155E+02 -0.67419451367E+02  0.15234243654E+03  0.12509000000E+03 0.  0.
         25    1    3    3    0    0 -0.49574254971E+02 -0.95110257345E+02  0.33430782059E+00  0.16477617446E+03  0.12509000000E+03 0.  0.
         25    1    4    4    0    0  0.32110296565E+01  0.65686138190E+02 -0.80977840596E+01  0.14155586059E+03  0.12509000000E+03 0.  0.
<mgrwt>
<rscale>  2 0.45247077E+03</rscale>
<asrwt>0</asrwt>
<pdfrwt beam="1">  1       21 0.28197908E-01 0.45247077E+03</pdfrwt>
<pdfrwt beam="2">  1       21 0.39254221E-01 0.45247077E+03</pdfrwt>
<totfact> 0.69671860E+04</totfact>
</mgrwt>
</event>
<event>
 7    0  0.4737014E-002  0.4529720E+03  0.7546771E-02  0.1026839E+00
         21   -1    0    0  502  501  0.00000000000E+00  0.00000000000E+00  0.20025007385E+03  0.20025007385E+03  0.00000000000E+00 0. -1.
         21   -1    0    0  501  502 -0.00000000000E+00 -0.00000000000E+00 -0.25615928571E+03  0.25615928571E+03  0.00000000000E+00 0. -1.
      99926    2    1    2    0    0  0.00000000000E+00  0.00000000000E+00 -0.55909211867E+02  0.45640935956E+03  0.45297203393E+03 0.  0.
      99925    2    3    3    0    0  0.54619823346E+02 -0.66926330542E+02 -0.10578338584E+03  0.29641748429E+03  0.26307934441E+03 0.  0.
         25    1    3    3    0    0 -0.54619823346E+02  0.66926330542E+02  0.49874173971E+02  0.15999187527E+03  0.12509000000E+03 0.  0.
         25    1    4    4    0    0  0.10875863613E+02 -0.21631342976E+02 -0.12226889987E+02  0.12799689194E+03  0.12509000000E+03 0.  0.
         25    1    4    4    0    0  0.43743959733E+02 -0.45294987566E+02 -0.93556495852E+02  0.16842059235E+03  0.12509000000E+03 0.  0.
<mgrwt>
<rscale>  2 0.45297203E+03</rscale>
<asrwt>0</asrwt>
<pdfrwt beam="1">  1       21 0.29448540E-01 0.45297203E+03</pdfrwt>
<pdfrwt beam="2">  1       21 0.37670483E-01 0.45297203E+03</pdfrwt>
<totfact> 0.69561214E+04</totfact>
</mgrwt>
</event>
<event>
 7    0  0.4737014E-002  0.4680233E+03  0.7546771E-02  0.1022480E+00
         21   -1    0    0  502  501  0.00000000000E+00  0.00000000000E+00  0.45600729689E+02  0.45600729689E+02  0.00000000000E+00 0. -1.
         21   -1    0    0  501  502 -0.00000000000E+00 -0.00000000000E+00 -0.12008898985E+04  0.12008898985E+04  0.00000000000E+00 0. -1.
      99926    2    1    2    0    0  0.00000000000E+00  0.00000000000E+00 -0.11552891688E+04  0.12464906282E+04  0.46802331415E+03 0.  0.
      99925    2    3    3    0    0  0.10573113992E+03  0.65674324854E+02 -0.68927082910E+03  0.74818069257E+03  0.26303589485E+03 0.  0.
         25    1    3    3    0    0 -0.10573113992E+03 -0.65674324854E+02 -0.46601833967E+03  0.49830993558E+03  0.12509000000E+03 0.  0.
         25    1    4    4    0    0  0.90996692178E+02  0.35140090274E+02 -0.32746762229E+03  0.36386505147E+03  0.12509000000E+03 0.  0.
         25    1    4    4    0    0  0.14734447745E+02  0.30534234580E+02 -0.36180320681E+03  0.38431564110E+03  0.12509000000E+03 0.  0.
<mgrwt>
<rscale>  2 0.46802331E+03</rscale>
<asrwt>0</asrwt>
<pdfrwt beam="1">  1       21 0.67059901E-02 0.46802331E+03</pdfrwt>
<pdfrwt beam="2">  1       21 0.17660144E+00 0.46802331E+03</pdfrwt>
<totfact> 0.27783690E+04</totfact>
</mgrwt>
</event>
<event>
 7    0  0.4737014E-002  0.4530412E+03  0.7546771E-02  0.1026819E+00
         21   -1    0    0  502  501  0.00000000000E+00  0.00000000000E+00  0.15512773823E+04  0.15512773823E+04  0.00000000000E+00 0.  1.
         21   -1    0    0  501  502 -0.00000000000E+00 -0.00000000000E+00 -0.33076988388E+02  0.33076988388E+02  0.00000000000E+00 0.  1.
      99926    2    1    2    0    0  0.00000000000E+00  0.00000000000E+00  0.15182003940E+04  0.15843543707E+04  0.45304120767E+03 0.  0.
      99925    2    3    3    0    0  0.24479956933E+02  0.10814696465E+03  0.97390754436E+03  0.10149711531E+04  0.26339229770E+03 0.  0.
         25    1    3    3    0    0 -0.24479956933E+02 -0.10814696465E+03  0.54429284959E+03  0.56938321759E+03  0.12509000000E+03 0.  0.
         25    1    4    4    0    0 -0.17783794208E+02  0.44946142230E+02  0.56354875142E+03  0.57928500962E+03  0.12509000000E+03 0.  0.
         25    1    4    4    0    0  0.42263751141E+02  0.63200822424E+02  0.41035879294E+03  0.43568614352E+03  0.12509000000E+03 0.  0.
<mgrwt>
<rscale>  2 0.45304121E+03</rscale>
<asrwt>0</asrwt>
<pdfrwt beam="1">  1       21 0.22812898E+00 0.45304121E+03</pdfrwt>
<pdfrwt beam="2">  1       21 0.48642640E-02 0.45304121E+03</pdfrwt>
<totfact> 0.22119891E+04</totfact>
</mgrwt>
</event>
<event>
 7    0  0.4737014E-002  0.4552199E+03  0.7546771E-02  0.1026177E+00
         21   -1    0    0  502  501  0.00000000000E+00  0.00000000000E+00  0.24507765621E+03  0.24507765621E+03  0.00000000000E+00 0.  1.
         21   -1    0    0  501  502 -0.00000000000E+00 -0.00000000000E+00 -0.21138726501E+03  0.21138726501E+03  0.00000000000E+00 0.  1.
      99926    2    1    2    0    0  0.00000000000E+00 -0.88817841970E-15  0.33690391205E+02  0.45646492122E+03  0.45521992690E+03 0.  0.
      99925    2    3    3    0    0  0.63703489056E+02  0.46515282553E+01  0.11513970816E+03  0.29410337847E+03  0.26298264885E+03 0.  0.
         25    1    4    4    0    0  0.34698952458E+02  0.30982367110E+02  0.27049413248E+02  0.13617306353E+03  0.12509000000E+03 0.  0.
         25    1    4    4    0    0  0.29004536598E+02 -0.26330838855E+02  0.88090294915E+02  0.15793031494E+03  0.12509000000E+03 0.  0.
         25    1    3    3    0    0 -0.63703489056E+02 -0.46515282553E+01 -0.81449316958E+02  0.16236154276E+03  0.12509000000E+03 0.  0.
<mgrwt>
<rscale>  2 0.45521993E+03</rscale>
<asrwt>0</asrwt>
<pdfrwt beam="1">  1       21 0.36040832E-01 0.45521993E+03</pdfrwt>
<pdfrwt beam="2">  1       21 0.31086363E-01 0.45521993E+03</pdfrwt>
<totfact> 0.68318682E+04</totfact>
</mgrwt>
</event>
<event>
 7    0  0.4737014E-002  0.4580690E+03  0.7546771E-02  0.1025343E+00
         21   -1    0    0  502  501  0.00000000000E+00  0.00000000000E+00  0.18193554066E+03  0.18193554066E+03  0.00000000000E+00 0.  1.
         21   -1    0    0  501  502 -0.00000000000E+00 -0.00000000000E+00 -0.28832630366E+03  0.28832630366E+03  0.00000000000E+00 0.  1.
      99926    2    1    2    0    0 -0.35527136788E-14  0.00000000000E+00 -0.10639076300E+03  0.47026184431E+03  0.45806899891E+03 0.  0.
      99925    2    3    3    0    0 -0.30725724000E+02 -0.29250903311E+02  0.44116022239E+02  0.27001328386E+03  0.26298529347E+03 0.  0.
         25    1    4    4    0    0 -0.37966887614E+01  0.19922363713E+02  0.39947729807E+02  0.13287078173E+03  0.12509000000E+03 0.  0.
         25    1    4    4    0    0 -0.26929035239E+02 -0.49173267024E+02  0.41682924325E+01  0.13714250213E+03  0.12509000000E+03 0.  0.
         25    1    3    3    0    0  0.30725724000E+02  0.29250903311E+02 -0.15050678524E+03  0.20024856045E+03  0.12509000000E+03 0.  0.
<mgrwt>
<rscale>  2 0.45806900E+03</rscale>
<asrwt>0</asrwt>
<pdfrwt beam="1">  1       21 0.26755227E-01 0.45806900E+03</pdfrwt>
<pdfrwt beam="2">  1       21 0.42400927E-01 0.45806900E+03</pdfrwt>
<totfact> 0.65799892E+04</totfact>
</mgrwt>
</event>
<event>
 7    0  0.4737014E-002  0.4634930E+03  0.7546771E-02  0.1023773E+00
         21   -1    0    0  502  501  0.00000000000E+00  0.00000000000E+00  0.29208405939E+03  0.29208405939E+03  0.00000000000E+00 0. -1.
         21   -1    0    0  501  502 -0.00000000000E+00 -0.00000000000E+00 -0.18387324192E+03  0.18387324192E+03  0.00000000000E+00 0. -1.
      99926    2    1    2    0    0  0.00000000000E+00  0.00000000000E+00  0.10821081747E+03  0.47595730131E+03  0.46349301144E+03 0.  0.
      99925    2    3    3    0    0 -0.27279449846E+02 -0.72095001956E+02  0.16301695836E+03  0.31913549521E+03  0.26330795259E+03 0.  0.
         25    1    3    3    0    0  0.27279449846E+02  0.72095001956E+02 -0.54806140898E+02  0.15682180611E+03  0.12509000000E+03 0.  0.
         25    1    4    4    0    0 -0.12515438232E+02 -0.73844953386E+02  0.65526373916E+02  0.15984657367E+03  0.12509000000E+03 0.  0.
         25    1    4    4    0    0 -0.14764011614E+02  0.17499514300E+01  0.97490584447E+02  0.15928892154E+03  0.12509000000E+03 0.  0.
<mgrwt>
<rscale>  2 0.46349301E+03</rscale>
<asrwt>0</asrwt>
<pdfrwt beam="1">  1       21 0.42953538E-01 0.46349301E+03</pdfrwt>
<pdfrwt beam="2">  1       21 0.27040183E-01 0.46349301E+03</pdfrwt>
<totfact> 0.62665562E+04</totfact>
</mgrwt>
</event>
<event>
 7    0  0.4737014E-002  0.4558059E+03  0.7546771E-02  0.1026005E+00
         21   -1    0    0  502  501  0.00000000000E+00  0.00000000000E+00  0.54658813091E+03  0.54658813091E+03  0.00000000000E+00 0.  1.
         21   -1    0    0  501  502 -0.00000000000E+00 -0.00000000000E+00 -0.95025414569E+02  0.95025414569E+02  0.00000000000E+00 0.  1.
      99926    2    1    2    0    0  0.00000000000E+00  0.00000000000E+00  0.45156271634E+03  0.64161354548E+03  0.45580594001E+03 0.  0.
      99925    2    3    3    0    0  0.11315077847E+02 -0.11336271060E+03  0.29325251239E+03  0.40990518586E+03  0.26276622734E+03 0.  0.
         25    1    4    4    0    0  0.13107611847E+01 -0.58633590985E+02  0.90141621798E+02  0.16496252958E+03  0.12509000000E+03 0.  0.
         25    1    4    4    0    0  0.10004316662E+02 -0.54729119618E+02  0.20311089059E+03  0.24494265628E+03  0.12509000000E+03 0.  0.
         25    1    3    3    0    0 -0.11315077847E+02  0.11336271060E+03  0.15831020395E+03  0.23170835962E+03  0.12509000000E+03 0.  0.
<mgrwt>
<rscale>  2 0.45580594E+03</rscale>
<asrwt>0</asrwt>
<pdfrwt beam="1">  1       21 0.80380606E-01 0.45580594E+03</pdfrwt>
<pdfrwt beam="2">  1       21 0.13974326E-01 0.45580594E+03</pdfrwt>
<totfact> 0.55831310E+04</totfact>
</mgrwt>
</event>
<event>
 7    0  0.4737014E-002  0.4621611E+03  0.7546771E-02  0.1024156E+00
         21   -1    0    0  502  501  0.00000000000E+00  0.00000000000E+00  0.24281014638E+03  0.24281014638E+03  0.00000000000E+00 0. -1.
         21   -1    0    0  501  502 -0.00000000000E+00 -0.00000000000E+00 -0.21991754614E+03  0.21991754614E+03  0.00000000000E+00 0. -1.
      99926    2    1    2    0    0  0.14210854715E-13  0.00000000000E+00  0.22892600243E+02  0.46272769253E+03  0.46216106098E+03 0.  0.
      99925    2    3    3    0    0 -0.91469039823E+02 -0.40114996784E+02  0.80362311907E+02  0.29265102137E+03  0.26307930538E+03 0.  0.
         25    1    4    4    0    0 -0.49024069273E+02 -0.32770691455E+02  0.81161654932E+02  0.16034961777E+03  0.12509000000E+03 0.  0.
         25    1    4    4    0    0 -0.42444970550E+02 -0.73443053285E+01 -0.79934302542E+00  0.13230140360E+03  0.12509000000E+03 0.  0.
         25    1    3    3    0    0  0.91469039823E+02  0.40114996784E+02 -0.57469711664E+02  0.17007667116E+03  0.12509000000E+03 0.  0.
<mgrwt>
<rscale>  2 0.46216106E+03</rscale>
<asrwt>0</asrwt>
<pdfrwt beam="1">  1       21 0.35707374E-01 0.46216106E+03</pdfrwt>
<pdfrwt beam="2">  1       21 0.32340816E-01 0.46216106E+03</pdfrwt>
<totfact> 0.64234010E+04</totfact>
</mgrwt>
</event>
<event>
 7    0  0.4737014E-002  0.4554311E+03  0.7546771E-02  0.1026115E+00
         21   -1    0    0  502  501  0.00000000000E+00  0.00000000000E+00  0.60304027134E+02  0.60304027134E+02  0.00000000000E+00 0. -1.
         21   -1    0    0  501  502 -0.00000000000E+00 -0.00000000000E+00 -0.85988231784E+03  0.85988231784E+03  0.00000000000E+00 0. -1.
      99926    2    1    2    0    0  0.14210854715E-13 -0.71054273576E-14 -0.79957829071E+03  0.92018634498E+03  0.45543107767E+03 0.  0.
      99925    2    3    3    0    0 -0.68908270448E+02  0.53780843774E+02 -0.35631650207E+03  0.45139081357E+03  0.26296670519E+03 0.  0.
         25    1    3    3    0    0  0.68908270448E+02 -0.53780843774E+02 -0.44326178864E+03  0.46879553140E+03  0.12509000000E+03 0.  0.
         25    1    4    4    0    0 -0.54465198007E+02  0.10747372664E+02 -0.23159141248E+03  0.26900567698E+03  0.12509000000E+03 0.  0.
         25    1    4    4    0    0 -0.14443072441E+02  0.43033471110E+02 -0.12472508958E+03  0.18238513659E+03  0.12509000000E+03 0.  0.
<mgrwt>
<rscale>  2 0.45543108E+03</rscale>
<asrwt>0</asrwt>
<pdfrwt beam="1">  1       21 0.88682394E-02 0.45543108E+03</pdfrwt>
<pdfrwt beam="2">  1       21 0.12645328E+00 0.45543108E+03</pdfrwt>
<totfact> 0.42229724E+04</totfact>
</mgrwt>
</event>
<event>
 7    0  0.4737014E-002  0.4556597E+03  0.7546771E-02  0.1026048E+00
         21   -1    0    0  502  501  0.00000000000E+00  0.00000000000E+00  0.48624752999E+02  0.48624752999E+02  0.00000000000E+00 0. -1.
         21   -1    0    0  501  502 -0.00000000000E+00 -0.00000000000E+00 -0.10674902726E+04  0.10674902726E+04  0.00000000000E+00 0. -1.
      99926    2    1    2    0    0  0.00000000000E+00  0.71054273576E-14 -0.10188655196E+04  0.11161150256E+04  0.45565974513E+03 0.  0.
      99925    2    3    3    0    0  0.95723867299E+02 -0.38434504356E+02 -0.75796438711E+03  0.80893888894E+03  0.26311944818E+03 0.  0.
         25    1    3    3    0    0 -0.95723867299E+02  0.38434504356E+02 -0.26090113245E+03  0.30717613662E+03  0.12509000000E+03 0.  0.
         25    1    4    4    0    0  0.34057590586E+02 -0.19611795216E+02 -0.47711411485E+03  0.49480291902E+03  0.12509000000E+03 0.  0.
         25    1    4    4    0    0  0.61666276713E+02 -0.18822709140E+02 -0.28085027226E+03  0.31413596991E+03  0.12509000000E+03 0.  0.
<mgrwt>
<rscale>  2 0.45565975E+03</rscale>
<asrwt>0</asrwt>
<pdfrwt beam="1">  1       21 0.71506991E-02 0.45565975E+03</pdfrwt>
<pdfrwt beam="2">  1       21 0.15698386E+00 0.45565975E+03</pdfrwt>
<totfact> 0.34754911E+04</totfact>
</mgrwt>
</event>
<event>
 7    0  0.4737014E-002  0.4721927E+03  0.7546771E-02  0.1021303E+00
         21   -1    0    0  502  501  0.00000000000E+00  0.00000000000E+00  0.14647317336E+04  0.14647317336E+04  0.00000000000E+00 0.  1.
         21   -1    0    0  501  502 -0.00000000000E+00 -0.00000000000E+00 -0.38055770822E+02  0.38055770822E+02  0.00000000000E+00 0.  1.
      99926    2    1    2    0    0  0.00000000000E+00 -0.71054273576E-14  0.14266759628E+04  0.15027875045E+04  0.47219273680E+03 0.  0.
      99925    2    3    3    0    0 -0.40847885003E+02 -0.53958146069E+02  0.12324736651E+04  0.12620759098E+04  0.26318099451E+03 0.  0.
         25    1    4    4    0    0 -0.49114570927E+02 -0.27958171934E+02  0.50010294850E+03  0.51859846476E+03  0.12509000000E+03 0.  0.
         25    1    3    3    0    0  0.40847885003E+02  0.53958146069E+02  0.19420229777E+03  0.24071159464E+03  0.12509000000E+03 0.  0.
         25    1    4    4    0    0  0.82666859233E+01 -0.25999974134E+02  0.73237071655E+03  0.74347744506E+03  0.12509000000E+03 0.  0.
<mgrwt>
<rscale>  2 0.47219274E+03</rscale>
<asrwt>0</asrwt>
<pdfrwt beam="1">  1       21 0.21540169E+00 0.47219274E+03</pdfrwt>
<pdfrwt beam="2">  1       21 0.55964379E-02 0.47219274E+03</pdfrwt>
<totfact> 0.20792598E+04</totfact>
</mgrwt>
</event>
<event>
 7    0  0.4737014E-002  0.4535085E+03  0.7546771E-02  0.1026681E+00
         21   -1    0    0  502  501  0.00000000000E+00  0.00000000000E+00  0.22298932427E+03  0.22298932427E+03  0.00000000000E+00 0.  1.
         21   -1    0    0  501  502 -0.00000000000E+00 -0.00000000000E+00 -0.23058269290E+03  0.23058269290E+03  0.00000000000E+00 0.  1.
      99926    2    1    2    0    0  0.71054273576E-14  0.00000000000E+00 -0.75933686266E+01  0.45357201717E+03  0.45350845142E+03 0.  0.
      99925    2    3    3    0    0 -0.38917277908E+02  0.54127447020E+02 -0.94894292077E+02  0.28709891310E+03  0.26263382150E+03 0.  0.
         25    1    4    4    0    0  0.10110660377E+02  0.23376131383E+02 -0.74398214695E+02  0.14775409105E+03  0.12509000000E+03 0.  0.
         25    1    4    4    0    0 -0.49027938285E+02  0.30751315637E+02 -0.20496077382E+02  0.13934482206E+03  0.12509000000E+03 0.  0.
         25    1    3    3    0    0  0.38917277908E+02 -0.54127447020E+02  0.87300923451E+02  0.16647310406E+03  0.12509000000E+03 0.  0.
<mgrwt>
<rscale>  2 0.45350845E+03</rscale>
<asrwt>0</asrwt>
<pdfrwt beam="1">  1       21 0.32792548E-01 0.45350845E+03</pdfrwt>
<pdfrwt beam="2">  1       21 0.33909220E-01 0.45350845E+03</pdfrwt>
<totfact> 0.69473665E+04</totfact>
</mgrwt>
</event>
<event>
 7    0  0.4737014E-002  0.4649090E+03  0.7546771E-02  0.1023367E+00
         21   -1    0    0  502  501  0.00000000000E+00  0.00000000000E+00  0.21643240330E+03  0.21643240330E+03  0.00000000000E+00 0.  1.
         21   -1    0    0  501  502 -0.00000000000E+00 -0.00000000000E+00 -0.24966273368E+03  0.24966273368E+03  0.00000000000E+00 0.  1.
      99926    2    1    2    0    0  0.14210854715E-13  0.88817841970E-15 -0.33230330383E+02  0.46609513698E+03  0.46490904687E+03 0.  0.
      99925    2    3    3    0    0  0.11928759816E+03 -0.34255651393E+01  0.59615091699E+01  0.28882479553E+03  0.26295048459E+03 0.  0.
         25    1    4    4    0    0  0.46038092589E+02  0.36886494207E+02  0.24568446917E+01  0.13832448666E+03  0.12509000000E+03 0.  0.
         25    1    4    4    0    0  0.73249505572E+02 -0.40312059346E+02  0.35046644782E+01  0.15050030886E+03  0.12509000000E+03 0.  0.
         25    1    3    3    0    0 -0.11928759816E+03  0.34255651393E+01 -0.39191839553E+02  0.17727034145E+03  0.12509000000E+03 0.  0.
<mgrwt>
<rscale>  2 0.46490905E+03</rscale>
<asrwt>0</asrwt>
<pdfrwt beam="1">  1       21 0.31828295E-01 0.46490905E+03</pdfrwt>
<pdfrwt beam="2">  1       21 0.36715108E-01 0.46490905E+03</pdfrwt>
<totfact> 0.62639687E+04</totfact>
</mgrwt>
</event>
<event>
 7    0  0.4737014E-002  0.4535728E+03  0.7546771E-02  0.1026662E+00
         21   -1    0    0  502  501  0.00000000000E+00  0.00000000000E+00  0.48521171755E+03  0.48521171755E+03  0.00000000000E+00 0.  1.
         21   -1    0    0  501  502 -0.00000000000E+00 -0.00000000000E+00 -0.10599924726E+03  0.10599924726E+03  0.00000000000E+00 0.  1.
      99926    2    1    2    0    0  0.00000000000E+00  0.71054273576E-14  0.37921247030E+03  0.59121096481E+03  0.45357282467E+03 0.  0.
      99925    2    3    3    0    0 -0.94525180854E+02  0.45608294275E+02  0.28930727803E+03  0.40480930704E+03  0.26297670548E+03 0.  0.
         25    1    4    4    0    0 -0.72920559760E+02  0.15598330069E+02  0.10732092172E+03  0.18090330090E+03  0.12509000000E+03 0.  0.
         25    1    3    3    0    0  0.94525180854E+02 -0.45608294275E+02  0.89905192264E+02  0.18640165777E+03  0.12509000000E+03 0.  0.
         25    1    4    4    0    0 -0.21604621094E+02  0.30009964206E+02  0.18198635632E+03  0.22390600615E+03  0.12509000000E+03 0.  0.
<mgrwt>
<rscale>  2 0.45357282E+03</rscale>
<asrwt>0</asrwt>
<pdfrwt beam="1">  1       21 0.71354663E-01 0.45357282E+03</pdfrwt>
<pdfrwt beam="2">  1       21 0.15588125E-01 0.45357282E+03</pdfrwt>
<totfact> 0.59895262E+04</totfact>
</mgrwt>
</event>
<event>
 7    0  0.4737014E-002  0.4581673E+03  0.7546771E-02  0.1025314E+00
         21   -1    0    0  502  501  0.00000000000E+00  0.00000000000E+00  0.39321947366E+03  0.39321947366E+03  0.00000000000E+00 0. -1.
         21   -1    0    0  501  502 -0.00000000000E+00 -0.00000000000E+00 -0.13346062714E+03  0.13346062714E+03  0.00000000000E+00 0. -1.
      99926    2    1    2    0    0  0.00000000000E+00  0.35527136788E-14  0.25975884652E+03  0.52668010079E+03  0.45816729502E+03 0.  0.
      99925    2    3    3    0    0  0.69106612613E+02 -0.21084257974E+02  0.26759209876E+03  0.38201103782E+03  0.26288140265E+03 0.  0.
         25    1    3    3    0    0 -0.69106612613E+02  0.21084257974E+02 -0.78332522367E+01  0.14466906297E+03  0.12509000000E+03 0.  0.
         25    1    4    4    0    0  0.31076758216E+02  0.29690647188E+02  0.12457304006E+03  0.18169548657E+03  0.12509000000E+03 0.  0.
         25    1    4    4    0    0  0.38029854398E+02 -0.50774905161E+02  0.14301905870E+03  0.20031555125E+03  0.12509000000E+03 0.  0.
<mgrwt>
<rscale>  2 0.45816730E+03</rscale>
<asrwt>0</asrwt>
<pdfrwt beam="1">  1       21 0.57826393E-01 0.45816730E+03</pdfrwt>
<pdfrwt beam="2">  1       21 0.19626563E-01 0.45816730E+03</pdfrwt>
<totfact> 0.61863880E+04</totfact>
</mgrwt>
</event>
<event>
 7    0  0.4737014E-002  0.4453809E+03  0.7546771E-02  0.1029109E+00
         21   -1    0    0  502  501  0.00000000000E+00  0.00000000000E+00  0.68110716173E+03  0.68110716173E+03  0.00000000000E+00 0.  1.
         21   -1    0    0  501  502 -0.00000000000E+00 -0.00000000000E+00 -0.72809445518E+02  0.72809445518E+02  0.00000000000E+00 0.  1.
      99926    2    1    2    0    0  0.00000000000E+00  0.11102230246E-14  0.60829771621E+03  0.75391660724E+03  0.44538089220E+03 0.  0.
      99925    2    3    3    0    0  0.10206583014E+03 -0.13728033495E+01  0.41450679980E+03  0.50168309311E+03  0.26353504616E+03 0.  0.
         25    1    4    4    0    0  0.70556953495E+02  0.31205808422E+02  0.18348019835E+03  0.23508419227E+03  0.12509000000E+03 0.  0.
         25    1    3    3    0    0 -0.10206583014E+03  0.13728033495E+01  0.19379091640E+03  0.25223351413E+03  0.12509000000E+03 0.  0.
         25    1    4    4    0    0  0.31508876649E+02 -0.32578611771E+02  0.23102660145E+03  0.26659890084E+03  0.12509000000E+03 0.  0.
<mgrwt>
<rscale>  2 0.44538089E+03</rscale>
<asrwt>0</asrwt>
<pdfrwt beam="1">  1       21 0.10016281E+00 0.44538089E+03</pdfrwt>
<pdfrwt beam="2">  1       21 0.10707272E-01 0.44538089E+03</pdfrwt>
<totfact> 0.54041307E+04</totfact>
</mgrwt>
</event>
<event>
 7    0  0.4737014E-002  0.4451246E+03  0.7546771E-02  0.1029186E+00
         21   -1    0    0  502  501  0.00000000000E+00  0.00000000000E+00  0.21271128033E+04  0.21271128033E+04  0.00000000000E+00 0. -1.
         21   -1    0    0  501  502 -0.00000000000E+00 -0.00000000000E+00 -0.23286950656E+02  0.23286950656E+02  0.00000000000E+00 0. -1.
      99926    2    1    2    0    0  0.00000000000E+00 -0.71054273576E-14  0.21038258527E+04  0.21503997540E+04  0.44512457083E+03 0.  0.
      99925    2    3    3    0    0  0.89362934644E+02  0.52016705103E+02  0.13000127514E+04  0.13303665342E+04  0.26296480711E+03 0.  0.
         25    1    4    4    0    0  0.56307708269E+01  0.73266796172E+01  0.55885675254E+03  0.57275977842E+03  0.12509000000E+03 0.  0.
         25    1    3    3    0    0 -0.89362934644E+02 -0.52016705103E+02  0.80381310128E+03  0.82003321981E+03  0.12509000000E+03 0.  0.
         25    1    4    4    0    0  0.83732163817E+02  0.44690025486E+02  0.74115599886E+03  0.75760675576E+03  0.12509000000E+03 0.  0.
<mgrwt>
<rscale>  2 0.44512457E+03</rscale>
<asrwt>0</asrwt>
<pdfrwt beam="1">  1       21 0.31281057E+00 0.44512457E+03</pdfrwt>
<pdfrwt beam="2">  1       21 0.34245530E-02 0.44512457E+03</pdfrwt>
<totfact> 0.12324456E+04</totfact>
</mgrwt>
</event>
<event>
 7    0  0.4737014E-002  0.4538316E+03  0.7546771E-02  0.1026586E+00
         21   -1    0    0  502  501  0.00000000000E+00  0.00000000000E+00  0.60720417067E+02  0.60720417067E+02  0.00000000000E+00 0. -1.
         21   -1    0    0  501  502 -0.00000000000E+00 -0.00000000000E+00 -0.84799775632E+03  0.84799775632E+03  0.00000000000E+00 0. -1.
      99926    2    1    2    0    0  0.00000000000E+00  0.00000000000E+00 -0.78727733925E+03  0.90871817339E+03  0.45383158742E+03 0.  0.
      99925    2    3    3    0    0 -0.55918999427E+01  0.54363167666E+02 -0.30008842377E+03  0.40276642587E+03  0.26302301874E+03 0.  0.
         25    1    3    3    0    0  0.55918999427E+01 -0.54363167666E+02 -0.48718891548E+03  0.50595174751E+03  0.12509000000E+03 0.  0.
         25    1    4    4    0    0  0.87269893170E+01  0.66876496809E+02 -0.15846876905E+03  0.21285789868E+03  0.12509000000E+03 0.  0.
         25    1    4    4    0    0 -0.14318889260E+02 -0.12513329144E+02 -0.14161965472E+03  0.18990852719E+03  0.12509000000E+03 0.  0.
<mgrwt>
<rscale>  2 0.45383159E+03</rscale>
<asrwt>0</asrwt>
<pdfrwt beam="1">  1       21 0.89294740E-02 0.45383159E+03</pdfrwt>
<pdfrwt beam="2">  1       21 0.12470554E+00 0.45383159E+03</pdfrwt>
<totfact> 0.43253215E+04</totfact>
</mgrwt>
</event>
<event>
 7    0  0.4737014E-002  0.4562779E+03  0.7546771E-02  0.1025866E+00
         21   -1    0    0  502  501  0.00000000000E+00  0.00000000000E+00  0.46921319110E+03  0.46921319110E+03  0.00000000000E+00 0. -1.
         21   -1    0    0  501  502 -0.00000000000E+00 -0.00000000000E+00 -0.11092479039E+03  0.11092479039E+03  0.00000000000E+00 0. -1.
      99926    2    1    2    0    0  0.00000000000E+00  0.00000000000E+00  0.35828840071E+03  0.58013798149E+03  0.45627787529E+03 0.  0.
      99925    2    3    3    0    0  0.80559440469E+02 -0.75035505165E+02  0.18604416362E+03  0.34048044291E+03  0.26304819084E+03 0.  0.
         25    1    3    3    0    0 -0.80559440469E+02  0.75035505165E+02  0.17224423709E+03  0.23965753858E+03  0.12509000000E+03 0.  0.
         25    1    4    4    0    0  0.20627521025E+02 -0.44783185020E+02  0.13244324705E+03  0.18873195297E+03  0.12509000000E+03 0.  0.
         25    1    4    4    0    0  0.59931919444E+02 -0.30252320145E+02  0.53600916571E+02  0.15174848994E+03  0.12509000000E+03 0.  0.
<mgrwt>
<rscale>  2 0.45627788E+03</rscale>
<asrwt>0</asrwt>
<pdfrwt beam="1">  1       21 0.69001939E-01 0.45627788E+03</pdfrwt>
<pdfrwt beam="2">  1       21 0.16312469E-01 0.45627788E+03</pdfrwt>
<totfact> 0.59316272E+04</totfact>
</mgrwt>
</event>
<event>
 7    0  0.4737014E-002  0.4552131E+03  0.7546771E-02  0.1026179E+00
         21   -1    0    0  502  501  0.00000000000E+00  0.00000000000E+00  0.19920731047E+03  0.19920731047E+03  0.00000000000E+00 0. -1.
         21   -1    0    0  501  502 -0.00000000000E+00 -0.00000000000E+00 -0.26005447622E+03  0.26005447622E+03  0.00000000000E+00 0. -1.
      99926    2    1    2    0    0  0.00000000000E+00 -0.71054273576E-14 -0.60847165745E+02  0.45926178669E+03  0.45521314912E+03 0.  0.
      99925    2    3    3    0    0  0.75422666676E+02 -0.62723387187E+02  0.19230565591E+02  0.28126528924E+03  0.26290216113E+03 0.  0.
         25    1    3    3    0    0 -0.75422666676E+02  0.62723387187E+02 -0.80077731336E+02  0.17799649745E+03  0.12509000000E+03 0.  0.
         25    1    4    4    0    0  0.17612794359E+02 -0.50535890399E+02 -0.19881776495E+02  0.13750229045E+03  0.12509000000E+03 0.  0.
         25    1    4    4    0    0  0.57809872317E+02 -0.12187496787E+02  0.39112342086E+02  0.14376299878E+03  0.12509000000E+03 0.  0.
<mgrwt>
<rscale>  2 0.45521315E+03</rscale>
<asrwt>0</asrwt>
<pdfrwt beam="1">  1       21 0.29295193E-01 0.45521315E+03</pdfrwt>
<pdfrwt beam="2">  1       21 0.38243305E-01 0.45521315E+03</pdfrwt>
<totfact> 0.68118534E+04</totfact>
</mgrwt>
</event>
<event>
 7    0  0.4737014E-002  0.4369439E+03  0.7546771E-02  0.1031689E+00
         21   -1    0    0  502  501  0.00000000000E+00  0.00000000000E+00  0.16798719097E+03  0.16798719097E+03  0.00000000000E+00 0. -1.
         21   -1    0    0  501  502 -0.00000000000E+00 -0.00000000000E+00 -0.28412870696E+03  0.28412870696E+03  0.00000000000E+00 0. -1.
      99926    2    1    2    0    0  0.71054273576E-14  0.17763568394E-14 -0.11614151599E+03  0.45211589792E+03  0.43694385614E+03 0.  0.
      99925    2    3    3    0    0  0.46151195566E+02 -0.14978198183E+02  0.10475675698E+02  0.26763364782E+03  0.26299001956E+03 0.  0.
         25    1    3    3    0    0 -0.46151195566E+02  0.14978198183E+02 -0.12661719169E+03  0.18448225010E+03  0.12509000000E+03 0.  0.
         25    1    4    4    0    0  0.48681605384E+02 -0.18012475965E+02 -0.24624052995E+02  0.13765246122E+03  0.12509000000E+03 0.  0.
         25    1    4    4    0    0 -0.25304098176E+01  0.30342777817E+01  0.35099728694E+02  0.12998118660E+03  0.12509000000E+03 0.  0.
<mgrwt>
<rscale>  2 0.43694386E+03</rscale>
<asrwt>0</asrwt>
<pdfrwt beam="1">  1       21 0.24703999E-01 0.43694386E+03</pdfrwt>
<pdfrwt beam="2">  1       21 0.41783633E-01 0.43694386E+03</pdfrwt>
<totfact> 0.79592525E+04</totfact>
</mgrwt>
</event>
<event>
 7    0  0.4737014E-002  0.4554049E+03  0.7546771E-02  0.1026122E+00
         21   -1    0    0  502  501  0.00000000000E+00  0.00000000000E+00  0.19146330082E+02  0.19146330082E+02  0.00000000000E+00 0.  1.
         21   -1    0    0  501  502 -0.00000000000E+00 -0.00000000000E+00 -0.27080072292E+04  0.27080072292E+04  0.00000000000E+00 0.  1.
      99926    2    1    2    0    0  0.00000000000E+00  0.35527136788E-14 -0.26888608991E+04  0.27271535593E+04  0.45540487602E+03 0.  0.
      99925    2    3    3    0    0  0.53371771080E+02  0.28358063493E+02 -0.11155383518E+04  0.11477093305E+04  0.26297940481E+03 0.  0.
         25    1    3    3    0    0 -0.53371771080E+02 -0.28358063493E+02 -0.15733225474E+04  0.15794442288E+04  0.12509000000E+03 0.  0.
         25    1    4    4    0    0 -0.90218970560E+01  0.33361461340E+02 -0.51585474016E+03  0.53192856924E+03  0.12509000000E+03 0.  0.
         25    1    4    4    0    0  0.62393668136E+02 -0.50033978471E+01 -0.59968361160E+03  0.61578076126E+03  0.12509000000E+03 0.  0.
<mgrwt>
<rscale>  2 0.45540488E+03</rscale>
<asrwt>0</asrwt>
<pdfrwt beam="1">  1       21 0.28156385E-02 0.45540488E+03</pdfrwt>
<pdfrwt beam="2">  1       21 0.39823611E+00 0.45540488E+03</pdfrwt>
<totfact> 0.50599131E+03</totfact>
</mgrwt>
</event>
<event>
 7    0  0.4737014E-002  0.4557672E+03  0.7546771E-02  0.1026016E+00
         21   -1    0    0  502  501  0.00000000000E+00  0.00000000000E+00  0.10359883772E+04  0.10359883772E+04  0.00000000000E+00 0. -1.
         21   -1    0    0  501  502 -0.00000000000E+00 -0.00000000000E+00 -0.50126941376E+02  0.50126941376E+02  0.00000000000E+00 0. -1.
      99926    2    1    2    0    0  0.00000000000E+00 -0.35527136788E-14  0.98586143584E+03  0.10861153186E+04  0.45576717148E+03 0.  0.
      99925    2    3    3    0    0  0.16529807573E+02 -0.16641280776E+02  0.35414745880E+03  0.44170844118E+03  0.26293679406E+03 0.  0.
         25    1    3    3    0    0 -0.16529807573E+02  0.16641280776E+02  0.63171397704E+03  0.64440687741E+03  0.12509000000E+03 0.  0.
         25    1    4    4    0    0 -0.35642698620E+01  0.30404887761E+02  0.17721938153E+03  0.21906934635E+03  0.12509000000E+03 0.  0.
         25    1    4    4    0    0  0.20094077435E+02 -0.47046168538E+02  0.17692807726E+03  0.22263909483E+03  0.12509000000E+03 0.  0.
<mgrwt>
<rscale>  2 0.45576717E+03</rscale>
<asrwt>0</asrwt>
<pdfrwt beam="1">  1       21 0.15235122E+00 0.45576717E+03</pdfrwt>
<pdfrwt beam="2">  1       21 0.73716097E-02 0.45576717E+03</pdfrwt>
<totfact> 0.35764879E+04</totfact>
</mgrwt>
</event>
<event>
 7    0  0.4737014E-002  0.4501755E+03  0.7546771E-02  0.1027670E+00
         21   -1    0    0  502  501  0.00000000000E+00  0.00000000000E+00  0.11037215326E+04  0.11037215326E+04  0.00000000000E+00 0. -1.
         21   -1    0    0  501  502 -0.00000000000E+00 -0.00000000000E+00 -0.45903323303E+02  0.45903323303E+02  0.00000000000E+00 0. -1.
      99926    2    1    2    0    0  0.00000000000E+00  0.00000000000E+00  0.10578182093E+04  0.11496248559E+04  0.45017546068E+03 0.  0.
      99925    2    3    3    0    0 -0.10468756534E+03 -0.22988072038E+01  0.74663730492E+03  0.79827626234E+03  0.26232223518E+03 0.  0.
         25    1    4    4    0    0 -0.44738925347E+02  0.85048617702E+00  0.25629343234E+03  0.28867997217E+03  0.12509000000E+03 0.  0.
         25    1    3    3    0    0  0.10468756534E+03  0.22988072038E+01  0.31118090441E+03  0.35134859360E+03  0.12509000000E+03 0.  0.
         25    1    4    4    0    0 -0.59948639993E+02 -0.31492933808E+01  0.49034387257E+03  0.50959629017E+03  0.12509000000E+03 0.  0.
<mgrwt>
<rscale>  2 0.45017546E+03</rscale>
<asrwt>0</asrwt>
<pdfrwt beam="1">  1       21 0.16231197E+00 0.45017546E+03</pdfrwt>
<pdfrwt beam="2">  1       21 0.67504894E-02 0.45017546E+03</pdfrwt>
<totfact> 0.35096089E+04</totfact>
</mgrwt>
</event>
<event>
 7    0  0.4737014E-002  0.4521696E+03  0.7546771E-02  0.1027077E+00
         21   -1    0    0  502  501  0.00000000000E+00  0.00000000000E+00  0.75279503006E+03  0.75279503006E+03  0.00000000000E+00 0. -1.
         21   -1    0    0  501  502 -0.00000000000E+00 -0.00000000000E+00 -0.67899405047E+02  0.67899405047E+02  0.00000000000E+00 0. -1.
      99926    2    1    2    0    0 -0.14210854715E-13  0.00000000000E+00  0.68489562502E+03  0.82069443511E+03  0.45216959059E+03 0.  0.
      99925    2    3    3    0    0  0.73210181321E+02  0.42790137745E+02  0.30348592744E+03  0.41043647718E+03  0.26298986123E+03 0.  0.
         25    1    4    4    0    0  0.72567260403E+02  0.44202439722E+02  0.16502202015E+03  0.22382948464E+03  0.12509000000E+03 0.  0.
         25    1    4    4    0    0  0.64292091792E+00 -0.14123019767E+01  0.13846390729E+03  0.18660699254E+03  0.12509000000E+03 0.  0.
         25    1    3    3    0    0 -0.73210181321E+02 -0.42790137745E+02  0.38140969758E+03  0.41025795793E+03  0.12509000000E+03 0.  0.
<mgrwt>
<rscale>  2 0.45216959E+03</rscale>
<asrwt>0</asrwt>
<pdfrwt beam="1">  1       21 0.11070515E+00 0.45216959E+03</pdfrwt>
<pdfrwt beam="2">  1       21 0.99852071E-02 0.45216959E+03</pdfrwt>
<totfact> 0.47833615E+04</totfact>
</mgrwt>
</event>
<event>
 7    0  0.4737014E-002  0.4593702E+03  0.7546771E-02  0.1024964E+00
         21   -1    0    0  502  501  0.00000000000E+00  0.00000000000E+00  0.21518974519E+03  0.21518974519E+03  0.00000000000E+00 0.  1.
         21   -1    0    0  501  502 -0.00000000000E+00 -0.00000000000E+00 -0.24515689618E+03  0.24515689618E+03  0.00000000000E+00 0.  1.
      99926    2    1    2    0    0  0.00000000000E+00  0.00000000000E+00 -0.29967150995E+02  0.46034664137E+03  0.45937022115E+03 0.  0.
      99925    2    3    3    0    0 -0.48245382830E+02  0.96825124761E+02  0.26782360952E+02  0.28550174738E+03  0.26285210889E+03 0.  0.
         25    1    3    3    0    0  0.48245382830E+02 -0.96825124761E+02 -0.56749511947E+02  0.17484489399E+03  0.12509000000E+03 0.  0.
         25    1    4    4    0    0 -0.53496888108E+02  0.80225951862E+02  0.15736823978E+02  0.15872389901E+03  0.12509000000E+03 0.  0.
         25    1    4    4    0    0  0.52515052782E+01  0.16599172899E+02  0.11045536974E+02  0.12677784836E+03  0.12509000000E+03 0.  0.
<mgrwt>
<rscale>  2 0.45937022E+03</rscale>
<asrwt>0</asrwt>
<pdfrwt beam="1">  1       21 0.31645551E-01 0.45937022E+03</pdfrwt>
<pdfrwt beam="2">  1       21 0.36052485E-01 0.45937022E+03</pdfrwt>
<totfact> 0.65830336E+04</totfact>
</mgrwt>
</event>
<event>
 7    0  0.4737014E-002  0.4501208E+03  0.7546771E-02  0.1027686E+00
         21   -1    0    0  502  501  0.00000000000E+00  0.00000000000E+00  0.66851173046E+03  0.66851173046E+03  0.00000000000E+00 0.  1.
         21   -1    0    0  501  502 -0.00000000000E+00 -0.00000000000E+00 -0.75768590381E+02  0.75768590381E+02  0.00000000000E+00 0.  1.
      99926    2    1    2    0    0  0.00000000000E+00  0.00000000000E+00  0.59274314008E+03  0.74428032084E+03  0.45012083475E+03 0.  0.
      99925    2    3    3    0    0  0.69843421314E+02 -0.38791982418E+02  0.25367801730E+03  0.37415117178E+03  0.26316086616E+03 0.  0.
         25    1    4    4    0    0  0.10513892732E+02 -0.52130897682E+02  0.12396215387E+03  0.18396275744E+03  0.12509000000E+03 0.  0.
         25    1    3    3    0    0 -0.69843421314E+02  0.38791982418E+02  0.33906512278E+03  0.37012914906E+03  0.12509000000E+03 0.  0.
         25    1    4    4    0    0  0.59329528581E+02  0.13338915264E+02  0.12971586342E+03  0.19018841433E+03  0.12509000000E+03 0.  0.
<mgrwt>
<rscale>  2 0.45012083E+03</rscale>
<asrwt>0</asrwt>
<pdfrwt beam="1">  1       21 0.98310546E-01 0.45012083E+03</pdfrwt>
<pdfrwt beam="2">  1       21 0.11142440E-01 0.45012083E+03</pdfrwt>
<totfact> 0.52550534E+04</totfact>
</mgrwt>
</event>
<event>
 7    0  0.4737014E-002  0.4510104E+03  0.7546771E-02  0.1027421E+00
         21   -1    0    0  502  501  0.00000000000E+00  0.00000000000E+00  0.20182390542E+03  0.20182390542E+03  0.00000000000E+00 0. -1.
         21   -1    0    0  501  502 -0.00000000000E+00 -0.00000000000E+00 -0.25196516305E+03  0.25196516305E+03  0.00000000000E+00 0. -1.
      99926    2    1    2    0    0  0.00000000000E+00  0.00000000000E+00 -0.50141257637E+02  0.45378906847E+03  0.45101039117E+03 0.  0.
      99925    2    3    3    0    0  0.43367266755E+02  0.77665053228E+02  0.32424112441E+02  0.27949871086E+03  0.26297457289E+03 0.  0.
         25    1    4    4    0    0  0.26025368175E+02  0.40166900933E+02 -0.24211366915E+02  0.13610436476E+03  0.12509000000E+03 0.  0.
         25    1    4    4    0    0  0.17341898579E+02  0.37498152296E+02  0.56635479356E+02  0.14339434610E+03  0.12509000000E+03 0.  0.
         25    1    3    3    0    0 -0.43367266755E+02 -0.77665053228E+02 -0.82565370078E+02  0.17429035761E+03  0.12509000000E+03 0.  0.
<mgrwt>
<rscale>  2 0.45101039E+03</rscale>
<asrwt>0</asrwt>
<pdfrwt beam="1">  1       21 0.29679986E-01 0.45101039E+03</pdfrwt>
<pdfrwt beam="2">  1       21 0.37053700E-01 0.45101039E+03</pdfrwt>
<totfact> 0.70863466E+04</totfact>
</mgrwt>
</event>
<event>
 7    0  0.4737014E-002  0.4545722E+03  0.7546771E-02  0.1026367E+00
         21   -1    0    0  502  501  0.00000000000E+00  0.00000000000E+00  0.33589325049E+03  0.33589325049E+03  0.00000000000E+00 0. -1.
         21   -1    0    0  501  502 -0.00000000000E+00 -0.00000000000E+00 -0.15379582322E+03  0.15379582322E+03  0.00000000000E+00 0. -1.
      99926    2    1    2    0    0  0.00000000000E+00 -0.17763568394E-14  0.18209742727E+03  0.48968907372E+03  0.45457223398E+03 0.  0.
      99925    2    3    3    0    0 -0.56619849876E+02  0.66135188462E+01  0.21942934642E+03  0.34724355319E+03  0.26301958316E+03 0.  0.
         25    1    4    4    0    0 -0.28434198644E+02  0.43350452851E+02  0.11917680160E+03  0.18038398918E+03  0.12509000000E+03 0.  0.
         25    1    4    4    0    0 -0.28185651232E+02 -0.36736934005E+02  0.10025254483E+03  0.16685956401E+03  0.12509000000E+03 0.  0.
         25    1    3    3    0    0  0.56619849876E+02 -0.66135188462E+01 -0.37331919154E+02  0.14244552053E+03  0.12509000000E+03 0.  0.
<mgrwt>
<rscale>  2 0.45457223E+03</rscale>
<asrwt>0</asrwt>
<pdfrwt beam="1">  1       21 0.49396066E-01 0.45457223E+03</pdfrwt>
<pdfrwt beam="2">  1       21 0.22617033E-01 0.45457223E+03</pdfrwt>
<totfact> 0.66225892E+04</totfact>
</mgrwt>
</event>
<event>
 7    0  0.4737014E-002  0.4697068E+03  0.7546771E-02  0.1022003E+00
         21   -1    0    0  502  501  0.00000000000E+00  0.00000000000E+00  0.92820156053E+03  0.92820156053E+03  0.00000000000E+00 0.  1.
         21   -1    0    0  501  502 -0.00000000000E+00 -0.00000000000E+00 -0.59422554500E+02  0.59422554500E+02  0.00000000000E+00 0.  1.
      99926    2    1    2    0    0  0.00000000000E+00  0.00000000000E+00  0.86877900603E+03  0.98762411503E+03  0.46970675029E+03 0.  0.
      99925    2    3    3    0    0 -0.72392431438E+02 -0.30836698073E+01  0.32177147058E+03  0.42183711881E+03  0.26298194307E+03 0.  0.
         25    1    4    4    0    0 -0.30182367582E+02 -0.13419298141E+02  0.99925707053E+02  0.16347387530E+03  0.12509000000E+03 0.  0.
         25    1    4    4    0    0 -0.42210063856E+02  0.10335628333E+02  0.22184576353E+03  0.25836324351E+03  0.12509000000E+03 0.  0.
         25    1    3    3    0    0  0.72392431438E+02  0.30836698073E+01  0.54700753545E+03  0.56578699622E+03  0.12509000000E+03 0.  0.
<mgrwt>
<rscale>  2 0.46970675E+03</rscale>
<asrwt>0</asrwt>
<pdfrwt beam="1">  1       21 0.13650022E+00 0.46970675E+03</pdfrwt>
<pdfrwt beam="2">  1       21 0.87386115E-02 0.46970675E+03</pdfrwt>
<totfact> 0.35404728E+04</totfact>
</mgrwt>
</event>
<event>
 7    0  0.4737014E-002  0.4522364E+03  0.7546771E-02  0.1027057E+00
         21   -1    0    0  502  501  0.00000000000E+00  0.00000000000E+00  0.17005706700E+03  0.17005706700E+03  0.00000000000E+00 0.  1.
         21   -1    0    0  501  502 -0.00000000000E+00 -0.00000000000E+00 -0.30066054036E+03  0.30066054036E+03  0.00000000000E+00 0.  1.
      99926    2    1    2    0    0  0.00000000000E+00  0.00000000000E+00 -0.13060347336E+03  0.47071760735E+03  0.45223644106E+03 0.  0.
      99925    2    3    3    0    0  0.87053257774E+01  0.53594396348E+02  0.17809953035E+02  0.26916812149E+03  0.26303258579E+03 0.  0.
         25    1    3    3    0    0 -0.87053257774E+01 -0.53594396348E+02 -0.14841342639E+03  0.20154948586E+03  0.12509000000E+03 0.  0.
         25    1    4    4    0    0  0.40874989773E+01  0.65852951435E+02 -0.41809983744E+01  0.14148606895E+03  0.12509000000E+03 0.  0.
         25    1    4    4    0    0  0.46178268002E+01 -0.12258555088E+02  0.21990951410E+02  0.12768205254E+03  0.12509000000E+03 0.  0.
<mgrwt>
<rscale>  2 0.45223644E+03</rscale>
<asrwt>0</asrwt>
<pdfrwt beam="1">  1       21 0.25008392E-01 0.45223644E+03</pdfrwt>
<pdfrwt beam="2">  1       21 0.44214785E-01 0.45223644E+03</pdfrwt>
<totfact> 0.68880362E+04</totfact>
</mgrwt>
</event>
<event>
 7    0  0.4737014E-002  0.4239926E+03  0.7546771E-02  0.1035775E+00
         21   -1    0    0  502  501  0.00000000000E+00  0.00000000000E+00  0.51221003981E+03  0.51221003981E+03  0.00000000000E+00 0. -1.
         21   -1    0    0  501  502 -0.00000000000E+00 -0.00000000000E+00 -0.87742183026E+02  0.87742183026E+02  0.00000000000E+00 0. -1.
      99926    2    1    2    0    0  0.00000000000E+00  0.00000000000E+00  0.42446785678E+03  0.59995222283E+03  0.42399258041E+03 0.  0.
      99925    2    3    3    0    0  0.33762497201E+02  0.59579784571E+02  0.33579737599E+03  0.43202480038E+03  0.26305112332E+03 0.  0.
         25    1    4    4    0    0  0.54218952931E+02  0.14043191383E+02  0.16413851183E+03  0.21383607097E+03  0.12509000000E+03 0.  0.
         25    1    3    3    0    0 -0.33762497201E+02 -0.59579784571E+02  0.88670480798E+02  0.16792742245E+03  0.12509000000E+03 0.  0.
         25    1    4    4    0    0 -0.20456455730E+02  0.45536593188E+02  0.17165886416E+03  0.21818872942E+03  0.12509000000E+03 0.  0.
<mgrwt>
<rscale>  2 0.42399258E+03</rscale>
<asrwt>0</asrwt>
<pdfrwt beam="1">  1       21 0.75325005E-01 0.42399258E+03</pdfrwt>
<pdfrwt beam="2">  1       21 0.12903262E-01 0.42399258E+03</pdfrwt>
<totfact> 0.75557430E+04</totfact>
</mgrwt>
</event>
<event>
 7    0  0.4737014E-002  0.4545756E+03  0.7546771E-02  0.1026366E+00
         21   -1    0    0  502  501  0.00000000000E+00  0.00000000000E+00  0.69934353127E+03  0.69934353127E+03  0.00000000000E+00 0.  1.
         21   -1    0    0  501  502 -0.00000000000E+00 -0.00000000000E+00 -0.73868900029E+02  0.73868900029E+02  0.00000000000E+00 0.  1.
      99926    2    1    2    0    0  0.00000000000E+00 -0.14210854715E-13  0.62547463124E+03  0.77321243130E+03  0.45457557082E+03 0.  0.
      99925    2    3    3    0    0  0.47231692484E+02  0.10034798304E+03  0.35969928979E+03  0.45923059951E+03  0.26307530095E+03 0.  0.
         25    1    4    4    0    0  0.57514671574E+02  0.38120363219E+02  0.21218625139E+03  0.25579603772E+03  0.12509000000E+03 0.  0.
         25    1    3    3    0    0 -0.47231692484E+02 -0.10034798304E+03  0.26577534145E+03  0.31398183179E+03  0.12509000000E+03 0.  0.
         25    1    4    4    0    0 -0.10282979089E+02  0.62227619819E+02  0.14751303841E+03  0.20343456178E+03  0.12509000000E+03 0.  0.
<mgrwt>
<rscale>  2 0.45457557E+03</rscale>
<asrwt>0</asrwt>
<pdfrwt beam="1">  1       21 0.10284463E+00 0.45457557E+03</pdfrwt>
<pdfrwt beam="2">  1       21 0.10863074E-01 0.45457557E+03</pdfrwt>
<totfact> 0.49251670E+04</totfact>
</mgrwt>
</event>
<event>
 7    0  0.4737014E-002  0.4595653E+03  0.7546771E-02  0.1024907E+00
         21   -1    0    0  502  501  0.00000000000E+00  0.00000000000E+00  0.13271811596E+03  0.13271811596E+03  0.00000000000E+00 0. -1.
         21   -1    0    0  501  502 -0.00000000000E+00 -0.00000000000E+00 -0.39783609031E+03  0.39783609031E+03  0.00000000000E+00 0. -1.
      99926    2    1    2    0    0  0.71054273576E-14  0.00000000000E+00 -0.26511797435E+03  0.53055420626E+03  0.45956525702E+03 0.  0.
      99925    2    3    3    0    0 -0.59389381626E+02 -0.35038371901E+02 -0.56448815576E+02  0.27768049850E+03  0.26299278376E+03 0.  0.
         25    1    4    4    0    0 -0.37775100586E+02 -0.37272455871E+02 -0.64600621172E+02  0.15045578270E+03  0.12509000000E+03 0.  0.
         25    1    4    4    0    0 -0.21614281040E+02  0.22340839701E+01  0.81518055961E+01  0.12722471580E+03  0.12509000000E+03 0.  0.
         25    1    3    3    0    0  0.59389381626E+02  0.35038371901E+02 -0.20866915877E+03  0.25287370777E+03  0.12509000000E+03 0.  0.
<mgrwt>
<rscale>  2 0.45956526E+03</rscale>
<asrwt>0</asrwt>
<pdfrwt beam="1">  1       21 0.19517370E-01 0.45956526E+03</pdfrwt>
<pdfrwt beam="2">  1       21 0.58505307E-01 0.45956526E+03</pdfrwt>
<totfact> 0.60934004E+04</totfact>
</mgrwt>
</event>
<event>
 7    0  0.4737014E-002  0.4558802E+03  0.7546771E-02  0.1025983E+00
         21   -1    0    0  502  501  0.00000000000E+00  0.00000000000E+00  0.38119631247E+02  0.38119631247E+02  0.00000000000E+00 0.  1.
         21   -1    0    0  501  502 -0.00000000000E+00 -0.00000000000E+00 -0.13629901596E+04  0.13629901596E+04  0.00000000000E+00 0.  1.
      99926    2    1    2    0    0  0.00000000000E+00  0.00000000000E+00 -0.13248705284E+04  0.14011097909E+04  0.45588016969E+03 0.  0.
      99925    2    3    3    0    0 -0.81023815266E+02 -0.74798569561E+02 -0.92288662674E+03  0.96591069859E+03  0.26287652460E+03 0.  0.
         25    1    4    4    0    0 -0.51507498556E+02  0.90088949486E+00 -0.40712403360E+03  0.42901202878E+03  0.12509000000E+03 0.  0.
         25    1    4    4    0    0 -0.29516316710E+02 -0.75699459056E+02 -0.51576259314E+03  0.53689866981E+03  0.12509000000E+03 0.  0.
         25    1    3    3    0    0  0.81023815266E+02  0.74798569561E+02 -0.40198390165E+03  0.43519909230E+03  0.12509000000E+03 0.  0.
<mgrwt>
<rscale>  2 0.45588017E+03</rscale>
<asrwt>0</asrwt>
<pdfrwt beam="1">  1       21 0.56058284E-02 0.45588017E+03</pdfrwt>
<pdfrwt beam="2">  1       21 0.20043972E+00 0.45588017E+03</pdfrwt>
<totfact> 0.26123303E+04</totfact>
</mgrwt>
</event>
<event>
 7    0  0.4737014E-002  0.4593657E+03  0.7546771E-02  0.1024965E+00
         21   -1    0    0  502  501  0.00000000000E+00  0.00000000000E+00  0.10698185234E+04  0.10698185234E+04  0.00000000000E+00 0.  1.
         21   -1    0    0  501  502 -0.00000000000E+00 -0.00000000000E+00 -0.49311370749E+02  0.49311370749E+02  0.00000000000E+00 0.  1.
      99926    2    1    2    0    0  0.00000000000E+00  0.00000000000E+00  0.10205071527E+04  0.11191298942E+04  0.45936572724E+03 0.  0.
      99925    2    3    3    0    0 -0.64343731904E+02 -0.90122164229E+02  0.54643315369E+03  0.61648112521E+03  0.26305449240E+03 0.  0.
         25    1    4    4    0    0 -0.52364271524E+02 -0.14504715324E+02  0.30307924167E+03  0.33235062589E+03  0.12509000000E+03 0.  0.
         25    1    4    4    0    0 -0.11979460379E+02 -0.75617448905E+02  0.24335391202E+03  0.28413049932E+03  0.12509000000E+03 0.  0.
         25    1    3    3    0    0  0.64343731904E+02  0.90122164229E+02  0.47407399897E+03  0.50264876894E+03  0.12509000000E+03 0.  0.
<mgrwt>
<rscale>  2 0.45936573E+03</rscale>
<asrwt>0</asrwt>
<pdfrwt beam="1">  1       21 0.15732624E+00 0.45936573E+03</pdfrwt>
<pdfrwt beam="2">  1       21 0.72516729E-02 0.45936573E+03</pdfrwt>
<totfact> 0.33669248E+04</totfact>
</mgrwt>
</event>
<event>
 7    0  0.4737014E-002  0.4572132E+03  0.7546771E-02  0.1025593E+00
         21   -1    0    0  502  501  0.00000000000E+00  0.00000000000E+00  0.25752764988E+03  0.25752764988E+03  0.00000000000E+00 0. -1.
         21   -1    0    0  501  502 -0.00000000000E+00 -0.00000000000E+00 -0.20293350478E+03  0.20293350478E+03  0.00000000000E+00 0. -1.
      99926    2    1    2    0    0  0.71054273576E-14 -0.71054273576E-14  0.54594145095E+02  0.46046115467E+03  0.45721324814E+03 0.  0.
      99925    2    3    3    0    0 -0.32543725590E+02  0.34035052556E+02 -0.71735197674E+02  0.27654788755E+03  0.26289792058E+03 0.  0.
         25    1    3    3    0    0  0.32543725590E+02 -0.34035052556E+02  0.12632934277E+03  0.18391326712E+03  0.12509000000E+03 0.  0.
         25    1    4    4    0    0 -0.36091646863E+02  0.48249984982E+02 -0.19533844284E+02  0.14021322048E+03  0.12509000000E+03 0.  0.
         25    1    4    4    0    0  0.35479212725E+01 -0.14214932426E+02 -0.52201353390E+02  0.13633466707E+03  0.12509000000E+03 0.  0.
<mgrwt>
<rscale>  2 0.45721325E+03</rscale>
<asrwt>0</asrwt>
<pdfrwt beam="1">  1       21 0.37871713E-01 0.45721325E+03</pdfrwt>
<pdfrwt beam="2">  1       21 0.29843162E-01 0.45721325E+03</pdfrwt>
<totfact> 0.66957258E+04</totfact>
</mgrwt>
</event>
<event>
 7    0  0.4737014E-002  0.4497633E+03  0.7546771E-02  0.1027793E+00
         21   -1    0    0  502  501  0.00000000000E+00  0.00000000000E+00  0.21738102003E+03  0.21738102003E+03  0.00000000000E+00 0.  1.
         21   -1    0    0  501  502 -0.00000000000E+00 -0.00000000000E+00 -0.23264111577E+03  0.23264111577E+03  0.00000000000E+00 0.  1.
      99926    2    1    2    0    0 -0.71054273576E-14  0.14210854715E-13 -0.15260095734E+02  0.45002213580E+03  0.44976332908E+03 0.  0.
      99925    2    3    3    0    0  0.34197335530E+02 -0.97773428966E+02 -0.41038989725E+02  0.28558016839E+03  0.26295005748E+03 0.  0.
         25    1    4    4    0    0 -0.13260623102E+02 -0.54354636105E+02 -0.46799586054E+02  0.14480324563E+03  0.12509000000E+03 0.  0.
         25    1    3    3    0    0 -0.34197335530E+02  0.97773428966E+02  0.25778893992E+02  0.16444196741E+03  0.12509000000E+03 0.  0.
         25    1    4    4    0    0  0.47457958632E+02 -0.43418792862E+02  0.57605963285E+01  0.14077692276E+03  0.12509000000E+03 0.  0.
<mgrwt>
<rscale>  2 0.44976333E+03</rscale>
<asrwt>0</asrwt>
<pdfrwt beam="1">  1       21 0.31967797E-01 0.44976333E+03</pdfrwt>
<pdfrwt beam="2">  1       21 0.34211929E-01 0.44976333E+03</pdfrwt>
<totfact> 0.71868282E+04</totfact>
</mgrwt>
</event>
<event>
 7    0  0.4737014E-002  0.5160998E+03  0.7546771E-02  0.1009660E+00
         21   -1    0    0  502  501  0.00000000000E+00  0.00000000000E+00  0.17609489159E+03  0.17609489159E+03  0.00000000000E+00 0.  1.
         21   -1    0    0  501  502 -0.00000000000E+00 -0.00000000000E+00 -0.37814690651E+03  0.37814690651E+03  0.00000000000E+00 0.  1.
      99926    2    1    2    0    0 -0.14210854715E-13 -0.71054273576E-14 -0.20205201491E+03  0.55424179810E+03  0.51609975201E+03 0.  0.
      99925    2    3    3    0    0  0.10122816956E+03  0.55168240194E+02  0.42832199418E+01  0.28682374657E+03  0.26260014963E+03 0.  0.
         25    1    3    3    0    0 -0.10122816956E+03 -0.55168240194E+02 -0.20633523486E+03  0.26741805153E+03  0.12509000000E+03 0.  0.
         25    1    4    4    0    0  0.87591483941E+02  0.11726952143E+02  0.10862430026E+02  0.15354246954E+03  0.12509000000E+03 0.  0.
         25    1    4    4    0    0  0.13636685618E+02  0.43441288051E+02 -0.65792100837E+01  0.13328127703E+03  0.12509000000E+03 0.  0.
<mgrwt>
<rscale>  2 0.51609975E+03</rscale>
<asrwt>0</asrwt>
<pdfrwt beam="1">  1       21 0.25896307E-01 0.51609975E+03</pdfrwt>
<pdfrwt beam="2">  1       21 0.55609840E-01 0.51609975E+03</pdfrwt>
<totfact> 0.38995960E+04</totfact>
</mgrwt>
</event>
<event>
 7    0  0.4737014E-002  0.4551181E+03  0.7546771E-02  0.1026207E+00
         21   -1    0    0  502  501  0.00000000000E+00  0.00000000000E+00  0.39562964022E+02  0.39562964022E+02  0.00000000000E+00 0. -1.
         21   -1    0    0  501  502 -0.00000000000E+00 -0.00000000000E+00 -0.13088784930E+04  0.13088784930E+04  0.00000000000E+00 0. -1.
      99926    2    1    2    0    0  0.14210854715E-13  0.00000000000E+00 -0.12693155290E+04  0.13484414570E+04  0.45511806261E+03 0.  0.
      99925    2    3    3    0    0  0.10598148306E+03 -0.21448856129E+02 -0.89863708938E+03  0.94255706233E+03  0.26300773590E+03 0.  0.
         25    1    3    3    0    0 -0.10598148306E+03  0.21448856129E+02 -0.37067843962E+03  0.40588439472E+03  0.12509000000E+03 0.  0.
         25    1    4    4    0    0  0.16976997900E+02 -0.82456317306E+01 -0.33016193012E+03  0.35356840513E+03  0.12509000000E+03 0.  0.
         25    1    4    4    0    0  0.89004485160E+02 -0.13203224399E+02 -0.56847515926E+03  0.58898865720E+03  0.12509000000E+03 0.  0.
<mgrwt>
<rscale>  2 0.45511806E+03</rscale>
<asrwt>0</asrwt>
<pdfrwt beam="1">  1       21 0.58180834E-02 0.45511806E+03</pdfrwt>
<pdfrwt beam="2">  1       21 0.19248212E+00 0.45511806E+03</pdfrwt>
<totfact> 0.27713457E+04</totfact>
</mgrwt>
</event>
<event>
 7    0  0.4737014E-002  0.4561082E+03  0.7546771E-02  0.1025916E+00
         21   -1    0    0  502  501  0.00000000000E+00  0.00000000000E+00  0.79854790112E+03  0.79854790112E+03  0.00000000000E+00 0. -1.
         21   -1    0    0  501  502 -0.00000000000E+00 -0.00000000000E+00 -0.65129047929E+02  0.65129047929E+02  0.00000000000E+00 0. -1.
      99926    2    1    2    0    0 -0.14210854715E-13 -0.17763568394E-14  0.73341885319E+03  0.86367694905E+03  0.45610816491E+03 0.  0.
      99925    2    3    3    0    0 -0.10468557876E+03 -0.87829844351E+01  0.54583630890E+03  0.61493827044E+03  0.26301252654E+03 0.  0.
         25    1    3    3    0    0  0.10468557876E+03  0.87829844351E+01  0.18758254429E+03  0.24873867861E+03  0.12509000000E+03 0.  0.
         25    1    4    4    0    0 -0.52188471554E+02 -0.16891954512E+02  0.35737320747E+03  0.38258605856E+03  0.12509000000E+03 0.  0.
         25    1    4    4    0    0 -0.52497107205E+02  0.81089700771E+01  0.18846310143E+03  0.23235221187E+03  0.12509000000E+03 0.  0.
<mgrwt>
<rscale>  2 0.45610816E+03</rscale>
<asrwt>0</asrwt>
<pdfrwt beam="1">  1       21 0.11743351E+00 0.45610816E+03</pdfrwt>
<pdfrwt beam="2">  1       21 0.95778016E-02 0.45610816E+03</pdfrwt>
<totfact> 0.44445994E+04</totfact>
</mgrwt>
</event>
<event>
 7    0  0.4737014E-002  0.4563874E+03  0.7546771E-02  0.1025834E+00
         21   -1    0    0  502  501  0.00000000000E+00  0.00000000000E+00  0.49952785132E+03  0.49952785132E+03  0.00000000000E+00 0. -1.
         21   -1    0    0  501  502 -0.00000000000E+00 -0.00000000000E+00 -0.10424315289E+03  0.10424315289E+03  0.00000000000E+00 0. -1.
      99926    2    1    2    0    0  0.71054273576E-14  0.00000000000E+00  0.39528469843E+03  0.60377100421E+03  0.45638737133E+03 0.  0.
      99925    2    3    3    0    0  0.63349393937E+02 -0.92717750425E+02  0.21878482278E+03  0.36003048406E+03  0.26295517454E+03 0.  0.
         25    1    4    4    0    0 -0.58790523562E+00 -0.50700101069E+02  0.73848200737E+02  0.15385678644E+03  0.12509000000E+03 0.  0.
         25    1    3    3    0    0 -0.63349393937E+02  0.92717750425E+02  0.17649987565E+03  0.24374052015E+03  0.12509000000E+03 0.  0.
         25    1    4    4    0    0  0.63937299172E+02 -0.42017649356E+02  0.14493662204E+03  0.20617369762E+03  0.12509000000E+03 0.  0.
<mgrwt>
<rscale>  2 0.45638737E+03</rscale>
<asrwt>0</asrwt>
<pdfrwt beam="1">  1       21 0.73459977E-01 0.45638737E+03</pdfrwt>
<pdfrwt beam="2">  1       21 0.15329876E-01 0.45638737E+03</pdfrwt>
<totfact> 0.57810489E+04</totfact>
</mgrwt>
</event>
<event>
 7    0  0.4737014E-002  0.4526265E+03  0.7546771E-02  0.1026942E+00
         21   -1    0    0  502  501  0.00000000000E+00  0.00000000000E+00  0.31630825815E+03  0.31630825815E+03  0.00000000000E+00 0. -1.
         21   -1    0    0  501  502 -0.00000000000E+00 -0.00000000000E+00 -0.16192336418E+03  0.16192336418E+03  0.00000000000E+00 0. -1.
      99926    2    1    2    0    0  0.00000000000E+00 -0.14210854715E-13  0.15438489398E+03  0.47823162233E+03  0.45262654486E+03 0.  0.
      99925    2    3    3    0    0 -0.40981046955E+02  0.95070389008E+02  0.14050566920E+03  0.31526547230E+03  0.26255028065E+03 0.  0.
         25    1    4    4    0    0 -0.37251119868E+02  0.76037343179E+02  0.48046234877E+02  0.15850953370E+03  0.12509000000E+03 0.  0.
         25    1    4    4    0    0 -0.37299270870E+01  0.19033045829E+02  0.92459434326E+02  0.15675593860E+03  0.12509000000E+03 0.  0.
         25    1    3    3    0    0  0.40981046955E+02 -0.95070389008E+02  0.13879224773E+02  0.16296615003E+03  0.12509000000E+03 0.  0.
<mgrwt>
<rscale>  2 0.45262654E+03</rscale>
<asrwt>0</asrwt>
<pdfrwt beam="1">  1       21 0.46515920E-01 0.45262654E+03</pdfrwt>
<pdfrwt beam="2">  1       21 0.23812259E-01 0.45262654E+03</pdfrwt>
<totfact> 0.68103020E+04</totfact>
</mgrwt>
</event>
<event>
 7    0  0.4737014E-002  0.4581297E+03  0.7546771E-02  0.1025325E+00
         21   -1    0    0  502  501  0.00000000000E+00  0.00000000000E+00  0.19491651176E+03  0.19491651176E+03  0.00000000000E+00 0.  1.
         21   -1    0    0  501  502 -0.00000000000E+00 -0.00000000000E+00 -0.26919579868E+03  0.26919579868E+03  0.00000000000E+00 0.  1.
      99926    2    1    2    0    0  0.00000000000E+00  0.00000000000E+00 -0.74279286917E+02  0.46411231044E+03  0.45812970242E+03 0.  0.
      99925    2    3    3    0    0 -0.36400892498E+02  0.96608029261E+02  0.73255473701E+01  0.28254966734E+03  0.26291160982E+03 0.  0.
         25    1    4    4    0    0 -0.95015254870E+01  0.87121237873E+02 -0.10113264070E+02  0.15306918464E+03  0.12509000000E+03 0.  0.
         25    1    3    3    0    0  0.36400892498E+02 -0.96608029261E+02 -0.81604834287E+02  0.18156264311E+03  0.12509000000E+03 0.  0.
         25    1    4    4    0    0 -0.26899367011E+02  0.94867913886E+01  0.17438811440E+02  0.12948048270E+03  0.12509000000E+03 0.  0.
<mgrwt>
<rscale>  2 0.45812970E+03</rscale>
<asrwt>0</asrwt>
<pdfrwt beam="1">  1       21 0.28664193E-01 0.45812970E+03</pdfrwt>
<pdfrwt beam="2">  1       21 0.39587617E-01 0.45812970E+03</pdfrwt>
<totfact> 0.66213296E+04</totfact>
</mgrwt>
</event>
<event>
 7    0  0.4737014E-002  0.4582406E+03  0.7546771E-02  0.1025293E+00
         21   -1    0    0  502  501  0.00000000000E+00  0.00000000000E+00  0.24546161995E+03  0.24546161995E+03  0.00000000000E+00 0. -1.
         21   -1    0    0  501  502 -0.00000000000E+00 -0.00000000000E+00 -0.21386686802E+03  0.21386686802E+03  0.00000000000E+00 0. -1.
      99926    2    1    2    0    0  0.00000000000E+00  0.00000000000E+00  0.31594751925E+02  0.45932848797E+03  0.45824058257E+03 0.  0.
      99925    2    3    3    0    0 -0.62594624733E+02  0.68963129440E+02  0.90622376550E+02  0.29257786927E+03  0.26213621305E+03 0.  0.
         25    1    3    3    0    0  0.62594624733E+02 -0.68963129440E+02 -0.59027624625E+02  0.16675061870E+03  0.12509000000E+03 0.  0.
         25    1    4    4    0    0 -0.67747228166E+02  0.53557170520E+02  0.52112119665E+02  0.16068988317E+03  0.12509000000E+03 0.  0.
         25    1    4    4    0    0  0.51526034325E+01  0.15405958920E+02  0.38510256885E+02  0.13188798610E+03  0.12509000000E+03 0.  0.
<mgrwt>
<rscale>  2 0.45824058E+03</rscale>
<asrwt>0</asrwt>
<pdfrwt beam="1">  1       21 0.36097297E-01 0.45824058E+03</pdfrwt>
<pdfrwt beam="2">  1       21 0.31451010E-01 0.45824058E+03</pdfrwt>
<totfact> 0.66493923E+04</totfact>
</mgrwt>
</event>
<event>
 7    0  0.4737014E-002  0.4369427E+03  0.7546771E-02  0.1031689E+00
         21   -1    0    0  502  501  0.00000000000E+00  0.00000000000E+00  0.73734403183E+03  0.73734403183E+03  0.00000000000E+00 0. -1.
         21   -1    0    0  501  502 -0.00000000000E+00 -0.00000000000E+00 -0.64731968766E+02  0.64731968766E+02  0.00000000000E+00 0. -1.
      99926    2    1    2    0    0 -0.48572257327E-16  0.00000000000E+00  0.67261206307E+03  0.80207600060E+03  0.43694270031E+03 0.  0.
      99925    2    3    3    0    0 -0.39033659228E-01 -0.24147399518E+02  0.59969390382E+03  0.65528477308E+03  0.26302520247E+03 0.  0.
         25    1    4    4    0    0  0.88371788336E+01 -0.41127803748E+02  0.37302075921E+03  0.39567864091E+03  0.12509000000E+03 0.  0.
         25    1    4    4    0    0 -0.88762124928E+01  0.16980404231E+02  0.22667314460E+03  0.25960613217E+03  0.12509000000E+03 0.  0.
         25    1    3    3    0    0  0.39033659228E-01  0.24147399518E+02  0.72918159250E+02  0.14679122752E+03  0.12509000000E+03 0.  0.
<mgrwt>
<rscale>  2 0.43694270E+03</rscale>
<asrwt>0</asrwt>
<pdfrwt beam="1">  1       21 0.10843294E+00 0.43694270E+03</pdfrwt>
<pdfrwt beam="2">  1       21 0.95194076E-02 0.43694270E+03</pdfrwt>
<totfact> 0.55062605E+04</totfact>
</mgrwt>
</event>
<event>
 7    0  0.4737014E-002  0.4456992E+03  0.7546771E-02  0.1029012E+00
         21   -1    0    0  502  501  0.00000000000E+00  0.00000000000E+00  0.47632283883E+03  0.47632283883E+03  0.00000000000E+00 0. -1.
         21   -1    0    0  501  502 -0.00000000000E+00 -0.00000000000E+00 -0.10426107894E+03  0.10426107894E+03  0.00000000000E+00 0. -1.
      99926    2    1    2    0    0 -0.71054273576E-14  0.00000000000E+00  0.37206175989E+03  0.58058391777E+03  0.44569915011E+03 0.  0.
      99925    2    3    3    0    0 -0.54515303058E+02  0.47066307829E+02  0.13789770205E+03  0.30550671101E+03  0.26292854284E+03 0.  0.
         25    1    3    3    0    0  0.54515303058E+02 -0.47066307829E+02  0.23416405784E+03  0.27507720677E+03  0.12509000000E+03 0.  0.
         25    1    4    4    0    0 -0.43311793165E+02 -0.13672193823E+02  0.65168876771E+02  0.14818006246E+03  0.12509000000E+03 0.  0.
         25    1    4    4    0    0 -0.11203509893E+02  0.60738501652E+02  0.72728825278E+02  0.15732664855E+03  0.12509000000E+03 0.  0.
<mgrwt>
<rscale>  2 0.44569915E+03</rscale>
<asrwt>0</asrwt>
<pdfrwt beam="1">  1       21 0.70047475E-01 0.44569915E+03</pdfrwt>
<pdfrwt beam="2">  1       21 0.15332512E-01 0.44569915E+03</pdfrwt>
<totfact> 0.64503034E+04</totfact>
</mgrwt>
</event>
<event>
 7    0  0.4737014E-002  0.4469415E+03  0.7546771E-02  0.1028638E+00
         21   -1    0    0  502  501  0.00000000000E+00  0.00000000000E+00  0.77350751690E+02  0.77350751690E+02  0.00000000000E+00 0. -1.
         21   -1    0    0  501  502 -0.00000000000E+00 -0.00000000000E+00 -0.64561965497E+03  0.64561965497E+03  0.00000000000E+00 0. -1.
      99926    2    1    2    0    0  0.00000000000E+00  0.00000000000E+00 -0.56826890328E+03  0.72297040666E+03  0.44694145307E+03 0.  0.
      99925    2    3    3    0    0  0.85967884042E+02 -0.40830029988E+02 -0.43737846732E+03  0.51842852156E+03  0.26155427707E+03 0.  0.
         25    1    4    4    0    0  0.44515310049E+01 -0.14264366469E+02 -0.21686747956E+03  0.25080330953E+03  0.12509000000E+03 0.  0.
         25    1    4    4    0    0  0.81516353038E+02 -0.26565663519E+02 -0.22051098776E+03  0.26762521203E+03  0.12509000000E+03 0.  0.
         25    1    3    3    0    0 -0.85967884042E+02  0.40830029988E+02 -0.13089043596E+03  0.20454188510E+03  0.12509000000E+03 0.  0.
<mgrwt>
<rscale>  2 0.44694145E+03</rscale>
<asrwt>0</asrwt>
<pdfrwt beam="1">  1       21 0.11375110E-01 0.44694145E+03</pdfrwt>
<pdfrwt beam="2">  1       21 0.94944067E-01 0.44694145E+03</pdfrwt>
<totfact> 0.55082500E+04</totfact>
</mgrwt>
</event>
<event>
 7    0  0.4737014E-002  0.4529895E+03  0.7546771E-02  0.1026834E+00
         21   -1    0    0  502  501  0.00000000000E+00  0.00000000000E+00  0.31411834104E+04  0.31411834104E+04  0.00000000000E+00 0.  1.
         21   -1    0    0  501  502 -0.00000000000E+00 -0.00000000000E+00 -0.16331380208E+02  0.16331380208E+02  0.00000000000E+00 0.  1.
      99926    2    1    2    0    0  0.00000000000E+00 -0.14210854715E-13  0.31248520302E+04  0.31575147907E+04  0.45298945055E+03 0.  0.
      99925    2    3    3    0    0 -0.42701881703E+02 -0.72212697139E+02  0.24794624758E+04  0.24947830882E+04  0.26300259325E+03 0.  0.
         25    1    3    3    0    0  0.42701881703E+02  0.72212697139E+02  0.64538955447E+03  0.66273170246E+03  0.12509000000E+03 0.  0.
         25    1    4    4    0    0 -0.46409997480E+02 -0.33702373966E+02  0.98000727464E+03  0.98962189968E+03  0.12509000000E+03 0.  0.
         25    1    4    4    0    0  0.37081157771E+01 -0.38510323173E+02  0.14994552011E+04  0.15051611885E+04  0.12509000000E+03 0.  0.
<mgrwt>
<rscale>  2 0.45298945E+03</rscale>
<asrwt>0</asrwt>
<pdfrwt beam="1">  1       21 0.46193832E+00 0.45298945E+03</pdfrwt>
<pdfrwt beam="2">  1       21 0.24016757E-02 0.45298945E+03</pdfrwt>
<totfact> 0.25009262E+03</totfact>
</mgrwt>
</event>
<event>
 7    0  0.4737014E-002  0.4406959E+03  0.7546771E-02  0.1030533E+00
         21   -1    0    0  502  501  0.00000000000E+00  0.00000000000E+00  0.20040406576E+04  0.20040406576E+04  0.00000000000E+00 0. -1.
         21   -1    0    0  501  502 -0.00000000000E+00 -0.00000000000E+00 -0.24227666811E+02  0.24227666811E+02  0.00000000000E+00 0. -1.
      99926    2    1    2    0    0  0.00000000000E+00  0.00000000000E+00  0.19798129907E+04  0.20282683244E+04  0.44069594656E+03 0.  0.
      99925    2    3    3    0    0 -0.10059047331E+02  0.91752343824E+02  0.10907398498E+04  0.11257062849E+04  0.26264337589E+03 0.  0.
         25    1    3    3    0    0  0.10059047331E+02 -0.91752343824E+02  0.88907314099E+03  0.90256203950E+03  0.12509000000E+03 0.  0.
         25    1    4    4    0    0 -0.89768277231E+01  0.78267630209E+01  0.42814368273E+03  0.44620215465E+03  0.12509000000E+03 0.  0.
         25    1    4    4    0    0 -0.10822196082E+01  0.83925580803E+02  0.66259616703E+03  0.67950413021E+03  0.12509000000E+03 0.  0.
<mgrwt>
<rscale>  2 0.44069595E+03</rscale>
<asrwt>0</asrwt>
<pdfrwt beam="1">  1       21 0.29471175E+00 0.44069595E+03</pdfrwt>
<pdfrwt beam="2">  1       21 0.35628935E-02 0.44069595E+03</pdfrwt>
<totfact> 0.14833722E+04</totfact>
</mgrwt>
</event>
<event>
 7    0  0.4737014E-002  0.4383598E+03  0.7546771E-02  0.1031251E+00
         21   -1    0    0  502  501  0.00000000000E+00  0.00000000000E+00  0.11370295728E+04  0.11370295728E+04  0.00000000000E+00 0. -1.
         21   -1    0    0  501  502 -0.00000000000E+00 -0.00000000000E+00 -0.42250281427E+02  0.42250281427E+02  0.00000000000E+00 0. -1.
      99926    2    1    2    0    0  0.00000000000E+00 -0.35527136788E-14  0.10947792913E+04  0.11792798542E+04  0.43835975837E+03 0.  0.
      99925    2    3    3    0    0  0.79715512599E+02  0.29083457760E+02  0.82476759488E+03  0.86983804256E+03  0.26301373395E+03 0.  0.
         25    1    4    4    0    0  0.64920976036E+02  0.35055930325E+02  0.52281946874E+03  0.54261529316E+03  0.12509000000E+03 0.  0.
         25    1    4    4    0    0  0.14794536563E+02 -0.59724725649E+01  0.30194812614E+03  0.32722274939E+03  0.12509000000E+03 0.  0.
         25    1    3    3    0    0 -0.79715512599E+02 -0.29083457760E+02  0.27001169645E+03  0.30944181163E+03  0.12509000000E+03 0.  0.
<mgrwt>
<rscale>  2 0.43835976E+03</rscale>
<asrwt>0</asrwt>
<pdfrwt beam="1">  1       21 0.16721021E+00 0.43835976E+03</pdfrwt>
<pdfrwt beam="2">  1       21 0.62132774E-02 0.43835976E+03</pdfrwt>
<totfact> 0.37443804E+04</totfact>
</mgrwt>
</event>
<event>
 7    0  0.4737014E-002  0.4629785E+03  0.7546771E-02  0.1023921E+00
         21   -1    0    0  502  501  0.00000000000E+00  0.00000000000E+00  0.37648700091E+03  0.37648700091E+03  0.00000000000E+00 0. -1.
         21   -1    0    0  501  502 -0.00000000000E+00 -0.00000000000E+00 -0.14233501149E+03  0.14233501149E+03  0.00000000000E+00 0. -1.
      99926    2    1    2    0    0  0.00000000000E+00 -0.71054273576E-14  0.23415198942E+03  0.51882201240E+03  0.46297853774E+03 0.  0.
      99925    2    3    3    0    0  0.45083093080E+02 -0.34002578983E+02  0.26546541640E+03  0.37805021314E+03  0.26317563658E+03 0.  0.
         25    1    4    4    0    0  0.63007136615E+02 -0.11605228672E+02  0.13003847366E+03  0.19147347944E+03  0.12509000000E+03 0.  0.
         25    1    3    3    0    0 -0.45083093080E+02  0.34002578983E+02 -0.31313426981E+02  0.14077179927E+03  0.12509000000E+03 0.  0.
         25    1    4    4    0    0 -0.17924043536E+02 -0.22397350311E+02  0.13542694274E+03  0.18657673370E+03  0.12509000000E+03 0.  0.
<mgrwt>
<rscale>  2 0.46297854E+03</rscale>
<asrwt>0</asrwt>
<pdfrwt beam="1">  1       21 0.55365735E-01 0.46297854E+03</pdfrwt>
<pdfrwt beam="2">  1       21 0.20931619E-01 0.46297854E+03</pdfrwt>
<totfact> 0.60073198E+04</totfact>
</mgrwt>
</event>
<event>
 7    0  0.4737014E-002  0.4574431E+03  0.7546771E-02  0.1025525E+00
         21   -1    0    0  502  501  0.00000000000E+00  0.00000000000E+00  0.16763674770E+03  0.16763674770E+03  0.00000000000E+00 0.  1.
         21   -1    0    0  501  502 -0.00000000000E+00 -0.00000000000E+00 -0.31206485972E+03  0.31206485972E+03  0.00000000000E+00 0.  1.
      99926    2    1    2    0    0  0.00000000000E+00  0.00000000000E+00 -0.14442811203E+03  0.47970160742E+03  0.45744305943E+03 0.  0.
      99925    2    3    3    0    0 -0.84646779631E+02  0.62330897294E+01 -0.84202112773E+01  0.27635563162E+03  0.26286423579E+03 0.  0.
         25    1    4    4    0    0 -0.68366360847E+02  0.46409733087E+01 -0.36258704579E+02  0.14716555197E+03  0.12509000000E+03 0.  0.
         25    1    4    4    0    0 -0.16280418785E+02  0.15921164207E+01  0.27838493302E+02  0.12919007965E+03  0.12509000000E+03 0.  0.
         25    1    3    3    0    0  0.84646779631E+02 -0.62330897294E+01 -0.13600790075E+03  0.20334597580E+03  0.12509000000E+03 0.  0.
<mgrwt>
<rscale>  2 0.45744306E+03</rscale>
<asrwt>0</asrwt>
<pdfrwt beam="1">  1       21 0.24652463E-01 0.45744306E+03</pdfrwt>
<pdfrwt beam="2">  1       21 0.45891891E-01 0.45744306E+03</pdfrwt>
<totfact> 0.65443603E+04</totfact>
</mgrwt>
</event>
<event>
 7    0  0.4737014E-002  0.4551354E+03  0.7546771E-02  0.1026202E+00
         21   -1    0    0  502  501  0.00000000000E+00  0.00000000000E+00  0.10460998814E+04  0.10460998814E+04  0.00000000000E+00 0. -1.
         21   -1    0    0  501  502 -0.00000000000E+00 -0.00000000000E+00 -0.49504898298E+02  0.49504898298E+02  0.00000000000E+00 0. -1.
      99926    2    1    2    0    0  0.00000000000E+00  0.00000000000E+00  0.99659498310E+03  0.10956047797E+04  0.45513544462E+03 0.  0.
      99925    2    3    3    0    0 -0.70221199239E+02  0.81676100010E+02  0.54252982446E+03  0.61246434615E+03  0.26300563253E+03 0.  0.
         25    1    3    3    0    0  0.70221199239E+02 -0.81676100010E+02  0.45406515864E+03  0.48314043354E+03  0.12509000000E+03 0.  0.
         25    1    4    4    0    0 -0.54993203128E+02  0.12495689343E+02  0.31117901022E+03  0.34008863425E+03  0.12509000000E+03 0.  0.
         25    1    4    4    0    0 -0.15227996110E+02  0.69180410667E+02  0.23135081424E+03  0.27237571190E+03  0.12509000000E+03 0.  0.
<mgrwt>
<rscale>  2 0.45513544E+03</rscale>
<asrwt>0</asrwt>
<pdfrwt beam="1">  1       21 0.15383820E+00 0.45513544E+03</pdfrwt>
<pdfrwt beam="2">  1       21 0.72801327E-02 0.45513544E+03</pdfrwt>
<totfact> 0.35609400E+04</totfact>
</mgrwt>
</event>
<event>
 7    0  0.4737014E-002  0.4535188E+03  0.7546771E-02  0.1026678E+00
         21   -1    0    0  502  501  0.00000000000E+00  0.00000000000E+00  0.37675487802E+02  0.37675487802E+02  0.00000000000E+00 0. -1.
         21   -1    0    0  501  502 -0.00000000000E+00 -0.00000000000E+00 -0.13648084276E+04  0.13648084276E+04  0.00000000000E+00 0. -1.
      99926    2    1    2    0    0  0.14210854715E-13  0.00000000000E+00 -0.13271329398E+04  0.14024839154E+04  0.45351879020E+03 0.  0.
      99925    2    3    3    0    0  0.72900765472E+02 -0.43898692860E+02 -0.10598125326E+04  0.10953205630E+04  0.26321647875E+03 0.  0.
         25    1    3    3    0    0 -0.72900765472E+02  0.43898692860E+02 -0.26732040720E+03  0.30716335238E+03  0.12509000000E+03 0.  0.
         25    1    4    4    0    0  0.27647707877E+02  0.15830616633E+02 -0.55907623270E+03  0.57378458174E+03  0.12509000000E+03 0.  0.
         25    1    4    4    0    0  0.45253057595E+02 -0.59729309493E+02 -0.50073629993E+03  0.52153598131E+03  0.12509000000E+03 0.  0.
<mgrwt>
<rscale>  2 0.45351879E+03</rscale>
<asrwt>0</asrwt>
<pdfrwt beam="1">  1       21 0.55405137E-02 0.45351879E+03</pdfrwt>
<pdfrwt beam="2">  1       21 0.20070709E+00 0.45351879E+03</pdfrwt>
<totfact> 0.26570417E+04</totfact>
</mgrwt>
</event>
<event>
 7    0  0.4737014E-002  0.4507063E+03  0.7546771E-02  0.1027512E+00
         21   -1    0    0  502  501  0.00000000000E+00  0.00000000000E+00  0.18378997666E+04  0.18378997666E+04  0.00000000000E+00 0.  1.
         21   -1    0    0  501  502 -0.00000000000E+00 -0.00000000000E+00 -0.27631559465E+02  0.27631559465E+02  0.00000000000E+00 0.  1.
      99926    2    1    2    0    0  0.00000000000E+00  0.71054273576E-14  0.18102682071E+04  0.18655313261E+04  0.45070627549E+03 0.  0.
      99925    2    3    3    0    0 -0.10322817852E+03 -0.34947781816E+02  0.11278228685E+04  0.11632090692E+04  0.26304659558E+03 0.  0.
         25    1    3    3    0    0  0.10322817852E+03  0.34947781816E+02  0.68244533858E+03  0.70232225691E+03  0.12509000000E+03 0.  0.
         25    1    4    4    0    0 -0.53327571269E+02 -0.58458317068E+02  0.58788957111E+03  0.60623663747E+03  0.12509000000E+03 0.  0.
         25    1    4    4    0    0 -0.49900607255E+02  0.23510535252E+02  0.53993329744E+03  0.55697243168E+03  0.12509000000E+03 0.  0.
<mgrwt>
<rscale>  2 0.45070628E+03</rscale>
<asrwt>0</asrwt>
<pdfrwt beam="1">  1       21 0.27027929E+00 0.45070628E+03</pdfrwt>
<pdfrwt beam="2">  1       21 0.40634659E-02 0.45070628E+03</pdfrwt>
<totfact> 0.16577599E+04</totfact>
</mgrwt>
</event>
<event>
 7    0  0.4737014E-002  0.4543688E+03  0.7546771E-02  0.1026427E+00
         21   -1    0    0  502  501  0.00000000000E+00  0.00000000000E+00  0.65559123967E+02  0.65559123967E+02  0.00000000000E+00 0.  1.
         21   -1    0    0  501  502 -0.00000000000E+00 -0.00000000000E+00 -0.78727027147E+03  0.78727027147E+03  0.00000000000E+00 0.  1.
      99926    2    1    2    0    0  0.00000000000E+00  0.00000000000E+00 -0.72171114751E+03  0.85282939544E+03  0.45436878996E+03 0.  0.
      99925    2    3    3    0    0 -0.10403596671E+03 -0.40833430901E+02 -0.42669141477E+03  0.51345496763E+03  0.26282996194E+03 0.  0.
         25    1    3    3    0    0  0.10403596671E+03  0.40833430901E+02 -0.29501973273E+03  0.33937442781E+03  0.12509000000E+03 0.  0.
         25    1    4    4    0    0 -0.77297607839E+02 -0.51265028008E+02 -0.26018646353E+03  0.30322850654E+03  0.12509000000E+03 0.  0.
         25    1    4    4    0    0 -0.26738358875E+02  0.10431597107E+02 -0.16650495124E+03  0.21022646108E+03  0.12509000000E+03 0.  0.
<mgrwt>
<rscale>  2 0.45436879E+03</rscale>
<asrwt>0</asrwt>
<pdfrwt beam="1">  1       21 0.96410474E-02 0.45436879E+03</pdfrwt>
<pdfrwt beam="2">  1       21 0.11577504E+00 0.45436879E+03</pdfrwt>
<totfact> 0.45538127E+04</totfact>
</mgrwt>
</event>
<event>
 7    0  0.4737014E-002  0.4508704E+03  0.7546771E-02  0.1027463E+00
         21   -1    0    0  502  501  0.00000000000E+00  0.00000000000E+00  0.23460059283E+03  0.23460059283E+03  0.00000000000E+00 0.  1.
         21   -1    0    0  501  502 -0.00000000000E+00 -0.00000000000E+00 -0.21662787524E+03  0.21662787524E+03  0.00000000000E+00 0.  1.
      99926    2    1    2    0    0  0.00000000000E+00  0.00000000000E+00  0.17972717594E+02  0.45122846807E+03  0.45087039359E+03 0.  0.
      99925    2    3    3    0    0  0.99866954783E+02 -0.18674530543E+02  0.49087269555E+02  0.28710116932E+03  0.26399881562E+03 0.  0.
         25    1    4    4    0    0  0.47000316813E+02  0.25857921236E+02  0.47552782961E+02  0.14417502259E+03  0.12509000000E+03 0.  0.
         25    1    4    4    0    0  0.52866637970E+02 -0.44532451779E+02  0.15344865940E+01  0.14292614674E+03  0.12509000000E+03 0.  0.
         25    1    3    3    0    0 -0.99866954783E+02  0.18674530543E+02 -0.31114551960E+02  0.16412729874E+03  0.12509000000E+03 0.  0.
<mgrwt>
<rscale>  2 0.45087039E+03</rscale>
<asrwt>0</asrwt>
<pdfrwt beam="1">  1       21 0.34500087E-01 0.45087039E+03</pdfrwt>
<pdfrwt beam="2">  1       21 0.31857040E-01 0.45087039E+03</pdfrwt>
<totfact> 0.71138245E+04</totfact>
</mgrwt>
</event>
<event>
 7    0  0.4737014E-002  0.4447637E+03  0.7546771E-02  0.1029295E+00
         21   -1    0    0  502  501  0.00000000000E+00  0.00000000000E+00  0.56887210580E+02  0.56887210580E+02  0.00000000000E+00 0.  1.
         21   -1    0    0  501  502 -0.00000000000E+00 -0.00000000000E+00 -0.86932860018E+03  0.86932860018E+03  0.00000000000E+00 0.  1.
      99926    2    1    2    0    0  0.00000000000E+00  0.00000000000E+00 -0.81244138960E+03  0.92621581076E+03  0.44476366372E+03 0.  0.
      99925    2    3    3    0    0  0.91235627582E+02  0.27107532426E+02 -0.43258121612E+03  0.51511969360E+03  0.26298865400E+03 0.  0.
         25    1    4    4    0    0  0.15881224577E+02  0.15164907497E+02 -0.25514642607E+03  0.28500770963E+03  0.12509000000E+03 0.  0.
         25    1    3    3    0    0 -0.91235627582E+02 -0.27107532426E+02 -0.37986017348E+03  0.41109611717E+03  0.12509000000E+03 0.  0.
         25    1    4    4    0    0  0.75354403005E+02  0.11942624929E+02 -0.17743479005E+03  0.23011198396E+03  0.12509000000E+03 0.  0.
<mgrwt>
<rscale>  2 0.44476366E+03</rscale>
<asrwt>0</asrwt>
<pdfrwt beam="1">  1       21 0.83657665E-02 0.44476366E+03</pdfrwt>
<pdfrwt beam="2">  1       21 0.12784244E+00 0.44476366E+03</pdfrwt>
<totfact> 0.45667470E+04</totfact>
</mgrwt>
</event>
<event>
 7    0  0.4737014E-002  0.4548581E+03  0.7546771E-02  0.1026283E+00
         21   -1    0    0  502  501  0.00000000000E+00  0.00000000000E+00  0.39331955289E+03  0.39331955289E+03  0.00000000000E+00 0. -1.
         21   -1    0    0  501  502 -0.00000000000E+00 -0.00000000000E+00 -0.13150620744E+03  0.13150620744E+03  0.00000000000E+00 0. -1.
      99926    2    1    2    0    0  0.00000000000E+00  0.00000000000E+00  0.26181334545E+03  0.52482576033E+03  0.45485805572E+03 0.  0.
      99925    2    3    3    0    0 -0.86282273338E+02  0.70524445497E+02  0.14254899955E+03  0.31918087124E+03  0.26294083591E+03 0.  0.
         25    1    4    4    0    0 -0.53280270006E+02  0.44985757284E+02  0.31158224075E+02  0.14656346256E+03  0.12509000000E+03 0.  0.
         25    1    4    4    0    0 -0.33002003332E+02  0.25538688213E+02  0.11139077547E+03  0.17261740868E+03  0.12509000000E+03 0.  0.
         25    1    3    3    0    0  0.86282273338E+02 -0.70524445497E+02  0.11926434590E+03  0.20564488909E+03  0.12509000000E+03 0.  0.
<mgrwt>
<rscale>  2 0.45485806E+03</rscale>
<asrwt>0</asrwt>
<pdfrwt beam="1">  1       21 0.57841110E-01 0.45485806E+03</pdfrwt>
<pdfrwt beam="2">  1       21 0.19339148E-01 0.45485806E+03</pdfrwt>
<totfact> 0.63629708E+04</totfact>
</mgrwt>
</event>
<event>
 7    0  0.4737014E-002  0.4558641E+03  0.7546771E-02  0.1025988E+00
         21   -1    0    0  502  501  0.00000000000E+00  0.00000000000E+00  0.91300926931E+02  0.91300926931E+02  0.00000000000E+00 0. -1.
         21   -1    0    0  501  502 -0.00000000000E+00 -0.00000000000E+00 -0.56903054918E+03  0.56903054918E+03  0.00000000000E+00 0. -1.
      99926    2    1    2    0    0 -0.17763568394E-14  0.35527136788E-14 -0.47772962225E+03  0.66033147611E+03  0.45586408760E+03 0.  0.
      99925    2    3    3    0    0  0.10659806524E+02  0.22848983718E+02 -0.46144316414E+03  0.53169064142E+03  0.26292477424E+03 0.  0.
         25    1    3    3    0    0 -0.10659806524E+02 -0.22848983718E+02 -0.16286458107E+02  0.12864083469E+03  0.12509000000E+03 0.  0.
         25    1    4    4    0    0 -0.26193364309E+02 -0.10435687763E+02 -0.25169284610E+03  0.28247441086E+03  0.12509000000E+03 0.  0.
         25    1    4    4    0    0  0.36853170833E+02  0.33284671481E+02 -0.20975031804E+03  0.24921623056E+03  0.12509000000E+03 0.  0.
<mgrwt>
<rscale>  2 0.45586409E+03</rscale>
<asrwt>0</asrwt>
<pdfrwt beam="1">  1       21 0.13426607E-01 0.45586409E+03</pdfrwt>
<pdfrwt beam="2">  1       21 0.83680965E-01 0.45586409E+03</pdfrwt>
<totfact> 0.54735815E+04</totfact>
</mgrwt>
</event>
<event>
 7    0  0.4737014E-002  0.4574563E+03  0.7546771E-02  0.1025522E+00
         21   -1    0    0  502  501  0.00000000000E+00  0.00000000000E+00  0.44648480453E+02  0.44648480453E+02  0.00000000000E+00 0. -1.
         21   -1    0    0  501  502 -0.00000000000E+00 -0.00000000000E+00 -0.11717434988E+04  0.11717434988E+04  0.00000000000E+00 0. -1.
      99926    2    1    2    0    0  0.00000000000E+00  0.00000000000E+00 -0.11270950184E+04  0.12163919793E+04  0.45745630044E+03 0.  0.
      99925    2    3    3    0    0  0.88043846212E+02 -0.74156999842E+02 -0.73068082770E+03  0.78506530709E+03  0.26302487513E+03 0.  0.
         25    1    3    3    0    0 -0.88043846212E+02  0.74156999842E+02 -0.39641419068E+03  0.43132667221E+03  0.12509000000E+03 0.  0.
         25    1    4    4    0    0  0.77729300717E+02 -0.25794630988E+02 -0.44155838130E+03  0.46618506987E+03  0.12509000000E+03 0.  0.
         25    1    4    4    0    0  0.10314545495E+02 -0.48362368853E+02 -0.28912244641E+03  0.31888023721E+03  0.12509000000E+03 0.  0.
<mgrwt>
<rscale>  2 0.45745630E+03</rscale>
<asrwt>0</asrwt>
<pdfrwt beam="1">  1       21 0.65659538E-02 0.45745630E+03</pdfrwt>
<pdfrwt beam="2">  1       21 0.17231520E+00 0.45745630E+03</pdfrwt>
<totfact> 0.31042534E+04</totfact>
</mgrwt>
</event>
<event>
 7    0  0.4737014E-002  0.4522793E+03  0.7546771E-02  0.1027045E+00
         21   -1    0    0  502  501  0.00000000000E+00  0.00000000000E+00  0.32753932656E+02  0.32753932656E+02  0.00000000000E+00 0.  1.
         21   -1    0    0  501  502 -0.00000000000E+00 -0.00000000000E+00 -0.15613131847E+04  0.15613131847E+04  0.00000000000E+00 0.  1.
      99926    2    1    2    0    0  0.00000000000E+00 -0.71054273576E-14 -0.15285592521E+04  0.15940671174E+04  0.45227932479E+03 0.  0.
      99925    2    3    3    0    0  0.39111463911E+02 -0.36945423065E+02 -0.62259727070E+03  0.67792886871E+03  0.26280319376E+03 0.  0.
         25    1    4    4    0    0  0.27732685593E+02 -0.13424917149E+01 -0.39829370938E+03  0.41839728867E+03  0.12509000000E+03 0.  0.
         25    1    4    4    0    0  0.11378778319E+02 -0.35602931351E+02 -0.22430356132E+03  0.25953158004E+03  0.12509000000E+03 0.  0.
         25    1    3    3    0    0 -0.39111463911E+02  0.36945423065E+02 -0.90596198138E+03  0.91613824869E+03  0.12509000000E+03 0.  0.
<mgrwt>
<rscale>  2 0.45227932E+03</rscale>
<asrwt>0</asrwt>
<pdfrwt beam="1">  1       21 0.48167539E-02 0.45227932E+03</pdfrwt>
<pdfrwt beam="2">  1       21 0.22960492E+00 0.45227932E+03</pdfrwt>
<totfact> 0.22025831E+04</totfact>
</mgrwt>
</event>
<event>
 7    0  0.4737014E-002  0.4692030E+03  0.7546771E-02  0.1022145E+00
         21   -1    0    0  502  501  0.00000000000E+00  0.00000000000E+00  0.59991316591E+02  0.59991316591E+02  0.00000000000E+00 0. -1.
         21   -1    0    0  501  502 -0.00000000000E+00 -0.00000000000E+00 -0.91743051925E+03  0.91743051925E+03  0.00000000000E+00 0. -1.
      99926    2    1    2    0    0  0.00000000000E+00  0.00000000000E+00 -0.85743920266E+03  0.97742183585E+03  0.46920300396E+03 0.  0.
      99925    2    3    3    0    0 -0.59978024566E+02  0.71218727521E+02 -0.70982756653E+03  0.76269835365E+03  0.26302877008E+03 0.  0.
         25    1    4    4    0    0 -0.36459194341E+02  0.15556797312E+02 -0.25001599522E+03  0.28235933270E+03  0.12509000000E+03 0.  0.
         25    1    3    3    0    0  0.59978024566E+02 -0.71218727521E+02 -0.14761163614E+03  0.21472348219E+03  0.12509000000E+03 0.  0.
         25    1    4    4    0    0 -0.23518830225E+02  0.55661930209E+02 -0.45981157130E+03  0.48033902096E+03  0.12509000000E+03 0.  0.
<mgrwt>
<rscale>  2 0.46920300E+03</rscale>
<asrwt>0</asrwt>
<pdfrwt beam="1">  1       21 0.88222535E-02 0.46920300E+03</pdfrwt>
<pdfrwt beam="2">  1       21 0.13491624E+00 0.46920300E+03</pdfrwt>
<totfact> 0.35895443E+04</totfact>
</mgrwt>
</event>
<event>
 7    0  0.4737014E-002  0.4507738E+03  0.7546771E-02  0.1027492E+00
         21   -1    0    0  502  501  0.00000000000E+00  0.00000000000E+00  0.81650218904E+03  0.81650218904E+03  0.00000000000E+00 0.  1.
         21   -1    0    0  501  502 -0.00000000000E+00 -0.00000000000E+00 -0.62215694346E+02  0.62215694346E+02  0.00000000000E+00 0.  1.
      99926    2    1    2    0    0  0.00000000000E+00  0.00000000000E+00  0.75428649469E+03  0.87871788338E+03  0.45077378196E+03 0.  0.
      99925    2    3    3    0    0  0.79579264208E+02 -0.68504456200E+02  0.53488745469E+03  0.60520523895E+03  0.26295070310E+03 0.  0.
         25    1    4    4    0    0  0.23575582740E+02 -0.11065622985E+02  0.18266469107E+03  0.22291736939E+03  0.12509000000E+03 0.  0.
         25    1    4    4    0    0  0.56003681468E+02 -0.57438833215E+02  0.35222276362E+03  0.38228786955E+03  0.12509000000E+03 0.  0.
         25    1    3    3    0    0 -0.79579264208E+02  0.68504456200E+02  0.21939904000E+03  0.27351264443E+03  0.12509000000E+03 0.  0.
<mgrwt>
<rscale>  2 0.45077378E+03</rscale>
<asrwt>0</asrwt>
<pdfrwt beam="1">  1       21 0.12007385E+00 0.45077378E+03</pdfrwt>
<pdfrwt beam="2">  1       21 0.91493673E-02 0.45077378E+03</pdfrwt>
<totfact> 0.45659341E+04</totfact>
</mgrwt>
</event>
<event>
 7    0  0.4737014E-002  0.4537730E+03  0.7546771E-02  0.1026603E+00
         21   -1    0    0  502  501  0.00000000000E+00  0.00000000000E+00  0.12638888592E+03  0.12638888592E+03  0.00000000000E+00 0. -1.
         21   -1    0    0  501  502 -0.00000000000E+00 -0.00000000000E+00 -0.40729436069E+03  0.40729436069E+03  0.00000000000E+00 0. -1.
      99926    2    1    2    0    0  0.00000000000E+00  0.00000000000E+00 -0.28090547477E+03  0.53368324661E+03  0.45377298505E+03 0.  0.
      99925    2    3    3    0    0 -0.10815573344E+03 -0.26128251888E+02 -0.16115904775E+03  0.32785063718E+03  0.26293241223E+03 0.  0.
         25    1    4    4    0    0 -0.45087771169E+02 -0.16803965109E+02 -0.12406577960E+03  0.18263380333E+03  0.12509000000E+03 0.  0.
         25    1    4    4    0    0 -0.63067962272E+02 -0.93242867798E+01 -0.37093268153E+02  0.14521683384E+03  0.12509000000E+03 0.  0.
         25    1    3    3    0    0  0.10815573344E+03  0.26128251888E+02 -0.11974642702E+03  0.20583260943E+03  0.12509000000E+03 0.  0.
<mgrwt>
<rscale>  2 0.45377299E+03</rscale>
<asrwt>0</asrwt>
<pdfrwt beam="1">  1       21 0.18586601E-01 0.45377299E+03</pdfrwt>
<pdfrwt beam="2">  1       21 0.59896230E-01 0.45377299E+03</pdfrwt>
<totfact> 0.63572960E+04</totfact>
</mgrwt>
</event>
<event>
 7    0  0.4737014E-002  0.4462681E+03  0.7546771E-02  0.1028841E+00
         21   -1    0    0  502  501  0.00000000000E+00  0.00000000000E+00  0.30175749319E+03  0.30175749319E+03  0.00000000000E+00 0. -1.
         21   -1    0    0  501  502 -0.00000000000E+00 -0.00000000000E+00 -0.16499605263E+03  0.16499605263E+03  0.00000000000E+00 0. -1.
      99926    2    1    2    0    0  0.00000000000E+00  0.00000000000E+00  0.13676144056E+03  0.46675354581E+03  0.44626805947E+03 0.  0.
      99925    2    3    3    0    0 -0.26423894814E+02  0.12630560149E+02 -0.18461904600E+02  0.26526025002E+03  0.26299126421E+03 0.  0.
         25    1    3    3    0    0  0.26423894814E+02 -0.12630560149E+02  0.15522334516E+03  0.20149329580E+03  0.12509000000E+03 0.  0.
         25    1    4    4    0    0 -0.16235493825E+02  0.69049388302E+01 -0.49777644302E+02  0.13578141041E+03  0.12509000000E+03 0.  0.
         25    1    4    4    0    0 -0.10188400988E+02  0.57256213188E+01  0.31315739702E+02  0.12947883961E+03  0.12509000000E+03 0.  0.
<mgrwt>
<rscale>  2 0.44626806E+03</rscale>
<asrwt>0</asrwt>
<pdfrwt beam="1">  1       21 0.44376102E-01 0.44626806E+03</pdfrwt>
<pdfrwt beam="2">  1       21 0.24264125E-01 0.44626806E+03</pdfrwt>
<totfact> 0.72577321E+04</totfact>
</mgrwt>
</event>
<event>
 7    0  0.4737014E-002  0.4543587E+03  0.7546771E-02  0.1026430E+00
         21   -1    0    0  502  501  0.00000000000E+00  0.00000000000E+00  0.18316348236E+03  0.18316348236E+03  0.00000000000E+00 0.  1.
         21   -1    0    0  501  502 -0.00000000000E+00 -0.00000000000E+00 -0.28177266189E+03  0.28177266189E+03  0.00000000000E+00 0.  1.
      99926    2    1    2    0    0  0.00000000000E+00  0.00000000000E+00 -0.98609179525E+02  0.46493614425E+03  0.45435872165E+03 0.  0.
      99925    2    3    3    0    0 -0.32156542324E+02 -0.22005421882E+02 -0.17012729125E+03  0.31566916795E+03  0.26303126536E+03 0.  0.
         25    1    4    4    0    0 -0.19513253183E+02 -0.86265802018E+01 -0.37252495589E+02  0.13225143275E+03  0.12509000000E+03 0.  0.
         25    1    3    3    0    0  0.32156542324E+02  0.22005421882E+02  0.71518111730E+02  0.14926697629E+03  0.12509000000E+03 0.  0.
         25    1    4    4    0    0 -0.12643289141E+02 -0.13378841680E+02 -0.13287479567E+03  0.18341773521E+03  0.12509000000E+03 0.  0.
<mgrwt>
<rscale>  2 0.45435872E+03</rscale>
<asrwt>0</asrwt>
<pdfrwt beam="1">  1       21 0.26935807E-01 0.45435872E+03</pdfrwt>
<pdfrwt beam="2">  1       21 0.41437155E-01 0.45435872E+03</pdfrwt>
<totfact> 0.68160797E+04</totfact>
</mgrwt>
</event>
<event>
 7    0  0.4737014E-002  0.4575678E+03  0.7546771E-02  0.1025489E+00
         21   -1    0    0  502  501  0.00000000000E+00  0.00000000000E+00  0.61920493097E+03  0.61920493097E+03  0.00000000000E+00 0. -1.
         21   -1    0    0  501  502 -0.00000000000E+00 -0.00000000000E+00 -0.84531099488E+02  0.84531099488E+02  0.00000000000E+00 0. -1.
      99926    2    1    2    0    0  0.71054273576E-14  0.00000000000E+00  0.53467383148E+03  0.70373603046E+03  0.45756780317E+03 0.  0.
      99925    2    3    3    0    0  0.37217975485E+02 -0.77715142997E+02  0.45408695766E+03  0.53178669640E+03  0.26301578698E+03 0.  0.
         25    1    3    3    0    0 -0.37217975485E+02  0.77715142997E+02  0.80586873822E+02  0.17194933406E+03  0.12509000000E+03 0.  0.
         25    1    4    4    0    0 -0.21077377169E+02 -0.47479181779E+02  0.22695829750E+03  0.26430305604E+03  0.12509000000E+03 0.  0.
         25    1    4    4    0    0  0.58295352654E+02 -0.30235961218E+02  0.22712866016E+03  0.26748364036E+03  0.12509000000E+03 0.  0.
<mgrwt>
<rscale>  2 0.45756780E+03</rscale>
<asrwt>0</asrwt>
<pdfrwt beam="1">  1       21 0.91059546E-01 0.45756780E+03</pdfrwt>
<pdfrwt beam="2">  1       21 0.12431044E-01 0.45756780E+03</pdfrwt>
<totfact> 0.51649013E+04</totfact>
</mgrwt>
</event>
<event>
 7    0  0.4737014E-002  0.4584705E+03  0.7546771E-02  0.1025226E+00
         21   -1    0    0  502  501  0.00000000000E+00  0.00000000000E+00  0.78412689320E+02  0.78412689320E+02  0.00000000000E+00 0. -1.
         21   -1    0    0  501  502 -0.00000000000E+00 -0.00000000000E+00 -0.67015687442E+03  0.67015687442E+03  0.00000000000E+00 0. -1.
      99926    2    1    2    0    0 -0.13322676296E-14  0.14210854715E-13 -0.59174418510E+03  0.74856956374E+03  0.45847051286E+03 0.  0.
      99925    2    3    3    0    0 -0.14164947734E+01 -0.10485717846E+03 -0.45383242981E+03  0.53487774200E+03  0.26293210189E+03 0.  0.
         25    1    4    4    0    0  0.25153203641E+02 -0.28959155541E+02 -0.25476925514E+03  0.28640216097E+03  0.12509000000E+03 0.  0.
         25    1    4    4    0    0 -0.26569698414E+02 -0.75898022922E+02 -0.19906317468E+03  0.24847558103E+03  0.12509000000E+03 0.  0.
         25    1    3    3    0    0  0.14164947734E+01  0.10485717846E+03 -0.13791175529E+03  0.21369182174E+03  0.12509000000E+03 0.  0.
<mgrwt>
<rscale>  2 0.45847051E+03</rscale>
<asrwt>0</asrwt>
<pdfrwt beam="1">  1       21 0.11531279E-01 0.45847051E+03</pdfrwt>
<pdfrwt beam="2">  1       21 0.98552476E-01 0.45847051E+03</pdfrwt>
<totfact> 0.48993831E+04</totfact>
</mgrwt>
</event>
<event>
 7    0  0.4737014E-002  0.4578010E+03  0.7546771E-02  0.1025421E+00
         21   -1    0    0  502  501  0.00000000000E+00  0.00000000000E+00  0.41423094526E+03  0.41423094526E+03  0.00000000000E+00 0. -1.
         21   -1    0    0  501  502 -0.00000000000E+00 -0.00000000000E+00 -0.12648846236E+03  0.12648846236E+03  0.00000000000E+00 0. -1.
      99926    2    1    2    0    0 -0.35527136788E-14  0.00000000000E+00  0.28774248290E+03  0.54071940762E+03  0.45780098440E+03 0.  0.
      99925    2    3    3    0    0  0.22679542267E+02  0.17926771030E+02  0.31300871324E+03  0.40986979451E+03  0.26302673463E+03 0.  0.
         25    1    4    4    0    0  0.29031586158E+02  0.81325861392E+01  0.21486262428E+03  0.25044445964E+03  0.12509000000E+03 0.  0.
         25    1    3    3    0    0 -0.22679542267E+02 -0.17926771030E+02 -0.25266230340E+02  0.13084961312E+03  0.12509000000E+03 0.  0.
         25    1    4    4    0    0 -0.63520438912E+01  0.97941848904E+01  0.98146088955E+02  0.15942533486E+03  0.12509000000E+03 0.  0.
<mgrwt>
<rscale>  2 0.45780098E+03</rscale>
<asrwt>0</asrwt>
<pdfrwt beam="1">  1       21 0.60916315E-01 0.45780098E+03</pdfrwt>
<pdfrwt beam="2">  1       21 0.18601245E-01 0.45780098E+03</pdfrwt>
<totfact> 0.61117898E+04</totfact>
</mgrwt>
</event>
<event>
 7    0  0.4737014E-002  0.4562526E+03  0.7546771E-02  0.1025874E+00
         21   -1    0    0  502  501  0.00000000000E+00  0.00000000000E+00  0.16814655168E+04  0.16814655168E+04  0.00000000000E+00 0. -1.
         21   -1    0    0  501  502 -0.00000000000E+00 -0.00000000000E+00 -0.30950150264E+02  0.30950150264E+02  0.00000000000E+00 0. -1.
      99926    2    1    2    0    0  0.00000000000E+00  0.71054273576E-14  0.16505153666E+04  0.17124156671E+04  0.45625260727E+03 0.  0.
      99925    2    3    3    0    0  0.95464119030E+02  0.61051477520E+02  0.10953546721E+04  0.11321643546E+04  0.26297069626E+03 0.  0.
         25    1    4    4    0    0  0.41886340976E+02  0.71153601585E+02  0.56909620609E+03  0.58850259172E+03  0.12509000000E+03 0.  0.
         25    1    4    4    0    0  0.53577778053E+02 -0.10102124065E+02  0.52625846604E+03  0.54366176285E+03  0.12509000000E+03 0.  0.
         25    1    3    3    0    0 -0.95464119030E+02 -0.61051477520E+02  0.55516069443E+03  0.58025131251E+03  0.12509000000E+03 0.  0.
<mgrwt>
<rscale>  2 0.45625261E+03</rscale>
<asrwt>0</asrwt>
<pdfrwt beam="1">  1       21 0.24727428E+00 0.45625261E+03</pdfrwt>
<pdfrwt beam="2">  1       21 0.45514938E-02 0.45625261E+03</pdfrwt>
<totfact> 0.18820942E+04</totfact>
</mgrwt>
</event>
<event>
 7    0  0.4737014E-002  0.4600526E+03  0.7546771E-02  0.1024766E+00
         21   -1    0    0  502  501  0.00000000000E+00  0.00000000000E+00  0.30447003900E+03  0.30447003900E+03  0.00000000000E+00 0.  1.
         21   -1    0    0  501  502 -0.00000000000E+00 -0.00000000000E+00 -0.17378424950E+03  0.17378424950E+03  0.00000000000E+00 0.  1.
      99926    2    1    2    0    0  0.00000000000E+00  0.14210854715E-13  0.13068578950E+03  0.47825428849E+03  0.46005259361E+03 0.  0.
      99925    2    3    3    0    0 -0.16955988923E+02  0.98282579713E+02  0.16595164129E+02  0.28175708767E+03  0.26299179824E+03 0.  0.
         25    1    3    3    0    0  0.16955988923E+02 -0.98282579713E+02  0.11409062537E+03  0.19649720083E+03  0.12509000000E+03 0.  0.
         25    1    4    4    0    0 -0.26045025491E+02  0.44504599442E+02  0.44574975267E+02  0.14245504289E+03  0.12509000000E+03 0.  0.
         25    1    4    4    0    0  0.90890365689E+01  0.53777980271E+02 -0.27979811137E+02  0.13930204478E+03  0.12509000000E+03 0.  0.
<mgrwt>
<rscale>  2 0.46005259E+03</rscale>
<asrwt>0</asrwt>
<pdfrwt beam="1">  1       21 0.44775006E-01 0.46005259E+03</pdfrwt>
<pdfrwt beam="2">  1       21 0.25556507E-01 0.46005259E+03</pdfrwt>
<totfact> 0.64213742E+04</totfact>
</mgrwt>
</event>
<event>
 7    0  0.4737014E-002  0.4566037E+03  0.7546771E-02  0.1025771E+00
         21   -1    0    0  502  501  0.00000000000E+00  0.00000000000E+00  0.13635099260E+03  0.13635099260E+03  0.00000000000E+00 0.  1.
         21   -1    0    0  501  502 -0.00000000000E+00 -0.00000000000E+00 -0.38226152883E+03  0.38226152883E+03  0.00000000000E+00 0.  1.
      99926    2    1    2    0    0  0.00000000000E+00  0.00000000000E+00 -0.24591053623E+03  0.51861252144E+03  0.45660371830E+03 0.  0.
      99925    2    3    3    0    0 -0.99826782643E+02 -0.38824779644E+02 -0.20159658988E+03  0.34807225057E+03  0.26275531682E+03 0.  0.
         25    1    4    4    0    0 -0.19645223560E+02 -0.46683534684E+02 -0.96795926326E+02  0.16607903743E+03  0.12509000000E+03 0.  0.
         25    1    4    4    0    0 -0.80181559083E+02  0.78587550409E+01 -0.10480066356E+03  0.18199321314E+03  0.12509000000E+03 0.  0.
         25    1    3    3    0    0  0.99826782643E+02  0.38824779644E+02 -0.44313946347E+02  0.17054027087E+03  0.12509000000E+03 0.  0.
<mgrwt>
<rscale>  2 0.45660372E+03</rscale>
<asrwt>0</asrwt>
<pdfrwt beam="1">  1       21 0.20051617E-01 0.45660372E+03</pdfrwt>
<pdfrwt beam="2">  1       21 0.56214930E-01 0.45660372E+03</pdfrwt>
<totfact> 0.63174205E+04</totfact>
</mgrwt>
</event>
<event>
 7    0  0.4737014E-002  0.4514415E+03  0.7546771E-02  0.1027293E+00
         21   -1    0    0  502  501  0.00000000000E+00  0.00000000000E+00  0.40780621062E+03  0.40780621062E+03  0.00000000000E+00 0.  1.
         21   -1    0    0  501  502 -0.00000000000E+00 -0.00000000000E+00 -0.12493643815E+03  0.12493643815E+03  0.00000000000E+00 0.  1.
      99926    2    1    2    0    0 -0.44408920985E-15  0.71054273576E-14  0.28286977248E+03  0.53274264877E+03  0.45144149304E+03 0.  0.
      99925    2    3    3    0    0  0.69116793748E+00 -0.54467656884E+02  0.66095421629E+02  0.27660629711E+03  0.26301185425E+03 0.  0.
         25    1    3    3    0    0 -0.69116793748E+00  0.54467656884E+02  0.21677435085E+03  0.25613635166E+03  0.12509000000E+03 0.  0.
         25    1    4    4    0    0  0.54683649806E+01  0.12963263789E+02  0.22399099723E+02  0.12785607921E+03  0.12509000000E+03 0.  0.
         25    1    4    4    0    0 -0.47771970431E+01 -0.67430920673E+02  0.43696321907E+02  0.14875021789E+03  0.12509000000E+03 0.  0.
<mgrwt>
<rscale>  2 0.45144149E+03</rscale>
<asrwt>0</asrwt>
<pdfrwt beam="1">  1       21 0.59971501E-01 0.45144149E+03</pdfrwt>
<pdfrwt beam="2">  1       21 0.18373006E-01 0.45144149E+03</pdfrwt>
<totfact> 0.64828296E+04</totfact>
</mgrwt>
</event>
<event>
 7    0  0.4737014E-002  0.4553493E+03  0.7546771E-02  0.1026139E+00
         21   -1    0    0  502  501  0.00000000000E+00  0.00000000000E+00  0.18596538423E+04  0.18596538423E+04  0.00000000000E+00 0. -1.
         21   -1    0    0  501  502 -0.00000000000E+00 -0.00000000000E+00 -0.27873869626E+02  0.27873869626E+02  0.00000000000E+00 0. -1.
      99926    2    1    2    0    0  0.00000000000E+00  0.17763568394E-14  0.18317799727E+04  0.18875277119E+04  0.45534931097E+03 0.  0.
      99925    2    3    3    0    0 -0.11085979325E+03  0.56901071813E+01  0.12500468299E+04  0.12822317277E+04  0.26301873578E+03 0.  0.
         25    1    4    4    0    0 -0.20345577282E+02 -0.16175830358E+02  0.63480750030E+03  0.64753661715E+03  0.12509000000E+03 0.  0.
         25    1    3    3    0    0  0.11085979325E+03 -0.56901071813E+01  0.58173314274E+03  0.60529598424E+03  0.12509000000E+03 0.  0.
         25    1    4    4    0    0 -0.90514215963E+02  0.21865937539E+02  0.61523932963E+03  0.63469511054E+03  0.12509000000E+03 0.  0.
<mgrwt>
<rscale>  2 0.45534931E+03</rscale>
<asrwt>0</asrwt>
<pdfrwt beam="1">  1       21 0.27347842E+00 0.45534931E+03</pdfrwt>
<pdfrwt beam="2">  1       21 0.40990997E-02 0.45534931E+03</pdfrwt>
<totfact> 0.15591924E+04</totfact>
</mgrwt>
</event>
<event>
 7    0  0.4737014E-002  0.4349541E+03  0.7546771E-02  0.1032306E+00
         21   -1    0    0  502  501  0.00000000000E+00  0.00000000000E+00  0.43202991528E+02  0.43202991528E+02  0.00000000000E+00 0. -1.
         21   -1    0    0  501  502 -0.00000000000E+00 -0.00000000000E+00 -0.10947452818E+04  0.10947452818E+04  0.00000000000E+00 0. -1.
      99926    2    1    2    0    0 -0.19984014443E-14 -0.71054273576E-14 -0.10515422903E+04  0.11379482733E+04  0.43495411774E+03 0.  0.
      99925    2    3    3    0    0  0.59741128875E+00 -0.49873275022E+02 -0.46755255280E+03  0.53863264527E+03  0.26273948401E+03 0.  0.
         25    1    4    4    0    0 -0.20050413354E+02 -0.39382409137E+01 -0.28278191616E+03  0.30988812340E+03  0.12509000000E+03 0.  0.
         25    1    3    3    0    0 -0.59741128875E+00  0.49873275022E+02 -0.58398973747E+03  0.59931562806E+03  0.12509000000E+03 0.  0.
         25    1    4    4    0    0  0.20647824643E+02 -0.45935034108E+02 -0.18477063664E+03  0.22874452187E+03  0.12509000000E+03 0.  0.
<mgrwt>
<rscale>  2 0.43495412E+03</rscale>
<asrwt>0</asrwt>
<pdfrwt beam="1">  1       21 0.63533811E-02 0.43495412E+03</pdfrwt>
<pdfrwt beam="2">  1       21 0.16099195E+00 0.43495412E+03</pdfrwt>
<totfact> 0.40095345E+04</totfact>
</mgrwt>
</event>
<event>
 7    0  0.4737014E-002  0.4537330E+03  0.7546771E-02  0.1026615E+00
         21   -1    0    0  502  501  0.00000000000E+00  0.00000000000E+00  0.20897539420E+03  0.20897539420E+03  0.00000000000E+00 0.  1.
         21   -1    0    0  501  502 -0.00000000000E+00 -0.00000000000E+00 -0.24628932716E+03  0.24628932716E+03  0.00000000000E+00 0.  1.
      99926    2    1    2    0    0  0.00000000000E+00  0.00000000000E+00 -0.37313932960E+02  0.45526472137E+03  0.45373300181E+03 0.  0.
      99925    2    3    3    0    0 -0.15735869265E+02  0.10684341066E+03 -0.53199662722E+02  0.28924364893E+03  0.26299914895E+03 0.  0.
         25    1    4    4    0    0 -0.47891063990E+01  0.54223286560E+02 -0.67755272420E+02  0.15232000980E+03  0.12509000000E+03 0.  0.
         25    1    4    4    0    0 -0.10946762866E+02  0.52620124105E+02  0.14555609698E+02  0.13692363913E+03  0.12509000000E+03 0.  0.
         25    1    3    3    0    0  0.15735869265E+02 -0.10684341066E+03  0.15885729761E+02  0.16602107244E+03  0.12509000000E+03 0.  0.
<mgrwt>
<rscale>  2 0.45373300E+03</rscale>
<asrwt>0</asrwt>
<pdfrwt beam="1">  1       21 0.30731676E-01 0.45373300E+03</pdfrwt>
<pdfrwt beam="2">  1       21 0.36219019E-01 0.45373300E+03</pdfrwt>
<totfact> 0.69223571E+04</totfact>
</mgrwt>
</event>
<event>
 7    0  0.4737014E-002  0.4515961E+03  0.7546771E-02  0.1027247E+00
         21   -1    0    0  502  501  0.00000000000E+00  0.00000000000E+00  0.89226187024E+03  0.89226187024E+03  0.00000000000E+00 0. -1.
         21   -1    0    0  501  502 -0.00000000000E+00 -0.00000000000E+00 -0.57141028059E+02  0.57141028059E+02  0.00000000000E+00 0. -1.
      99926    2    1    2    0    0  0.00000000000E+00  0.00000000000E+00  0.83512084218E+03  0.94940289830E+03  0.45159610522E+03 0.  0.
      99925    2    3    3    0    0 -0.79705307323E+02 -0.72425720033E+02  0.57167932738E+03  0.63852131190E+03  0.26323713922E+03 0.  0.
         25    1    3    3    0    0  0.79705307323E+02  0.72425720033E+02  0.26344151480E+03  0.31088158639E+03  0.12509000000E+03 0.  0.
         25    1    4    4    0    0 -0.47440277548E+02 -0.21468490492E+02  0.36667678741E+03  0.39091028452E+03  0.12509000000E+03 0.  0.
         25    1    4    4    0    0 -0.32265029775E+02 -0.50957229541E+02  0.20500253997E+03  0.24761102739E+03  0.12509000000E+03 0.  0.
<mgrwt>
<rscale>  2 0.45159611E+03</rscale>
<asrwt>0</asrwt>
<pdfrwt beam="1">  1       21 0.13121497E+00 0.45159611E+03</pdfrwt>
<pdfrwt beam="2">  1       21 0.84030929E-02 0.45159611E+03</pdfrwt>
<totfact> 0.42279203E+04</totfact>
</mgrwt>
</event>
<event>
 7    0  0.4737014E-002  0.4193424E+03  0.7546771E-02  0.1037281E+00
         21   -1    0    0  502  501  0.00000000000E+00  0.00000000000E+00  0.11473720903E+02  0.11473720903E+02  0.00000000000E+00 0. -1.
         21   -1    0    0  501  502 -0.00000000000E+00 -0.00000000000E+00 -0.38315398489E+04  0.38315398489E+04  0.00000000000E+00 0. -1.
      99926    2    1    2    0    0  0.23314683517E-14  0.00000000000E+00 -0.38200661280E+04  0.38430135698E+04  0.41934243217E+03 0.  0.
      99925    2    3    3    0    0  0.51759885931E+00  0.40238411452E+02 -0.19040230302E+04  0.19224698815E+04  0.26261635207E+03 0.  0.
         25    1    4    4    0    0  0.38247029374E+02  0.12663079675E+02 -0.10156208268E+04  0.10240880630E+04  0.12509000000E+03 0.  0.
         25    1    3    3    0    0 -0.51759885931E+00 -0.40238411452E+02 -0.19160430979E+04  0.19205436883E+04  0.12509000000E+03 0.  0.
         25    1    4    4    0    0 -0.37729430515E+02  0.27575331777E+02 -0.88840220339E+03  0.89838181857E+03  0.12509000000E+03 0.  0.
<mgrwt>
<rscale>  2 0.41934243E+03</rscale>
<asrwt>0</asrwt>
<pdfrwt beam="1">  1       21 0.16873123E-02 0.41934243E+03</pdfrwt>
<pdfrwt beam="2">  1       21 0.56346161E+00 0.41934243E+03</pdfrwt>
<totfact> 0.84547872E+02</totfact>
</mgrwt>
</event>
<event>
 7    0  0.4737014E-002  0.4591324E+03  0.7546771E-02  0.1025033E+00
         21   -1    0    0  502  501  0.00000000000E+00  0.00000000000E+00  0.61623828798E+02  0.61623828798E+02  0.00000000000E+00 0. -1.
         21   -1    0    0  501  502 -0.00000000000E+00 -0.00000000000E+00 -0.85519913775E+03  0.85519913775E+03  0.00000000000E+00 0. -1.
      99926    2    1    2    0    0 -0.71054273576E-14  0.14210854715E-13 -0.79357530895E+03  0.91682296655E+03  0.45913242209E+03 0.  0.
      99925    2    3    3    0    0  0.61787130225E+02  0.75112134014E+02 -0.62844267574E+03  0.68796541961E+03  0.26248188462E+03 0.  0.
         25    1    3    3    0    0 -0.61787130225E+02 -0.75112134014E+02 -0.16513263321E+03  0.22885754694E+03  0.12509000000E+03 0.  0.
         25    1    4    4    0    0  0.40332064908E+02  0.78135434910E+02 -0.35079209296E+03  0.38266750872E+03  0.12509000000E+03 0.  0.
         25    1    4    4    0    0  0.21455065317E+02 -0.30233008960E+01 -0.27765058278E+03  0.30529791089E+03  0.12509000000E+03 0.  0.
<mgrwt>
<rscale>  2 0.45913242E+03</rscale>
<asrwt>0</asrwt>
<pdfrwt beam="1">  1       21 0.90623284E-02 0.45913242E+03</pdfrwt>
<pdfrwt beam="2">  1       21 0.12576457E+00 0.45913242E+03</pdfrwt>
<totfact> 0.41166557E+04</totfact>
</mgrwt>
</event>
<event>
 7    0  0.4737014E-002  0.4738163E+03  0.7546771E-02  0.1020849E+00
         21   -1    0    0  502  501  0.00000000000E+00  0.00000000000E+00  0.16213741807E+03  0.16213741807E+03  0.00000000000E+00 0. -1.
         21   -1    0    0  501  502 -0.00000000000E+00 -0.00000000000E+00 -0.34615985782E+03  0.34615985782E+03  0.00000000000E+00 0. -1.
      99926    2    1    2    0    0 -0.35527136788E-14  0.00000000000E+00 -0.18402243976E+03  0.50829727589E+03  0.47381627488E+03 0.  0.
      99925    2    3    3    0    0 -0.26769229628E+02  0.63177207410E+02  0.44607477397E+01  0.27190486641E+03  0.26306730492E+03 0.  0.
         25    1    4    4    0    0 -0.44729896787E+02  0.55731324638E+01  0.44415186802E+00  0.13296438938E+03  0.12509000000E+03 0.  0.
         25    1    3    3    0    0  0.26769229628E+02 -0.63177207410E+02 -0.18848318750E+03  0.23639240948E+03  0.12509000000E+03 0.  0.
         25    1    4    4    0    0  0.17960667159E+02  0.57604074946E+02  0.40165958716E+01  0.13894047703E+03  0.12509000000E+03 0.  0.
<mgrwt>
<rscale>  2 0.47381627E+03</rscale>
<asrwt>0</asrwt>
<pdfrwt beam="1">  1       21 0.23843739E-01 0.47381627E+03</pdfrwt>
<pdfrwt beam="2">  1       21 0.50905860E-01 0.47381627E+03</pdfrwt>
<totfact> 0.55868627E+04</totfact>
</mgrwt>
</event>
<event>
 7    0  0.4737014E-002  0.4522700E+03  0.7546771E-02  0.1027047E+00
         21   -1    0    0  502  501  0.00000000000E+00  0.00000000000E+00  0.36386962134E+03  0.36386962134E+03  0.00000000000E+00 0. -1.
         21   -1    0    0  501  502 -0.00000000000E+00 -0.00000000000E+00 -0.14053671499E+03  0.14053671499E+03  0.00000000000E+00 0. -1.
      99926    2    1    2    0    0  0.00000000000E+00  0.00000000000E+00  0.22333290636E+03  0.50440633633E+03  0.45227001345E+03 0.  0.
      99925    2    3    3    0    0  0.74944235810E+02  0.67864457594E+02  0.19109942850E+03  0.34036753519E+03  0.26288561077E+03 0.  0.
         25    1    4    4    0    0  0.76759735028E+02  0.46770265349E+02  0.92364561484E+02  0.17960577652E+03  0.12509000000E+03 0.  0.
         25    1    3    3    0    0 -0.74944235810E+02 -0.67864457594E+02  0.32233477855E+02  0.16403880114E+03  0.12509000000E+03 0.  0.
         25    1    4    4    0    0 -0.18154992181E+01  0.21094192245E+02  0.98734867016E+02  0.16076175866E+03  0.12509000000E+03 0.  0.
<mgrwt>
<rscale>  2 0.45227001E+03</rscale>
<asrwt>0</asrwt>
<pdfrwt beam="1">  1       21 0.53510239E-01 0.45227001E+03</pdfrwt>
<pdfrwt beam="2">  1       21 0.20667164E-01 0.45227001E+03</pdfrwt>
<totfact> 0.66389112E+04</totfact>
</mgrwt>
</event>
<event>
 7    0  0.4737014E-002  0.4470973E+03  0.7546771E-02  0.1028591E+00
         21   -1    0    0  502  501  0.00000000000E+00  0.00000000000E+00  0.30067817682E+02  0.30067817682E+02  0.00000000000E+00 0. -1.
         21   -1    0    0  501  502 -0.00000000000E+00 -0.00000000000E+00 -0.16620425353E+04  0.16620425353E+04  0.00000000000E+00 0. -1.
      99926    2    1    2    0    0  0.00000000000E+00  0.00000000000E+00 -0.16319747176E+04  0.16921103529E+04  0.44709726875E+03 0.  0.
      99925    2    3    3    0    0 -0.69118377905E+02 -0.58322763470E+02 -0.12404882372E+04  0.12712920224E+04  0.26304646868E+03 0.  0.
         25    1    4    4    0    0 -0.47248963148E+02 -0.58421955018E+02 -0.78429615977E+03  0.79775532820E+03  0.12509000000E+03 0.  0.
         25    1    3    3    0    0  0.69118377905E+02  0.58322763470E+02 -0.39148648043E+03  0.42081833059E+03  0.12509000000E+03 0.  0.
         25    1    4    4    0    0 -0.21869414758E+02  0.99191548104E-01 -0.45619207739E+03  0.47353669416E+03  0.12509000000E+03 0.  0.
<mgrwt>
<rscale>  2 0.44709727E+03</rscale>
<asrwt>0</asrwt>
<pdfrwt beam="1">  1       21 0.44217380E-02 0.44709727E+03</pdfrwt>
<pdfrwt beam="2">  1       21 0.24441801E+00 0.44709727E+03</pdfrwt>
<totfact> 0.20665458E+04</totfact>
</mgrwt>
</event>
<event>
 7    0  0.4737014E-002  0.4556258E+03  0.7546771E-02  0.1026058E+00
         21   -1    0    0  502  501  0.00000000000E+00  0.00000000000E+00  0.19749327370E+03  0.19749327370E+03  0.00000000000E+00 0.  1.
         21   -1    0    0  501  502 -0.00000000000E+00 -0.00000000000E+00 -0.26278725888E+03  0.26278725888E+03  0.00000000000E+00 0.  1.
      99926    2    1    2    0    0  0.00000000000E+00  0.14210854715E-13 -0.65293985171E+02  0.46028053258E+03  0.45562579402E+03 0.  0.
      99925    2    3    3    0    0 -0.66324468272E+02  0.72920078051E+02  0.14792679443E+02  0.28201765135E+03  0.26381595751E+03 0.  0.
         25    1    4    4    0    0 -0.41981829900E+02 -0.53780059197E+01  0.61212258832E+01  0.13219823938E+03  0.12509000000E+03 0.  0.
         25    1    3    3    0    0  0.66324468272E+02 -0.72920078051E+02 -0.80086664613E+02  0.17826288123E+03  0.12509000000E+03 0.  0.
         25    1    4    4    0    0 -0.24342638372E+02  0.78298083971E+02  0.86714535598E+01  0.14981941197E+03  0.12509000000E+03 0.  0.
<mgrwt>
<rscale>  2 0.45562579E+03</rscale>
<asrwt>0</asrwt>
<pdfrwt beam="1">  1       21 0.29043129E-01 0.45562579E+03</pdfrwt>
<pdfrwt beam="2">  1       21 0.38645185E-01 0.45562579E+03</pdfrwt>
<totfact> 0.67821040E+04</totfact>
</mgrwt>
</event>
<event>
 7    0  0.4737014E-002  0.4382998E+03  0.7546771E-02  0.1031270E+00
         21   -1    0    0  502  501  0.00000000000E+00  0.00000000000E+00  0.56470899909E+03  0.56470899909E+03  0.00000000000E+00 0. -1.
         21   -1    0    0  501  502 -0.00000000000E+00 -0.00000000000E+00 -0.85046787068E+02  0.85046787068E+02  0.00000000000E+00 0. -1.
      99926    2    1    2    0    0 -0.71054273576E-14  0.00000000000E+00  0.47966221202E+03  0.64975578616E+03  0.43829983345E+03 0.  0.
      99925    2    3    3    0    0 -0.60840723091E+02  0.73194792022E+02  0.28110198240E+03  0.39651135078E+03  0.26295219265E+03 0.  0.
         25    1    3    3    0    0  0.60840723091E+02 -0.73194792022E+02  0.19856022962E+03  0.25324443538E+03  0.12509000000E+03 0.  0.
         25    1    4    4    0    0 -0.38989142906E+02  0.19871626020E+02  0.18898184306E+03  0.23081741678E+03  0.12509000000E+03 0.  0.
         25    1    4    4    0    0 -0.21851580186E+02  0.53323166003E+02  0.92120139345E+02  0.16569393399E+03  0.12509000000E+03 0.  0.
<mgrwt>
<rscale>  2 0.43829983E+03</rscale>
<asrwt>0</asrwt>
<pdfrwt beam="1">  1       21 0.83045439E-01 0.43829983E+03</pdfrwt>
<pdfrwt beam="2">  1       21 0.12506881E-01 0.43829983E+03</pdfrwt>
<totfact> 0.63698762E+04</totfact>
</mgrwt>
</event>
<event>
 7    0  0.4737014E-002  0.4072233E+03  0.7546771E-02  0.1041307E+00
         21   -1    0    0  502  501  0.00000000000E+00  0.00000000000E+00  0.36472654100E+02  0.36472654100E+02  0.00000000000E+00 0. -1.
         21   -1    0    0  501  502 -0.00000000000E+00 -0.00000000000E+00 -0.11366793015E+04  0.11366793015E+04  0.00000000000E+00 0. -1.
      99926    2    1    2    0    0  0.00000000000E+00  0.00000000000E+00 -0.11002066474E+04  0.11731519556E+04  0.40722333424E+03 0.  0.
      99925    2    3    3    0    0  0.23532863564E+02  0.36365852807E+02 -0.61665618156E+03  0.67180892729E+03  0.26303254099E+03 0.  0.
         25    1    4    4    0    0  0.33009056435E+02  0.39076169561E+02 -0.24871437680E+03  0.28305987734E+03  0.12509000000E+03 0.  0.
         25    1    4    4    0    0 -0.94761928717E+01 -0.27103167542E+01 -0.36794180476E+03  0.38874904995E+03  0.12509000000E+03 0.  0.
         25    1    3    3    0    0 -0.23532863564E+02 -0.36365852807E+02 -0.48355046589E+03  0.50134302836E+03  0.12509000000E+03 0.  0.
<mgrwt>
<rscale>  2 0.40722333E+03</rscale>
<asrwt>0</asrwt>
<pdfrwt beam="1">  1       21 0.53636267E-02 0.40722333E+03</pdfrwt>
<pdfrwt beam="2">  1       21 0.16715869E+00 0.40722333E+03</pdfrwt>
<totfact> 0.48808815E+04</totfact>
</mgrwt>
</event>
<event>
 7    0  0.4737014E-002  0.4542488E+03  0.7546771E-02  0.1026463E+00
         21   -1    0    0  502  501  0.00000000000E+00  0.00000000000E+00  0.46129397225E+03  0.46129397225E+03  0.00000000000E+00 0. -1.
         21   -1    0    0  501  502 -0.00000000000E+00 -0.00000000000E+00 -0.11182782054E+03  0.11182782054E+03  0.00000000000E+00 0. -1.
      99926    2    1    2    0    0  0.00000000000E+00  0.00000000000E+00  0.34946615171E+03  0.57312179280E+03  0.45424882849E+03 0.  0.
      99925    2    3    3    0    0 -0.40047402425E+02 -0.10173626052E+03  0.25267299062E+03  0.38084468735E+03  0.26314439866E+03 0.  0.
         25    1    4    4    0    0 -0.35891573527E+01 -0.11125649261E+02  0.99284577693E+02  0.16012993970E+03  0.12509000000E+03 0.  0.
         25    1    4    4    0    0 -0.36458245073E+02 -0.90610611258E+02  0.15338841293E+03  0.22071474764E+03  0.12509000000E+03 0.  0.
         25    1    3    3    0    0  0.40047402425E+02  0.10173626052E+03  0.96793161089E+02  0.19227710545E+03  0.12509000000E+03 0.  0.
<mgrwt>
<rscale>  2 0.45424883E+03</rscale>
<asrwt>0</asrwt>
<pdfrwt beam="1">  1       21 0.67837348E-01 0.45424883E+03</pdfrwt>
<pdfrwt beam="2">  1       21 0.16445268E-01 0.45424883E+03</pdfrwt>
<totfact> 0.60723839E+04</totfact>
</mgrwt>
</event>
<event>
 7    0  0.4737014E-002  0.4534531E+03  0.7546771E-02  0.1026697E+00
         21   -1    0    0  502  501  0.00000000000E+00  0.00000000000E+00  0.38275553180E+02  0.38275553180E+02  0.00000000000E+00 0.  1.
         21   -1    0    0  501  502 -0.00000000000E+00 -0.00000000000E+00 -0.13430223442E+04  0.13430223442E+04  0.00000000000E+00 0.  1.
      99926    2    1    2    0    0 -0.35527136788E-14 -0.35527136788E-14 -0.13047467910E+04  0.13812978974E+04  0.45345307655E+03 0.  0.
      99925    2    3    3    0    0  0.26278389404E+02  0.14826477224E+02 -0.11498406239E+04  0.11799181395E+04  0.26298854989E+03 0.  0.
         25    1    3    3    0    0 -0.26278389404E+02 -0.14826477224E+02 -0.15490616717E+03  0.20137975793E+03  0.12509000000E+03 0.  0.
         25    1    4    4    0    0  0.19527217313E+02  0.25200655325E+02 -0.42199107389E+03  0.44129396074E+03  0.12509000000E+03 0.  0.
         25    1    4    4    0    0  0.67511720915E+01 -0.10374178101E+02 -0.72784954997E+03  0.73862417871E+03  0.12509000000E+03 0.  0.
<mgrwt>
<rscale>  2 0.45345308E+03</rscale>
<asrwt>0</asrwt>
<pdfrwt beam="1">  1       21 0.56287597E-02 0.45345308E+03</pdfrwt>
<pdfrwt beam="2">  1       21 0.19750322E+00 0.45345308E+03</pdfrwt>
<totfact> 0.27159750E+04</totfact>
</mgrwt>
</event>
<event>
 7    0  0.4737014E-002  0.4530058E+03  0.7546771E-02  0.1026829E+00
         21   -1    0    0  502  501  0.00000000000E+00  0.00000000000E+00  0.77388057748E+03  0.77388057748E+03  0.00000000000E+00 0.  1.
         21   -1    0    0  501  502 -0.00000000000E+00 -0.00000000000E+00 -0.66293910691E+02  0.66293910691E+02  0.00000000000E+00 0.  1.
      99926    2    1    2    0    0  0.35527136788E-14 -0.14210854715E-13  0.70758666679E+03  0.84017448817E+03  0.45300582729E+03 0.  0.
      99925    2    3    3    0    0  0.23212869641E+02 -0.78049936210E+02  0.30538303615E+03  0.41116877905E+03  0.26300254037E+03 0.  0.
         25    1    4    4    0    0  0.19666235487E+02 -0.80446197891E+02  0.16001133639E+03  0.21933875044E+03  0.12509000000E+03 0.  0.
         25    1    3    3    0    0 -0.23212869641E+02  0.78049936210E+02  0.40220363064E+03  0.42900570912E+03  0.12509000000E+03 0.  0.
         25    1    4    4    0    0  0.35466341536E+01  0.23962616819E+01  0.14537169977E+03  0.19183002861E+03  0.12509000000E+03 0.  0.
<mgrwt>
<rscale>  2 0.45300583E+03</rscale>
<asrwt>0</asrwt>
<pdfrwt beam="1">  1       21 0.11380596E+00 0.45300583E+03</pdfrwt>
<pdfrwt beam="2">  1       21 0.97491049E-02 0.45300583E+03</pdfrwt>
<totfact> 0.46607055E+04</totfact>
</mgrwt>
</event>
<event>
 7    0  0.4737014E-002  0.4191386E+03  0.7546771E-02  0.1037347E+00
         21   -1    0    0  502  501  0.00000000000E+00  0.00000000000E+00  0.74834268531E+02  0.74834268531E+02  0.00000000000E+00 0. -1.
         21   -1    0    0  501  502 -0.00000000000E+00 -0.00000000000E+00 -0.58688739453E+03  0.58688739453E+03  0.00000000000E+00 0. -1.
      99926    2    1    2    0    0  0.00000000000E+00  0.00000000000E+00 -0.51205312600E+03  0.66172166307E+03  0.41913858749E+03 0.  0.
      99925    2    3    3    0    0  0.39004598023E+01  0.64709945643E+02 -0.39232798023E+03  0.47683194112E+03  0.26314419117E+03 0.  0.
         25    1    4    4    0    0  0.26951148395E+02  0.30111798395E+00 -0.19972603333E+03  0.23720128912E+03  0.12509000000E+03 0.  0.
         25    1    4    4    0    0 -0.23050688593E+02  0.64408827659E+02 -0.19260194690E+03  0.23963065200E+03  0.12509000000E+03 0.  0.
         25    1    3    3    0    0 -0.39004598023E+01 -0.64709945643E+02 -0.11972514577E+03  0.18488972195E+03  0.12509000000E+03 0.  0.
<mgrwt>
<rscale>  2 0.41913859E+03</rscale>
<asrwt>0</asrwt>
<pdfrwt beam="1">  1       21 0.11005039E-01 0.41913859E+03</pdfrwt>
<pdfrwt beam="2">  1       21 0.86306972E-01 0.41913859E+03</pdfrwt>
<totfact> 0.73766578E+04</totfact>
</mgrwt>
</event>
<event>
 7    0  0.4737014E-002  0.4560591E+03  0.7546771E-02  0.1025930E+00
         21   -1    0    0  502  501  0.00000000000E+00  0.00000000000E+00  0.16751709437E+03  0.16751709437E+03  0.00000000000E+00 0. -1.
         21   -1    0    0  501  502 -0.00000000000E+00 -0.00000000000E+00 -0.31040107552E+03  0.31040107552E+03  0.00000000000E+00 0. -1.
      99926    2    1    2    0    0  0.00000000000E+00 -0.71054273576E-14 -0.14288398115E+03  0.47791816989E+03  0.45605914642E+03 0.  0.
      99925    2    3    3    0    0 -0.25159471895E+02  0.55426003490E+02 -0.19077201039E+03  0.33079301115E+03  0.26329644014E+03 0.  0.
         25    1    3    3    0    0  0.25159471895E+02 -0.55426003490E+02  0.47888029233E+02  0.14712515874E+03  0.12509000000E+03 0.  0.
         25    1    4    4    0    0 -0.39693903462E+00  0.12270989103E+02 -0.13674408323E+03  0.18573418407E+03  0.12509000000E+03 0.  0.
         25    1    4    4    0    0 -0.24762532861E+02  0.43155014387E+02 -0.54027927152E+02  0.14505882708E+03  0.12509000000E+03 0.  0.
<mgrwt>
<rscale>  2 0.45605915E+03</rscale>
<asrwt>0</asrwt>
<pdfrwt beam="1">  1       21 0.24634867E-01 0.45605915E+03</pdfrwt>
<pdfrwt beam="2">  1       21 0.45647217E-01 0.45605915E+03</pdfrwt>
<totfact> 0.66292932E+04</totfact>
</mgrwt>
</event>
<event>
 7    0  0.4737014E-002  0.4477825E+03  0.7546771E-02  0.1028385E+00
         21   -1    0    0  502  501  0.00000000000E+00  0.00000000000E+00  0.18503172019E+03  0.18503172019E+03  0.00000000000E+00 0. -1.
         21   -1    0    0  501  502 -0.00000000000E+00 -0.00000000000E+00 -0.27091187456E+03  0.27091187456E+03  0.00000000000E+00 0. -1.
      99926    2    1    2    0    0  0.00000000000E+00  0.00000000000E+00 -0.85880154375E+02  0.45594359475E+03  0.44778249260E+03 0.  0.
      99925    2    3    3    0    0 -0.26045407885E+02  0.27098809050E+02  0.46848500054E+02  0.26972567797E+03  0.26295332414E+03 0.  0.
         25    1    3    3    0    0  0.26045407885E+02 -0.27098809050E+02 -0.13272865443E+03  0.18621791678E+03  0.12509000000E+03 0.  0.
         25    1    4    4    0    0 -0.50242110618E+02 -0.24929295067E+01  0.23653090160E+02  0.13688484632E+03  0.12509000000E+03 0.  0.
         25    1    4    4    0    0  0.24196702733E+02  0.29591738557E+02  0.23195409893E+02  0.13284083165E+03  0.12509000000E+03 0.  0.
<mgrwt>
<rscale>  2 0.44778249E+03</rscale>
<asrwt>0</asrwt>
<pdfrwt beam="1">  1       21 0.27210547E-01 0.44778249E+03</pdfrwt>
<pdfrwt beam="2">  1       21 0.39839981E-01 0.44778249E+03</pdfrwt>
<totfact> 0.72562500E+04</totfact>
</mgrwt>
</event>
<event>
 7    0  0.4737014E-002  0.4516859E+03  0.7546771E-02  0.1027220E+00
         21   -1    0    0  502  501  0.00000000000E+00  0.00000000000E+00  0.36688936624E+03  0.36688936624E+03  0.00000000000E+00 0. -1.
         21   -1    0    0  501  502 -0.00000000000E+00 -0.00000000000E+00 -0.13902020721E+03  0.13902020721E+03  0.00000000000E+00 0. -1.
      99926    2    1    2    0    0  0.71054273576E-14 -0.71054273576E-14  0.22786915903E+03  0.50590957345E+03  0.45168588961E+03 0.  0.
      99925    2    3    3    0    0 -0.60609237457E+02  0.46640034761E+02  0.55626073848E+02  0.27971505318E+03  0.26324414215E+03 0.  0.
         25    1    4    4    0    0 -0.48905327789E+02  0.12093814643E+00 -0.88221606312E+00  0.13431318668E+03  0.12509000000E+03 0.  0.
         25    1    3    3    0    0  0.60609237457E+02 -0.46640034761E+02  0.17224308519E+03  0.22619452027E+03  0.12509000000E+03 0.  0.
         25    1    4    4    0    0 -0.11703909668E+02  0.46519096615E+02  0.56508289911E+02  0.14540186649E+03  0.12509000000E+03 0.  0.
<mgrwt>
<rscale>  2 0.45168589E+03</rscale>
<asrwt>0</asrwt>
<pdfrwt beam="1">  1       21 0.53954318E-01 0.45168589E+03</pdfrwt>
<pdfrwt beam="2">  1       21 0.20444148E-01 0.45168589E+03</pdfrwt>
<totfact> 0.66591880E+04</totfact>
</mgrwt>
</event>
<event>
 7    0  0.4737014E-002  0.4722355E+03  0.7546771E-02  0.1021291E+00
         21   -1    0    0  502  501  0.00000000000E+00  0.00000000000E+00  0.96882080706E+02  0.96882080706E+02  0.00000000000E+00 0.  1.
         21   -1    0    0  501  502 -0.00000000000E+00 -0.00000000000E+00 -0.57545823122E+03  0.57545823122E+03  0.00000000000E+00 0.  1.
      99926    2    1    2    0    0  0.00000000000E+00  0.00000000000E+00 -0.47857615051E+03  0.67234031192E+03  0.47223549549E+03 0.  0.
      99925    2    3    3    0    0 -0.58020460875E+02  0.77862997309E+02 -0.17647886923E+03  0.33125484509E+03  0.26297520963E+03 0.  0.
         25    1    3    3    0    0  0.58020460875E+02 -0.77862997309E+02 -0.30209728128E+03  0.34108546684E+03  0.12509000000E+03 0.  0.
         25    1    4    4    0    0 -0.41991175355E+02  0.20652898700E+02 -0.46757111467E+02  0.14150454624E+03  0.12509000000E+03 0.  0.
         25    1    4    4    0    0 -0.16029285520E+02  0.57210098608E+02 -0.12972175776E+03  0.18975029885E+03  0.12509000000E+03 0.  0.
<mgrwt>
<rscale>  2 0.47223550E+03</rscale>
<asrwt>0</asrwt>
<pdfrwt beam="1">  1       21 0.14247365E-01 0.47223550E+03</pdfrwt>
<pdfrwt beam="2">  1       21 0.84626210E-01 0.47223550E+03</pdfrwt>
<totfact> 0.47622456E+04</totfact>
</mgrwt>
</event>
<event>
 7    0  0.4737014E-002  0.4546986E+03  0.7546771E-02  0.1026330E+00
         21   -1    0    0  502  501  0.00000000000E+00  0.00000000000E+00  0.20098901261E+03  0.20098901261E+03  0.00000000000E+00 0.  1.
         21   -1    0    0  501  502 -0.00000000000E+00 -0.00000000000E+00 -0.25716682795E+03  0.25716682795E+03  0.00000000000E+00 0.  1.
      99926    2    1    2    0    0  0.00000000000E+00  0.00000000000E+00 -0.56177815345E+02  0.45815584056E+03  0.45469861150E+03 0.  0.
      99925    2    3    3    0    0 -0.94701378355E+02  0.38368610052E+02 -0.83873668877E+02  0.29428067556E+03  0.26291790045E+03 0.  0.
         25    1    3    3    0    0  0.94701378355E+02 -0.38368610052E+02  0.27695853532E+02  0.16387516500E+03  0.12509000000E+03 0.  0.
         25    1    4    4    0    0 -0.82065590120E+02  0.11507536880E+02 -0.22176055948E+02  0.15167883849E+03  0.12509000000E+03 0.  0.
         25    1    4    4    0    0 -0.12635788235E+02  0.26861073172E+02 -0.61697612929E+02  0.14260183708E+03  0.12509000000E+03 0.  0.
<mgrwt>
<rscale>  2 0.45469861E+03</rscale>
<asrwt>0</asrwt>
<pdfrwt beam="1">  1       21 0.29557208E-01 0.45469861E+03</pdfrwt>
<pdfrwt beam="2">  1       21 0.37818651E-01 0.45469861E+03</pdfrwt>
<totfact> 0.68479583E+04</totfact>
</mgrwt>
</event>
<event>
 7    0  0.4737014E-002  0.4514932E+03  0.7546771E-02  0.1027278E+00
         21   -1    0    0  502  501  0.00000000000E+00  0.00000000000E+00  0.16689666644E+03  0.16689666644E+03  0.00000000000E+00 0.  1.
         21   -1    0    0  501  502 -0.00000000000E+00 -0.00000000000E+00 -0.30534783056E+03  0.30534783056E+03  0.00000000000E+00 0.  1.
      99926    2    1    2    0    0  0.00000000000E+00  0.00000000000E+00 -0.13845116412E+03  0.47224449700E+03  0.45149323373E+03 0.  0.
      99925    2    3    3    0    0 -0.32256166491E+02  0.76368782689E+02 -0.12291345493E+02  0.27619231216E+03  0.26317003035E+03 0.  0.
         25    1    4    4    0    0 -0.53209604061E+02  0.21090012926E+02 -0.62190879904E+01  0.13770343411E+03  0.12509000000E+03 0.  0.
         25    1    3    3    0    0  0.32256166491E+02 -0.76368782689E+02 -0.12615981863E+03  0.19605218485E+03  0.12509000000E+03 0.  0.
         25    1    4    4    0    0  0.20953437570E+02  0.55278769763E+02 -0.60722575024E+01  0.13848887805E+03  0.12509000000E+03 0.  0.
<mgrwt>
<rscale>  2 0.45149323E+03</rscale>
<asrwt>0</asrwt>
<pdfrwt beam="1">  1       21 0.24543627E-01 0.45149323E+03</pdfrwt>
<pdfrwt beam="2">  1       21 0.44904093E-01 0.45149323E+03</pdfrwt>
<totfact> 0.69174174E+04</totfact>
</mgrwt>
</event>
<event>
 7    0  0.4737014E-002  0.4548342E+03  0.7546771E-02  0.1026290E+00
         21   -1    0    0  502  501  0.00000000000E+00  0.00000000000E+00  0.77950388243E+03  0.77950388243E+03  0.00000000000E+00 0. -1.
         21   -1    0    0  501  502 -0.00000000000E+00 -0.00000000000E+00 -0.66348015337E+02  0.66348015337E+02  0.00000000000E+00 0. -1.
      99926    2    1    2    0    0  0.00000000000E+00 -0.88817841970E-15  0.71315586709E+03  0.84585189776E+03  0.45483419197E+03 0.  0.
      99925    2    3    3    0    0 -0.74135029227E+01  0.72694386301E+01  0.65806200399E+03  0.70877291829E+03  0.26306965586E+03 0.  0.
         25    1    4    4    0    0 -0.38147276649E+01 -0.32694621533E+02  0.27725178681E+03  0.30594043834E+03  0.12509000000E+03 0.  0.
         25    1    4    4    0    0 -0.35987752578E+01  0.39964060163E+02  0.38081021718E+03  0.40283247994E+03  0.12509000000E+03 0.  0.
         25    1    3    3    0    0  0.74135029227E+01 -0.72694386301E+01  0.55093863101E+02  0.13707897948E+03  0.12509000000E+03 0.  0.
<mgrwt>
<rscale>  2 0.45483419E+03</rscale>
<asrwt>0</asrwt>
<pdfrwt beam="1">  1       21 0.11463292E+00 0.45483419E+03</pdfrwt>
<pdfrwt beam="2">  1       21 0.97570615E-02 0.45483419E+03</pdfrwt>
<totfact> 0.45684907E+04</totfact>
</mgrwt>
</event>
<event>
 7    0  0.4737014E-002  0.4556081E+03  0.7546771E-02  0.1026063E+00
         21   -1    0    0  502  501  0.00000000000E+00  0.00000000000E+00  0.25726792928E+03  0.25726792928E+03  0.00000000000E+00 0.  1.
         21   -1    0    0  501  502 -0.00000000000E+00 -0.00000000000E+00 -0.20171453798E+03  0.20171453798E+03  0.00000000000E+00 0.  1.
      99926    2    1    2    0    0 -0.14210854715E-13  0.71054273576E-14  0.55553391293E+02  0.45898246726E+03  0.45560808374E+03 0.  0.
      99925    2    3    3    0    0  0.77022173232E+02 -0.56698384827E+02  0.97373526205E+02  0.29606054180E+03  0.26272251292E+03 0.  0.
         25    1    3    3    0    0 -0.77022173232E+02  0.56698384827E+02 -0.41820134912E+02  0.16292192546E+03  0.12509000000E+03 0.  0.
         25    1    4    4    0    0  0.62437666363E+02 -0.53518695126E+02  0.28174269948E+02  0.15232862665E+03  0.12509000000E+03 0.  0.
         25    1    4    4    0    0  0.14584506869E+02 -0.31796897015E+01  0.69199256256E+02  0.14373191515E+03  0.12509000000E+03 0.  0.
<mgrwt>
<rscale>  2 0.45560808E+03</rscale>
<asrwt>0</asrwt>
<pdfrwt beam="1">  1       21 0.37833519E-01 0.45560808E+03</pdfrwt>
<pdfrwt beam="2">  1       21 0.29663903E-01 0.45560808E+03</pdfrwt>
<totfact> 0.67924748E+04</totfact>
</mgrwt>
</event>
<event>
 7    0  0.4737014E-002  0.4502278E+03  0.7546771E-02  0.1027654E+00
         21   -1    0    0  502  501  0.00000000000E+00  0.00000000000E+00  0.68589294419E+03  0.68589294419E+03  0.00000000000E+00 0.  1.
         21   -1    0    0  501  502 -0.00000000000E+00 -0.00000000000E+00 -0.73883655921E+02  0.73883655921E+02  0.00000000000E+00 0.  1.
      99926    2    1    2    0    0  0.00000000000E+00  0.14210854715E-13  0.61200928827E+03  0.75977660011E+03  0.45022784582E+03 0.  0.
      99925    2    3    3    0    0 -0.69620943748E+02  0.71301365013E+02  0.31466636278E+03  0.42215064746E+03  0.26318299495E+03 0.  0.
         25    1    4    4    0    0 -0.47415330725E+02  0.42836071311E+02  0.22061739322E+03  0.26153906952E+03  0.12509000000E+03 0.  0.
         25    1    3    3    0    0  0.69620943748E+02 -0.71301365013E+02  0.29734292549E+03  0.33762595265E+03  0.12509000000E+03 0.  0.
         25    1    4    4    0    0 -0.22205613023E+02  0.28465293702E+02  0.94048969555E+02  0.16061157794E+03  0.12509000000E+03 0.  0.
<mgrwt>
<rscale>  2 0.45022785E+03</rscale>
<asrwt>0</asrwt>
<pdfrwt beam="1">  1       21 0.10086661E+00 0.45022785E+03</pdfrwt>
<pdfrwt beam="2">  1       21 0.10865244E-01 0.45022785E+03</pdfrwt>
<totfact> 0.51680779E+04</totfact>
</mgrwt>
</event>
<event>
 7    0  0.4737014E-002  0.4493304E+03  0.7546771E-02  0.1027922E+00
         21   -1    0    0  502  501  0.00000000000E+00  0.00000000000E+00  0.47951579573E+03  0.47951579573E+03  0.00000000000E+00 0. -1.
         21   -1    0    0  501  502 -0.00000000000E+00 -0.00000000000E+00 -0.10526130842E+03  0.10526130842E+03  0.00000000000E+00 0. -1.
      99926    2    1    2    0    0 -0.14210854715E-13  0.35527136788E-14  0.37425448731E+03  0.58477710415E+03  0.44933043551E+03 0.  0.
      99925    2    3    3    0    0  0.66786104559E+02 -0.25502880874E+02  0.13192862290E+03  0.30285492809E+03  0.26306874621E+03 0.  0.
         25    1    4    4    0    0  0.40852715544E+02 -0.22514262507E+01  0.10923638368E+03  0.17103832584E+03  0.12509000000E+03 0.  0.
         25    1    4    4    0    0  0.25933389015E+02 -0.23251454623E+02  0.22692239218E+02  0.13181660225E+03  0.12509000000E+03 0.  0.
         25    1    3    3    0    0 -0.66786104559E+02  0.25502880874E+02  0.24232586441E+03  0.28192217606E+03  0.12509000000E+03 0.  0.
<mgrwt>
<rscale>  2 0.44933044E+03</rscale>
<asrwt>0</asrwt>
<pdfrwt beam="1">  1       21 0.70517028E-01 0.44933044E+03</pdfrwt>
<pdfrwt beam="2">  1       21 0.15479604E-01 0.44933044E+03</pdfrwt>
<totfact> 0.62373841E+04</totfact>
</mgrwt>
</event>
<event>
 7    0  0.4737014E-002  0.4547489E+03  0.7546771E-02  0.1026315E+00
         21   -1    0    0  502  501  0.00000000000E+00  0.00000000000E+00  0.48567972293E+02  0.48567972293E+02  0.00000000000E+00 0. -1.
         21   -1    0    0  501  502 -0.00000000000E+00 -0.00000000000E+00 -0.10644697012E+04  0.10644697012E+04  0.00000000000E+00 0. -1.
      99926    2    1    2    0    0  0.00000000000E+00  0.00000000000E+00 -0.10159017289E+04  0.11130376735E+04  0.45474887555E+03 0.  0.
      99925    2    3    3    0    0  0.53235343719E+02  0.88161837949E+02 -0.52561249726E+03  0.59666808661E+03  0.26294067165E+03 0.  0.
         25    1    4    4    0    0 -0.94225158636E-01  0.74680251405E+02 -0.27700237880E+03  0.31297759471E+03  0.12509000000E+03 0.  0.
         25    1    4    4    0    0  0.53329568877E+02  0.13481586544E+02 -0.24861011846E+03  0.28369049190E+03  0.12509000000E+03 0.  0.
         25    1    3    3    0    0 -0.53235343719E+02 -0.88161837949E+02 -0.49028923161E+03  0.51636958686E+03  0.12509000000E+03 0.  0.
<mgrwt>
<rscale>  2 0.45474888E+03</rscale>
<asrwt>0</asrwt>
<pdfrwt beam="1">  1       21 0.71423493E-02 0.45474888E+03</pdfrwt>
<pdfrwt beam="2">  1       21 0.15653965E+00 0.45474888E+03</pdfrwt>
<totfact> 0.35109330E+04</totfact>
</mgrwt>
</event>
<event>
 7    0  0.4737014E-002  0.4571890E+03  0.7546771E-02  0.1025600E+00
         21   -1    0    0  502  501  0.00000000000E+00  0.00000000000E+00  0.37017683933E+03  0.37017683933E+03  0.00000000000E+00 0. -1.
         21   -1    0    0  501  502 -0.00000000000E+00 -0.00000000000E+00 -0.14116346221E+03  0.14116346221E+03  0.00000000000E+00 0. -1.
      99926    2    1    2    0    0  0.71054273576E-14  0.00000000000E+00  0.22901337712E+03  0.51134030155E+03  0.45718899493E+03 0.  0.
      99925    2    3    3    0    0 -0.63376635503E+02 -0.55288973435E+02  0.55784071979E+02  0.28171153860E+03  0.26301342130E+03 0.  0.
         25    1    4    4    0    0 -0.83552088332E+01  0.48267696418E+01  0.39495285610E+02  0.13153133811E+03  0.12509000000E+03 0.  0.
         25    1    4    4    0    0 -0.55021426670E+02 -0.60115743077E+02  0.16288786369E+02  0.15018020049E+03  0.12509000000E+03 0.  0.
         25    1    3    3    0    0  0.63376635503E+02  0.55288973435E+02  0.17322930514E+03  0.22962876294E+03  0.12509000000E+03 0.  0.
<mgrwt>
<rscale>  2 0.45718899E+03</rscale>
<asrwt>0</asrwt>
<pdfrwt beam="1">  1       21 0.54437770E-01 0.45718899E+03</pdfrwt>
<pdfrwt beam="2">  1       21 0.20759333E-01 0.45718899E+03</pdfrwt>
<totfact> 0.63372968E+04</totfact>
</mgrwt>
</event>
<event>
 7    0  0.4737014E-002  0.4551022E+03  0.7546771E-02  0.1026211E+00
         21   -1    0    0  502  501  0.00000000000E+00  0.00000000000E+00  0.94390063853E+02  0.94390063853E+02  0.00000000000E+00 0.  1.
         21   -1    0    0  501  502 -0.00000000000E+00 -0.00000000000E+00 -0.54856946065E+03  0.54856946065E+03  0.00000000000E+00 0.  1.
      99926    2    1    2    0    0  0.00000000000E+00  0.71054273576E-14 -0.45417939679E+03  0.64295952450E+03  0.45510221453E+03 0.  0.
      99925    2    3    3    0    0  0.50342227152E+02 -0.46331831390E+02 -0.15987151469E+03  0.31593411875E+03  0.26376976276E+03 0.  0.
         25    1    4    4    0    0 -0.67752362438E+01 -0.41555336925E+02 -0.55262821729E+02  0.14308821551E+03  0.12509000000E+03 0.  0.
         25    1    3    3    0    0 -0.50342227152E+02  0.46331831390E+02 -0.29430788211E+03  0.32702540575E+03  0.12509000000E+03 0.  0.
         25    1    4    4    0    0  0.57117463396E+02 -0.47764944647E+01 -0.10460869296E+03  0.17284590324E+03  0.12509000000E+03 0.  0.
<mgrwt>
<rscale>  2 0.45510221E+03</rscale>
<asrwt>0</asrwt>
<pdfrwt beam="1">  1       21 0.13880891E-01 0.45510221E+03</pdfrwt>
<pdfrwt beam="2">  1       21 0.80671981E-01 0.45510221E+03</pdfrwt>
<totfact> 0.56063689E+04</totfact>
</mgrwt>
</event>
<event>
 7    0  0.4737014E-002  0.4212835E+03  0.7546771E-02  0.1036649E+00
         21   -1    0    0  502  501  0.00000000000E+00  0.00000000000E+00  0.16394861395E+03  0.16394861395E+03  0.00000000000E+00 0. -1.
         21   -1    0    0  501  502 -0.00000000000E+00 -0.00000000000E+00 -0.27063330883E+03  0.27063330883E+03  0.00000000000E+00 0. -1.
      99926    2    1    2    0    0  0.00000000000E+00  0.00000000000E+00 -0.10668469488E+03  0.43458192278E+03  0.42128354286E+03 0.  0.
      99925    2    3    3    0    0 -0.16824575287E+02 -0.74228651378E+02 -0.53481507730E+02  0.27879024700E+03  0.26281318676E+03 0.  0.
         25    1    4    4    0    0  0.15177811591E+02 -0.68777159483E+02 -0.17346876657E+02  0.14459974364E+03  0.12509000000E+03 0.  0.
         25    1    4    4    0    0 -0.32002386878E+02 -0.54514918949E+01 -0.36134631073E+02  0.13419050336E+03  0.12509000000E+03 0.  0.
         25    1    3    3    0    0  0.16824575287E+02  0.74228651378E+02 -0.53203187149E+02  0.15579167578E+03  0.12509000000E+03 0.  0.
<mgrwt>
<rscale>  2 0.42128354E+03</rscale>
<asrwt>0</asrwt>
<pdfrwt beam="1">  1       21 0.24110091E-01 0.42128354E+03</pdfrwt>
<pdfrwt beam="2">  1       21 0.39799016E-01 0.42128354E+03</pdfrwt>
<totfact> 0.92544184E+04</totfact>
</mgrwt>
</event>
<event>
 7    0  0.4737014E-002  0.4559642E+03  0.7546771E-02  0.1025958E+00
         21   -1    0    0  502  501  0.00000000000E+00  0.00000000000E+00  0.23928097738E+04  0.23928097738E+04  0.00000000000E+00 0. -1.
         21   -1    0    0  501  502 -0.00000000000E+00 -0.00000000000E+00 -0.21721678120E+02  0.21721678120E+02  0.00000000000E+00 0. -1.
      99926    2    1    2    0    0  0.00000000000E+00  0.17763568394E-14  0.23710880957E+04  0.24145314519E+04  0.45596422539E+03 0.  0.
      99925    2    3    3    0    0  0.58930068451E+02  0.48628357057E+01  0.20087191942E+04  0.20266459934E+04  0.26238288990E+03 0.  0.
         25    1    4    4    0    0 -0.17847382300E-01 -0.17511406472E+02  0.81382210224E+03  0.82356576658E+03  0.12509000000E+03 0.  0.
         25    1    4    4    0    0  0.58947915833E+02  0.22374242177E+02  0.11948970920E+04  0.12030802268E+04  0.12509000000E+03 0.  0.
         25    1    3    3    0    0 -0.58930068451E+02 -0.48628357057E+01  0.36236890143E+03  0.38788545856E+03  0.12509000000E+03 0.  0.
<mgrwt>
<rscale>  2 0.45596423E+03</rscale>
<asrwt>0</asrwt>
<pdfrwt beam="1">  1       21 0.35188361E+00 0.45596423E+03</pdfrwt>
<pdfrwt beam="2">  1       21 0.31943661E-02 0.45596423E+03</pdfrwt>
<totfact> 0.79862022E+03</totfact>
</mgrwt>
</event>
<event>
 7    0  0.4737014E-002  0.4544928E+03  0.7546771E-02  0.1026391E+00
         21   -1    0    0  502  501  0.00000000000E+00  0.00000000000E+00  0.49327750261E+03  0.49327750261E+03  0.00000000000E+00 0. -1.
         21   -1    0    0  501  502 -0.00000000000E+00 -0.00000000000E+00 -0.10468940302E+03  0.10468940302E+03  0.00000000000E+00 0. -1.
      99926    2    1    2    0    0  0.00000000000E+00  0.00000000000E+00  0.38858809960E+03  0.59796690563E+03  0.45449280421E+03 0.  0.
      99925    2    3    3    0    0 -0.69181845569E+02  0.65778419662E+02  0.16739518110E+03  0.32651388291E+03  0.26358535777E+03 0.  0.
         25    1    4    4    0    0 -0.55078513796E+02  0.11470917256E+01  0.62088511446E+02  0.15012478095E+03  0.12509000000E+03 0.  0.
         25    1    3    3    0    0  0.69181845569E+02 -0.65778419662E+02  0.22119291849E+03  0.27145302272E+03  0.12509000000E+03 0.  0.
         25    1    4    4    0    0 -0.14103331773E+02  0.64631327937E+02  0.10530666966E+03  0.17638910197E+03  0.12509000000E+03 0.  0.
<mgrwt>
<rscale>  2 0.45449280E+03</rscale>
<asrwt>0</asrwt>
<pdfrwt beam="1">  1       21 0.72540808E-01 0.45449280E+03</pdfrwt>
<pdfrwt beam="2">  1       21 0.15395501E-01 0.45449280E+03</pdfrwt>
<totfact> 0.59039843E+04</totfact>
</mgrwt>
</event>
<event>
 7    0  0.4737014E-002  0.4561000E+03  0.7546771E-02  0.1025918E+00
         21   -1    0    0  502  501  0.00000000000E+00  0.00000000000E+00  0.17020537048E+04  0.17020537048E+04  0.00000000000E+00 0. -1.
         21   -1    0    0  501  502 -0.00000000000E+00 -0.00000000000E+00 -0.30555318290E+02  0.30555318290E+02  0.00000000000E+00 0. -1.
      99926    2    1    2    0    0  0.71054273576E-14  0.14210854715E-13  0.16714983865E+04  0.17326090231E+04  0.45609995702E+03 0.  0.
      99925    2    3    3    0    0  0.38393476140E+02  0.10749772828E+03  0.10599565573E+04  0.10980534797E+04  0.26302798418E+03 0.  0.
         25    1    4    4    0    0  0.28496768698E+02  0.90043838175E+02  0.66748345740E+03  0.68563957924E+03  0.12509000000E+03 0.  0.
         25    1    3    3    0    0 -0.38393476140E+02 -0.10749772828E+03  0.61154182926E+03  0.63455554338E+03  0.12509000000E+03 0.  0.
         25    1    4    4    0    0  0.98967074418E+01  0.17453890107E+02  0.39247309988E+03  0.41241390050E+03  0.12509000000E+03 0.  0.
<mgrwt>
<rscale>  2 0.45609996E+03</rscale>
<asrwt>0</asrwt>
<pdfrwt beam="1">  1       21 0.25030195E+00 0.45609996E+03</pdfrwt>
<pdfrwt beam="2">  1       21 0.44934303E-02 0.45609996E+03</pdfrwt>
<totfact> 0.18433140E+04</totfact>
</mgrwt>
</event>
<event>
 7    0  0.4737014E-002  0.4548623E+03  0.7546771E-02  0.1026282E+00
         21   -1    0    0  502  501  0.00000000000E+00  0.00000000000E+00  0.11135171510E+03  0.11135171510E+03  0.00000000000E+00 0.  1.
         21   -1    0    0  501  502 -0.00000000000E+00 -0.00000000000E+00 -0.46451845314E+03  0.46451845314E+03  0.00000000000E+00 0.  1.
      99926    2    1    2    0    0  0.88817841970E-15  0.00000000000E+00 -0.35316673804E+03  0.57587016824E+03  0.45486229323E+03 0.  0.
      99925    2    3    3    0    0  0.42432992743E+01 -0.94985146886E+01 -0.36477121322E+03  0.44981304105E+03  0.26299335836E+03 0.  0.
         25    1    4    4    0    0 -0.66096160129E+01 -0.39661783619E+02 -0.21590965163E+03  0.25274736373E+03  0.12509000000E+03 0.  0.
         25    1    4    4    0    0  0.10852915287E+02  0.30163268930E+02 -0.14886156159E+03  0.19706567733E+03  0.12509000000E+03 0.  0.
         25    1    3    3    0    0 -0.42432992743E+01  0.94985146886E+01  0.11604475173E+02  0.12605712718E+03  0.12509000000E+03 0.  0.
<mgrwt>
<rscale>  2 0.45486229E+03</rscale>
<asrwt>0</asrwt>
<pdfrwt beam="1">  1       21 0.16375252E-01 0.45486229E+03</pdfrwt>
<pdfrwt beam="2">  1       21 0.68311538E-01 0.45486229E+03</pdfrwt>
<totfact> 0.60254237E+04</totfact>
</mgrwt>
</event>
<event>
 7    0  0.4737014E-002  0.4506677E+03  0.7546771E-02  0.1027523E+00
         21   -1    0    0  502  501  0.00000000000E+00  0.00000000000E+00  0.34489521365E+03  0.34489521365E+03  0.00000000000E+00 0.  1.
         21   -1    0    0  501  502 -0.00000000000E+00 -0.00000000000E+00 -0.14721963965E+03  0.14721963965E+03  0.00000000000E+00 0.  1.
      99926    2    1    2    0    0 -0.17763568394E-14  0.00000000000E+00  0.19767557400E+03  0.49211485329E+03  0.45066772269E+03 0.  0.
      99925    2    3    3    0    0 -0.92945421578E+01 -0.91487799759E+02  0.18868371883E+03  0.33660032800E+03  0.26313842182E+03 0.  0.
         25    1    4    4    0    0 -0.38411086012E+02 -0.29722036743E+02  0.71218070355E+02  0.15191554444E+03  0.12509000000E+03 0.  0.
         25    1    4    4    0    0  0.29116543855E+02 -0.61765763016E+02  0.11746564848E+03  0.18468478356E+03  0.12509000000E+03 0.  0.
         25    1    3    3    0    0  0.92945421578E+01  0.91487799759E+02  0.89918551643E+01  0.15551452530E+03  0.12509000000E+03 0.  0.
<mgrwt>
<rscale>  2 0.45066772E+03</rscale>
<asrwt>0</asrwt>
<pdfrwt beam="1">  1       21 0.50719884E-01 0.45066772E+03</pdfrwt>
<pdfrwt beam="2">  1       21 0.21649947E-01 0.45066772E+03</pdfrwt>
<totfact> 0.68141793E+04</totfact>
</mgrwt>
</event>
<event>
 7    0  0.4737014E-002  0.4584610E+03  0.7546771E-02  0.1025229E+00
         21   -1    0    0  502  501  0.00000000000E+00  0.00000000000E+00  0.52457991223E+02  0.52457991223E+02  0.00000000000E+00 0.  1.
         21   -1    0    0  501  502 -0.00000000000E+00 -0.00000000000E+00 -0.10016895066E+04  0.10016895066E+04  0.00000000000E+00 0.  1.
      99926    2    1    2    0    0  0.00000000000E+00 -0.71054273576E-14 -0.94923151535E+03  0.10541474978E+04  0.45846098785E+03 0.  0.
      99925    2    3    3    0    0 -0.61767088779E+02  0.36305996631E+02 -0.38449072000E+03  0.47129848418E+03  0.26297499648E+03 0.  0.
         25    1    4    4    0    0 -0.13821674452E+02 -0.19500710768E+02 -0.18556346890E+03  0.22506138162E+03  0.12509000000E+03 0.  0.
         25    1    3    3    0    0  0.61767088779E+02 -0.36305996631E+02 -0.56474079535E+03  0.58284901362E+03  0.12509000000E+03 0.  0.
         25    1    4    4    0    0 -0.47945414328E+02  0.55806707399E+02 -0.19892725110E+03  0.24623710256E+03  0.12509000000E+03 0.  0.
<mgrwt>
<rscale>  2 0.45846099E+03</rscale>
<asrwt>0</asrwt>
<pdfrwt beam="1">  1       21 0.77144103E-02 0.45846099E+03</pdfrwt>
<pdfrwt beam="2">  1       21 0.14730728E+00 0.45846099E+03</pdfrwt>
<totfact> 0.36139427E+04</totfact>
</mgrwt>
</event>
<event>
 7    0  0.4737014E-002  0.4806834E+03  0.7546771E-02  0.1018948E+00
         21   -1    0    0  502  501  0.00000000000E+00  0.00000000000E+00  0.36725790828E+02  0.36725790828E+02  0.00000000000E+00 0.  1.
         21   -1    0    0  501  502 -0.00000000000E+00 -0.00000000000E+00 -0.15728493160E+04  0.15728493160E+04  0.00000000000E+00 0.  1.
      99926    2    1    2    0    0  0.00000000000E+00  0.00000000000E+00 -0.15361235252E+04  0.16095751068E+04  0.48068340926E+03 0.  0.
      99925    2    3    3    0    0  0.33090512779E+02  0.87408132036E+02 -0.12759491050E+04  0.13061391159E+04  0.26309334453E+03 0.  0.
         25    1    4    4    0    0 -0.20026969247E+02  0.39541498860E+02 -0.69769971876E+03  0.71020913490E+03  0.12509000000E+03 0.  0.
         25    1    3    3    0    0 -0.33090512779E+02 -0.87408132036E+02 -0.26017442017E+03  0.30343599094E+03  0.12509000000E+03 0.  0.
         25    1    4    4    0    0  0.53117482026E+02  0.47866633176E+02 -0.57824938625E+03  0.59592998101E+03  0.12509000000E+03 0.  0.
<mgrwt>
<rscale>  2 0.48068341E+03</rscale>
<asrwt>0</asrwt>
<pdfrwt beam="1">  1       21 0.54008531E-02 0.48068341E+03</pdfrwt>
<pdfrwt beam="2">  1       21 0.23130131E+00 0.48068341E+03</pdfrwt>
<totfact> 0.17463432E+04</totfact>
</mgrwt>
</event>
<event>
 7    0  0.4737014E-002  0.4499740E+03  0.7546771E-02  0.1027730E+00
         21   -1    0    0  502  501  0.00000000000E+00  0.00000000000E+00  0.77504085475E+03  0.77504085475E+03  0.00000000000E+00 0.  1.
         21   -1    0    0  501  502 -0.00000000000E+00 -0.00000000000E+00 -0.65311598684E+02  0.65311598684E+02  0.00000000000E+00 0.  1.
      99926    2    1    2    0    0  0.00000000000E+00  0.71054273576E-14  0.70972925607E+03  0.84035245343E+03  0.44997403156E+03 0.  0.
      99925    2    3    3    0    0  0.55770194658E+02 -0.33900171239E+02  0.61025158998E+03  0.66771743273E+03  0.26302097004E+03 0.  0.
         25    1    4    4    0    0  0.49327174003E+02 -0.19844263336E+02  0.40130754320E+03  0.42370062215E+03  0.12509000000E+03 0.  0.
         25    1    3    3    0    0 -0.55770194658E+02  0.33900171239E+02  0.99477666089E+02  0.17263502070E+03  0.12509000000E+03 0.  0.
         25    1    4    4    0    0  0.64430206545E+01 -0.14055907903E+02  0.20894404678E+03  0.24401681058E+03  0.12509000000E+03 0.  0.
<mgrwt>
<rscale>  2 0.44997403E+03</rscale>
<asrwt>0</asrwt>
<pdfrwt beam="1">  1       21 0.11397659E+00 0.44997403E+03</pdfrwt>
<pdfrwt beam="2">  1       21 0.96046473E-02 0.44997403E+03</pdfrwt>
<totfact> 0.47728366E+04</totfact>
</mgrwt>
</event>
<event>
 7    0  0.4737014E-002  0.4583348E+03  0.7546771E-02  0.1025265E+00
         21   -1    0    0  502  501  0.00000000000E+00  0.00000000000E+00  0.31441227686E+03  0.31441227686E+03  0.00000000000E+00 0. -1.
         21   -1    0    0  501  502 -0.00000000000E+00 -0.00000000000E+00 -0.16703452135E+03  0.16703452135E+03  0.00000000000E+00 0. -1.
      99926    2    1    2    0    0  0.00000000000E+00  0.00000000000E+00  0.14737775551E+03  0.48144679821E+03  0.45833483032E+03 0.  0.
      99925    2    3    3    0    0 -0.74792567165E+02 -0.87278102338E+02  0.11074514975E+03  0.30766287733E+03  0.26302198129E+03 0.  0.
         25    1    4    4    0    0 -0.71840894625E+02 -0.49830231196E+02  0.84486544036E+02  0.17444096510E+03  0.12509000000E+03 0.  0.
         25    1    4    4    0    0 -0.29516725402E+01 -0.37447871143E+02  0.26258605718E+02  0.13322191223E+03  0.12509000000E+03 0.  0.
         25    1    3    3    0    0  0.74792567165E+02  0.87278102338E+02  0.36632605756E+02  0.17378392088E+03  0.12509000000E+03 0.  0.
<mgrwt>
<rscale>  2 0.45833483E+03</rscale>
<asrwt>0</asrwt>
<pdfrwt beam="1">  1       21 0.46237099E-01 0.45833483E+03</pdfrwt>
<pdfrwt beam="2">  1       21 0.24563900E-01 0.45833483E+03</pdfrwt>
<totfact> 0.64861010E+04</totfact>
</mgrwt>
</event>
<event>
 7    0  0.4737014E-002  0.4537479E+03  0.7546771E-02  0.1026610E+00
         21   -1    0    0  502  501  0.00000000000E+00  0.00000000000E+00  0.42233244161E+03  0.42233244161E+03  0.00000000000E+00 0.  1.
         21   -1    0    0  501  502 -0.00000000000E+00 -0.00000000000E+00 -0.12187507595E+03  0.12187507595E+03  0.00000000000E+00 0.  1.
      99926    2    1    2    0    0  0.00000000000E+00  0.00000000000E+00  0.30045736566E+03  0.54420751756E+03  0.45374794059E+03 0.  0.
      99925    2    3    3    0    0  0.46580422794E+02  0.89790445416E+02  0.13174690566E+03  0.31109212277E+03  0.26303802353E+03 0.  0.
         25    1    3    3    0    0 -0.46580422794E+02 -0.89790445416E+02  0.16871046000E+03  0.23311539479E+03  0.12509000000E+03 0.  0.
         25    1    4    4    0    0  0.33319665790E+02  0.37328392758E+02  0.22875887978E+02  0.13665439395E+03  0.12509000000E+03 0.  0.
         25    1    4    4    0    0  0.13260757004E+02  0.52462052658E+02  0.10887101768E+03  0.17443772882E+03  0.12509000000E+03 0.  0.
<mgrwt>
<rscale>  2 0.45374794E+03</rscale>
<asrwt>0</asrwt>
<pdfrwt beam="1">  1       21 0.62107711E-01 0.45374794E+03</pdfrwt>
<pdfrwt beam="2">  1       21 0.17922805E-01 0.45374794E+03</pdfrwt>
<totfact> 0.62871510E+04</totfact>
</mgrwt>
</event>
<event>
 7    0  0.4737014E-002  0.4486959E+03  0.7546771E-02  0.1028112E+00
         21   -1    0    0  502  501  0.00000000000E+00  0.00000000000E+00  0.21097245518E+03  0.21097245518E+03  0.00000000000E+00 0. -1.
         21   -1    0    0  501  502 -0.00000000000E+00 -0.00000000000E+00 -0.23857146914E+03  0.23857146914E+03  0.00000000000E+00 0. -1.
      99926    2    1    2    0    0  0.71054273576E-14  0.00000000000E+00 -0.27599013961E+02  0.44954392432E+03  0.44869592635E+03 0.  0.
      99925    2    3    3    0    0 -0.47892071014E+02  0.94526688579E+02 -0.33417923253E+02  0.28550029255E+03  0.26299185184E+03 0.  0.
         25    1    4    4    0    0 -0.62305532240E+02  0.64530735998E+02 -0.13241450562E+02  0.15449608199E+03  0.12509000000E+03 0.  0.
         25    1    4    4    0    0  0.14413461226E+02  0.29995952581E+02 -0.20176472690E+02  0.13100421057E+03  0.12509000000E+03 0.  0.
         25    1    3    3    0    0  0.47892071014E+02 -0.94526688579E+02  0.58189092914E+01  0.16404363177E+03  0.12509000000E+03 0.  0.
<mgrwt>
<rscale>  2 0.44869593E+03</rscale>
<asrwt>0</asrwt>
<pdfrwt beam="1">  1       21 0.31025361E-01 0.44869593E+03</pdfrwt>
<pdfrwt beam="2">  1       21 0.35084040E-01 0.44869593E+03</pdfrwt>
<totfact> 0.72527372E+04</totfact>
</mgrwt>
</event>
<event>
 7    0  0.4737014E-002  0.4543710E+03  0.7546771E-02  0.1026427E+00
         21   -1    0    0  502  501  0.00000000000E+00  0.00000000000E+00  0.10620360830E+03  0.10620360830E+03  0.00000000000E+00 0. -1.
         21   -1    0    0  501  502 -0.00000000000E+00 -0.00000000000E+00 -0.48598397635E+03  0.48598397635E+03  0.00000000000E+00 0. -1.
      99926    2    1    2    0    0  0.00000000000E+00  0.00000000000E+00 -0.37978036805E+03  0.59218758465E+03  0.45437100200E+03 0.  0.
      99925    2    3    3    0    0 -0.84366037243E+02 -0.30779210237E+02 -0.15087223684E+03  0.31630458652E+03  0.26309916682E+03 0.  0.
         25    1    4    4    0    0 -0.71045392836E+02 -0.11866486693E+02 -0.11377506502E+03  0.18379481731E+03  0.12509000000E+03 0.  0.
         25    1    3    3    0    0  0.84366037243E+02  0.30779210237E+02 -0.22890813121E+03  0.27588299813E+03  0.12509000000E+03 0.  0.
         25    1    4    4    0    0 -0.13320644407E+02 -0.18912723544E+02 -0.37097171816E+02  0.13250976921E+03  0.12509000000E+03 0.  0.
<mgrwt>
<rscale>  2 0.45437100E+03</rscale>
<asrwt>0</asrwt>
<pdfrwt beam="1">  1       21 0.15618178E-01 0.45437100E+03</pdfrwt>
<pdfrwt beam="2">  1       21 0.71468232E-01 0.45437100E+03</pdfrwt>
<totfact> 0.59456742E+04</totfact>
</mgrwt>
</event>
<event>
 7    0  0.4737014E-002  0.4590304E+03  0.7546771E-02  0.1025063E+00
         21   -1    0    0  502  501  0.00000000000E+00  0.00000000000E+00  0.12867104367E+03  0.12867104367E+03  0.00000000000E+00 0.  1.
         21   -1    0    0  501  502 -0.00000000000E+00 -0.00000000000E+00 -0.40939458364E+03  0.40939458364E+03  0.00000000000E+00 0.  1.
      99926    2    1    2    0    0  0.00000000000E+00 -0.17763568394E-14 -0.28072353997E+03  0.53806562730E+03  0.45903040574E+03 0.  0.
      99925    2    3    3    0    0  0.63343037852E+02  0.10236629152E+02 -0.29035033427E+03  0.39714965131E+03  0.26326298621E+03 0.  0.
         25    1    4    4    0    0  0.11439146150E+02 -0.21473000008E+02 -0.17480548570E+03  0.21632477834E+03  0.12509000000E+03 0.  0.
         25    1    4    4    0    0  0.51903891702E+02  0.31709629160E+02 -0.11554484857E+03  0.18082487297E+03  0.12509000000E+03 0.  0.
         25    1    3    3    0    0 -0.63343037852E+02 -0.10236629152E+02  0.96267942980E+01  0.14091597599E+03  0.12509000000E+03 0.  0.
<mgrwt>
<rscale>  2 0.45903041E+03</rscale>
<asrwt>0</asrwt>
<pdfrwt beam="1">  1       21 0.18922212E-01 0.45903041E+03</pdfrwt>
<pdfrwt beam="2">  1       21 0.60205085E-01 0.45903041E+03</pdfrwt>
<totfact> 0.60701600E+04</totfact>
</mgrwt>
</event>
<event>
 7    0  0.4737014E-002  0.4528341E+03  0.7546771E-02  0.1026880E+00
         21   -1    0    0  502  501  0.00000000000E+00  0.00000000000E+00  0.28736950255E+03  0.28736950255E+03  0.00000000000E+00 0. -1.
         21   -1    0    0  501  502 -0.00000000000E+00 -0.00000000000E+00 -0.17839292928E+03  0.17839292928E+03  0.00000000000E+00 0. -1.
      99926    2    1    2    0    0 -0.71054273576E-14  0.00000000000E+00  0.10897657327E+03  0.46576243183E+03  0.45283413009E+03 0.  0.
      99925    2    3    3    0    0  0.41371210869E+02  0.74869097749E+02  0.14275610481E+03  0.31050289512E+03  0.26213695568E+03 0.  0.
         25    1    4    4    0    0 -0.18043096271E+01  0.48206795830E+02  0.37179809877E+02  0.13912942557E+03  0.12509000000E+03 0.  0.
         25    1    3    3    0    0 -0.41371210869E+02 -0.74869097749E+02 -0.33779531537E+02  0.15525953670E+03  0.12509000000E+03 0.  0.
         25    1    4    4    0    0  0.43175520496E+02  0.26662301919E+02  0.10557629493E+03  0.17137346955E+03  0.12509000000E+03 0.  0.
<mgrwt>
<rscale>  2 0.45283413E+03</rscale>
<asrwt>0</asrwt>
<pdfrwt beam="1">  1       21 0.42260221E-01 0.45283413E+03</pdfrwt>
<pdfrwt beam="2">  1       21 0.26234254E-01 0.45283413E+03</pdfrwt>
<totfact> 0.68928976E+04</totfact>
</mgrwt>
</event>
<event>
 7    0  0.4737014E-002  0.4551032E+03  0.7546771E-02  0.1026211E+00
         21   -1    0    0  502  501  0.00000000000E+00  0.00000000000E+00  0.12225629042E+03  0.12225629042E+03  0.00000000000E+00 0. -1.
         21   -1    0    0  501  502 -0.00000000000E+00 -0.00000000000E+00 -0.42353425133E+03  0.42353425133E+03  0.00000000000E+00 0. -1.
      99926    2    1    2    0    0  0.00000000000E+00  0.00000000000E+00 -0.30127796091E+03  0.54579054174E+03  0.45510318141E+03 0.  0.
      99925    2    3    3    0    0  0.39672685898E+02  0.10244343772E+03 -0.15672414704E+03  0.32530949235E+03  0.26304985765E+03 0.  0.
         25    1    4    4    0    0 -0.12737323679E+02  0.74092650136E+02 -0.90643696335E+02  0.17180147847E+03  0.12509000000E+03 0.  0.
         25    1    3    3    0    0 -0.39672685898E+02 -0.10244343772E+03 -0.14455381386E+03  0.22048104939E+03  0.12509000000E+03 0.  0.
         25    1    4    4    0    0  0.52410009576E+02  0.28350787586E+02 -0.66080450709E+02  0.15350801388E+03  0.12509000000E+03 0.  0.
<mgrwt>
<rscale>  2 0.45510318E+03</rscale>
<asrwt>0</asrwt>
<pdfrwt beam="1">  1       21 0.17978866E-01 0.45510318E+03</pdfrwt>
<pdfrwt beam="2">  1       21 0.62284449E-01 0.45510318E+03</pdfrwt>
<totfact> 0.62094824E+04</totfact>
</mgrwt>
</event>
<event>
 7    0  0.4737014E-002  0.4532463E+03  0.7546771E-02  0.1026758E+00
         21   -1    0    0  502  501  0.00000000000E+00  0.00000000000E+00  0.59270502172E+03  0.59270502172E+03  0.00000000000E+00 0.  1.
         21   -1    0    0  501  502 -0.00000000000E+00 -0.00000000000E+00 -0.86650262887E+02  0.86650262887E+02  0.00000000000E+00 0.  1.
      99926    2    1    2    0    0 -0.17763568394E-14  0.00000000000E+00  0.50605475883E+03  0.67935528461E+03  0.45324627278E+03 0.  0.
      99925    2    3    3    0    0  0.14966985108E+02  0.10655871594E+03  0.36297141626E+03  0.46095399888E+03  0.26296686003E+03 0.  0.
         25    1    3    3    0    0 -0.14966985108E+02 -0.10655871594E+03  0.14308334257E+03  0.21840128572E+03  0.12509000000E+03 0.  0.
         25    1    4    4    0    0  0.31501004169E+02  0.63801016923E+02  0.23892963475E+03  0.27892250086E+03  0.12509000000E+03 0.  0.
         25    1    4    4    0    0 -0.16534019062E+02  0.42757699014E+02  0.12404178151E+03  0.18203149802E+03  0.12509000000E+03 0.  0.
<mgrwt>
<rscale>  2 0.45324627E+03</rscale>
<asrwt>0</asrwt>
<pdfrwt beam="1">  1       21 0.87162501E-01 0.45324627E+03</pdfrwt>
<pdfrwt beam="2">  1       21 0.12742686E-01 0.45324627E+03</pdfrwt>
<totfact> 0.54791404E+04</totfact>
</mgrwt>
</event>
<event>
 7    0  0.4737014E-002  0.4525161E+03  0.7546771E-02  0.1026974E+00
         21   -1    0    0  502  501  0.00000000000E+00  0.00000000000E+00  0.80262512702E+02  0.80262512702E+02  0.00000000000E+00 0.  1.
         21   -1    0    0  501  502 -0.00000000000E+00 -0.00000000000E+00 -0.63781591808E+03  0.63781591808E+03  0.00000000000E+00 0.  1.
      99926    2    1    2    0    0  0.00000000000E+00  0.71054273576E-14 -0.55755340538E+03  0.71807843078E+03  0.45251611342E+03 0.  0.
      99925    2    3    3    0    0 -0.10595590958E+02 -0.54087756628E+02 -0.50422984858E+03  0.57135194451E+03  0.26297823546E+03 0.  0.
         25    1    3    3    0    0  0.10595590958E+02  0.54087756628E+02 -0.53323556796E+02  0.14672648627E+03  0.12509000000E+03 0.  0.
         25    1    4    4    0    0 -0.34776113506E+01  0.11147129840E+02 -0.20459523979E+03  0.24008971766E+03  0.12509000000E+03 0.  0.
         25    1    4    4    0    0 -0.71179796075E+01 -0.65234886468E+02 -0.29963460880E+03  0.33126222685E+03  0.12509000000E+03 0.  0.
<mgrwt>
<rscale>  2 0.45251611E+03</rscale>
<asrwt>0</asrwt>
<pdfrwt beam="1">  1       21 0.11803311E-01 0.45251611E+03</pdfrwt>
<pdfrwt beam="2">  1       21 0.93796457E-01 0.45251611E+03</pdfrwt>
<totfact> 0.52959589E+04</totfact>
</mgrwt>
</event>
<event>
 7    0  0.4737014E-002  0.4559638E+03  0.7546771E-02  0.1025958E+00
         21   -1    0    0  502  501  0.00000000000E+00  0.00000000000E+00  0.13881097065E+03  0.13881097065E+03  0.00000000000E+00 0. -1.
         21   -1    0    0  501  502 -0.00000000000E+00 -0.00000000000E+00 -0.37443549264E+03  0.37443549264E+03  0.00000000000E+00 0. -1.
      99926    2    1    2    0    0  0.00000000000E+00  0.00000000000E+00 -0.23562452199E+03  0.51324646329E+03  0.45596383269E+03 0.  0.
      99925    2    3    3    0    0  0.93149687890E+02  0.64882217923E+02 -0.13577283352E+03  0.31702099515E+03  0.26302372990E+03 0.  0.
         25    1    4    4    0    0  0.78491678827E+02  0.87395982770E+01 -0.80905003417E+02  0.16861332065E+03  0.12509000000E+03 0.  0.
         25    1    3    3    0    0 -0.93149687890E+02 -0.64882217923E+02 -0.99851688471E+02  0.19622546814E+03  0.12509000000E+03 0.  0.
         25    1    4    4    0    0  0.14658009063E+02  0.56142619646E+02 -0.54867830100E+02  0.14840767450E+03  0.12509000000E+03 0.  0.
<mgrwt>
<rscale>  2 0.45596383E+03</rscale>
<asrwt>0</asrwt>
<pdfrwt beam="1">  1       21 0.20413378E-01 0.45596383E+03</pdfrwt>
<pdfrwt beam="2">  1       21 0.55064043E-01 0.45596383E+03</pdfrwt>
<totfact> 0.63859879E+04</totfact>
</mgrwt>
</event>
<event>
 7    0  0.4737014E-002  0.4580860E+03  0.7546771E-02  0.1025338E+00
         21   -1    0    0  502  501  0.00000000000E+00  0.00000000000E+00  0.38067820386E+02  0.38067820386E+02  0.00000000000E+00 0. -1.
         21   -1    0    0  501  502 -0.00000000000E+00 -0.00000000000E+00 -0.13780851378E+04  0.13780851378E+04  0.00000000000E+00 0. -1.
      99926    2    1    2    0    0  0.71054273576E-14  0.00000000000E+00 -0.13400173174E+04  0.14161529581E+04  0.45808600721E+03 0.  0.
      99925    2    3    3    0    0 -0.56842138931E+02  0.71650304441E+02 -0.10615792401E+04  0.10974994381E+04  0.26303942413E+03 0.  0.
         25    1    4    4    0    0  0.64651257115E+01  0.54159838578E+02 -0.48172964146E+03  0.50068557151E+03  0.12509000000E+03 0.  0.
         25    1    4    4    0    0 -0.63307264643E+02  0.17490465863E+02 -0.57984959868E+03  0.59681386658E+03  0.12509000000E+03 0.  0.
         25    1    3    3    0    0  0.56842138931E+02 -0.71650304441E+02 -0.27843807723E+03  0.31865352005E+03  0.12509000000E+03 0.  0.
<mgrwt>
<rscale>  2 0.45808601E+03</rscale>
<asrwt>0</asrwt>
<pdfrwt beam="1">  1       21 0.55982085E-02 0.45808601E+03</pdfrwt>
<pdfrwt beam="2">  1       21 0.20265959E+00 0.45808601E+03</pdfrwt>
<totfact> 0.25292741E+04</totfact>
</mgrwt>
</event>
<event>
 7    0  0.4737014E-002  0.4558584E+03  0.7546771E-02  0.1025989E+00
         21   -1    0    0  502  501  0.00000000000E+00  0.00000000000E+00  0.39946597052E+02  0.39946597052E+02  0.00000000000E+00 0.  1.
         21   -1    0    0  501  502 -0.00000000000E+00 -0.00000000000E+00 -0.13005294163E+04  0.13005294163E+04  0.00000000000E+00 0.  1.
      99926    2    1    2    0    0 -0.14210854715E-13  0.17763568394E-14 -0.12605828192E+04  0.13404760133E+04  0.45585841901E+03 0.  0.
      99925    2    3    3    0    0 -0.11340951457E+03  0.75138781953E+01 -0.76852863895E+03  0.82020396835E+03  0.26302111027E+03 0.  0.
         25    1    4    4    0    0 -0.24848938720E+02 -0.24712843967E+02 -0.35058607879E+03  0.37388006252E+03  0.12509000000E+03 0.  0.
         25    1    4    4    0    0 -0.88560575854E+02  0.32226722163E+02 -0.41794256016E+03  0.44632390583E+03  0.12509000000E+03 0.  0.
         25    1    3    3    0    0  0.11340951457E+03 -0.75138781953E+01 -0.49205418029E+03  0.52027204500E+03  0.12509000000E+03 0.  0.
<mgrwt>
<rscale>  2 0.45585842E+03</rscale>
<asrwt>0</asrwt>
<pdfrwt beam="1">  1       21 0.58745004E-02 0.45585842E+03</pdfrwt>
<pdfrwt beam="2">  1       21 0.19125430E+00 0.45585842E+03</pdfrwt>
<totfact> 0.27775686E+04</totfact>
</mgrwt>
</event>
<event>
 7    0  0.4737014E-002  0.4528771E+03  0.7546771E-02  0.1026868E+00
         21   -1    0    0  502  501  0.00000000000E+00  0.00000000000E+00  0.11227340239E+04  0.11227340239E+04  0.00000000000E+00 0.  1.
         21   -1    0    0  501  502 -0.00000000000E+00 -0.00000000000E+00 -0.45669240036E+02  0.45669240036E+02  0.00000000000E+00 0.  1.
      99926    2    1    2    0    0  0.00000000000E+00  0.71054273576E-14  0.10770647839E+04  0.11684032639E+04  0.45287706779E+03 0.  0.
      99925    2    3    3    0    0 -0.57177942021E+02  0.20125932517E+02  0.91948648740E+03  0.95827759242E+03  0.26299462619E+03 0.  0.
         25    1    4    4    0    0 -0.27403292288E+02 -0.27458426407E+02  0.39388422226E+03  0.41508697192E+03  0.12509000000E+03 0.  0.
         25    1    4    4    0    0 -0.29774649733E+02  0.47584358924E+02  0.52560226514E+03  0.54319062050E+03  0.12509000000E+03 0.  0.
         25    1    3    3    0    0  0.57177942021E+02 -0.20125932517E+02  0.15757829645E+03  0.21012567151E+03  0.12509000000E+03 0.  0.
<mgrwt>
<rscale>  2 0.45287707E+03</rscale>
<asrwt>0</asrwt>
<pdfrwt beam="1">  1       21 0.16510793E+00 0.45287707E+03</pdfrwt>
<pdfrwt beam="2">  1       21 0.67160654E-02 0.45287707E+03</pdfrwt>
<totfact> 0.33728337E+04</totfact>
</mgrwt>
</event>
<event>
 7    0  0.4737014E-002  0.4292440E+03  0.7546771E-02  0.1034099E+00
         21   -1    0    0  502  501  0.00000000000E+00  0.00000000000E+00  0.21483624428E+04  0.21483624428E+04  0.00000000000E+00 0.  1.
         21   -1    0    0  501  502 -0.00000000000E+00 -0.00000000000E+00 -0.21440799458E+02  0.21440799458E+02  0.00000000000E+00 0.  1.
      99926    2    1    2    0    0  0.00000000000E+00 -0.35527136788E-14  0.21269216434E+04  0.21698032423E+04  0.42924402523E+03 0.  0.
      99925    2    3    3    0    0  0.78845470299E+02  0.21396713963E+02  0.12242105082E+04  0.12548118056E+04  0.26303397408E+03 0.  0.
         25    1    4    4    0    0  0.22040743833E+02  0.45727353256E+02  0.65304618875E+03  0.66685352063E+03  0.12509000000E+03 0.  0.
         25    1    4    4    0    0  0.56804726466E+02 -0.24330639293E+02  0.57116431944E+03  0.58795828497E+03  0.12509000000E+03 0.  0.
         25    1    3    3    0    0 -0.78845470299E+02 -0.21396713963E+02  0.90271113517E+03  0.91499143669E+03  0.12509000000E+03 0.  0.
<mgrwt>
<rscale>  2 0.42924403E+03</rscale>
<asrwt>0</asrwt>
<pdfrwt beam="1">  1       21 0.31593551E+00 0.42924403E+03</pdfrwt>
<pdfrwt beam="2">  1       21 0.31530602E-02 0.42924403E+03</pdfrwt>
<totfact> 0.13666635E+04</totfact>
</mgrwt>
</event>
<event>
 7    0  0.4737014E-002  0.4543126E+03  0.7546771E-02  0.1026444E+00
         21   -1    0    0  502  501  0.00000000000E+00  0.00000000000E+00  0.36997069841E+02  0.36997069841E+02  0.00000000000E+00 0. -1.
         21   -1    0    0  501  502 -0.00000000000E+00 -0.00000000000E+00 -0.13947045848E+04  0.13947045848E+04  0.00000000000E+00 0. -1.
      99926    2    1    2    0    0  0.17763568394E-14  0.00000000000E+00 -0.13577075150E+04  0.14317016547E+04  0.45431259253E+03 0.  0.
      99925    2    3    3    0    0  0.81036765141E+01 -0.59466346731E+02 -0.55604469340E+03  0.61812147818E+03  0.26322337426E+03 0.  0.
         25    1    4    4    0    0  0.25097791677E+02 -0.54315930905E+01 -0.32724765761E+03  0.35128042766E+03  0.12509000000E+03 0.  0.
         25    1    3    3    0    0 -0.81036765141E+01  0.59466346731E+02 -0.80166282158E+03  0.81358017648E+03  0.12509000000E+03 0.  0.
         25    1    4    4    0    0 -0.16994115162E+02 -0.54034753641E+02 -0.22879703580E+03  0.26684105052E+03  0.12509000000E+03 0.  0.
<mgrwt>
<rscale>  2 0.45431259E+03</rscale>
<asrwt>0</asrwt>
<pdfrwt beam="1">  1       21 0.54407464E-02 0.45431259E+03</pdfrwt>
<pdfrwt beam="2">  1       21 0.20510358E+00 0.45431259E+03</pdfrwt>
<totfact> 0.25636002E+04</totfact>
</mgrwt>
</event>
<event>
 7    0  0.4737014E-002  0.4532681E+03  0.7546771E-02  0.1026752E+00
         21   -1    0    0  502  501  0.00000000000E+00  0.00000000000E+00  0.96765667948E+03  0.96765667948E+03  0.00000000000E+00 0.  1.
         21   -1    0    0  501  502 -0.00000000000E+00 -0.00000000000E+00 -0.53079767190E+02  0.53079767190E+02  0.00000000000E+00 0.  1.
      99926    2    1    2    0    0  0.14210854715E-13  0.00000000000E+00  0.91457691229E+03  0.10207364467E+04  0.45326809403E+03 0.  0.
      99925    2    3    3    0    0  0.96899315057E+02 -0.18723432369E+02  0.45955237238E+03  0.53862143529E+03  0.26302970063E+03 0.  0.
         25    1    4    4    0    0  0.58684339819E+01 -0.12300100175E+02  0.19443376345E+03  0.23159820260E+03  0.12509000000E+03 0.  0.
         25    1    3    3    0    0 -0.96899315057E+02  0.18723432369E+02  0.45502453991E+03  0.48211501138E+03  0.12509000000E+03 0.  0.
         25    1    4    4    0    0  0.91030881075E+02 -0.64233321943E+01  0.26511860893E+03  0.30702323269E+03  0.12509000000E+03 0.  0.
<mgrwt>
<rscale>  2 0.45326809E+03</rscale>
<asrwt>0</asrwt>
<pdfrwt beam="1">  1       21 0.14230244E+00 0.45326809E+03</pdfrwt>
<pdfrwt beam="2">  1       21 0.78058487E-02 0.45326809E+03</pdfrwt>
<totfact> 0.38893068E+04</totfact>
</mgrwt>
</event>
<event>
 7    0  0.4737014E-002  0.4537005E+03  0.7546771E-02  0.1026624E+00
         21   -1    0    0  502  501  0.00000000000E+00  0.00000000000E+00  0.77044142055E+02  0.77044142055E+02  0.00000000000E+00 0. -1.
         21   -1    0    0  501  502 -0.00000000000E+00 -0.00000000000E+00 -0.66794224605E+03  0.66794224605E+03  0.00000000000E+00 0. -1.
      99926    2    1    2    0    0  0.00000000000E+00  0.00000000000E+00 -0.59089810399E+03  0.74498638810E+03  0.45370050601E+03 0.  0.
      99925    2    3    3    0    0 -0.10631997454E+03  0.34951319508E+02 -0.37767965359E+03  0.47362841897E+03  0.26297609549E+03 0.  0.
         25    1    4    4    0    0 -0.70868280474E+02  0.48612278104E+02 -0.23837380000E+03  0.28258634678E+03  0.12509000000E+03 0.  0.
         25    1    3    3    0    0  0.10631997454E+03 -0.34951319508E+02 -0.21321845040E+03  0.27135796913E+03  0.12509000000E+03 0.  0.
         25    1    4    4    0    0 -0.35451694063E+02 -0.13660958597E+02 -0.13930585359E+03  0.19104207219E+03  0.12509000000E+03 0.  0.
<mgrwt>
<rscale>  2 0.45370051E+03</rscale>
<asrwt>0</asrwt>
<pdfrwt beam="1">  1       21 0.11330020E-01 0.45370051E+03</pdfrwt>
<pdfrwt beam="2">  1       21 0.98226805E-01 0.45370051E+03</pdfrwt>
<totfact> 0.51047033E+04</totfact>
</mgrwt>
</event>
<event>
 7    0  0.4737014E-002  0.4387536E+03  0.7546771E-02  0.1031130E+00
         21   -1    0    0  502  501  0.00000000000E+00  0.00000000000E+00  0.39191809272E+03  0.39191809272E+03  0.00000000000E+00 0. -1.
         21   -1    0    0  501  502 -0.00000000000E+00 -0.00000000000E+00 -0.12279653900E+03  0.12279653900E+03  0.00000000000E+00 0. -1.
      99926    2    1    2    0    0 -0.44408920985E-15  0.00000000000E+00  0.26912155372E+03  0.51471463171E+03  0.43875362269E+03 0.  0.
      99925    2    3    3    0    0 -0.18798602322E+01  0.36235219539E+02  0.66162960149E+02  0.27355861621E+03  0.26294534451E+03 0.  0.
         25    1    4    4    0    0  0.33050762822E+02 -0.18093698353E+01  0.22358258875E+02  0.13131270533E+03  0.12509000000E+03 0.  0.
         25    1    4    4    0    0 -0.34930623054E+02  0.38044589374E+02  0.43804701274E+02  0.14224591088E+03  0.12509000000E+03 0.  0.
         25    1    3    3    0    0  0.18798602322E+01 -0.36235219539E+02  0.20295859357E+03  0.24115601550E+03  0.12509000000E+03 0.  0.
<mgrwt>
<rscale>  2 0.43875362E+03</rscale>
<asrwt>0</asrwt>
<pdfrwt beam="1">  1       21 0.57635013E-01 0.43875362E+03</pdfrwt>
<pdfrwt beam="2">  1       21 0.18058315E-01 0.43875362E+03</pdfrwt>
<totfact> 0.73237287E+04</totfact>
</mgrwt>
</event>
<event>
 7    0  0.4737014E-002  0.4527378E+03  0.7546771E-02  0.1026909E+00
         21   -1    0    0  502  501  0.00000000000E+00  0.00000000000E+00  0.66659259721E+03  0.66659259721E+03  0.00000000000E+00 0. -1.
         21   -1    0    0  501  502 -0.00000000000E+00 -0.00000000000E+00 -0.76872873164E+02  0.76872873164E+02  0.00000000000E+00 0. -1.
      99926    2    1    2    0    0  0.00000000000E+00  0.71054273576E-14  0.58971972404E+03  0.74346547037E+03  0.45273784104E+03 0.  0.
      99925    2    3    3    0    0 -0.97011706632E+02  0.48904962262E+02  0.40982973645E+03  0.49890283566E+03  0.26294611615E+03 0.  0.
         25    1    3    3    0    0  0.97011706632E+02 -0.48904962262E+02  0.17988998759E+03  0.24456263470E+03  0.12509000000E+03 0.  0.
         25    1    4    4    0    0 -0.54538621704E+02  0.60829948882E+02  0.24955116915E+03  0.29085741878E+03  0.12509000000E+03 0.  0.
         25    1    4    4    0    0 -0.42473084928E+02 -0.11924986619E+02  0.16027856730E+03  0.20804541688E+03  0.12509000000E+03 0.  0.
<mgrwt>
<rscale>  2 0.45273784E+03</rscale>
<asrwt>0</asrwt>
<pdfrwt beam="1">  1       21 0.98028320E-01 0.45273784E+03</pdfrwt>
<pdfrwt beam="2">  1       21 0.11304835E-01 0.45273784E+03</pdfrwt>
<totfact> 0.51515753E+04</totfact>
</mgrwt>
</event>
<event>
 7    0  0.4737014E-002  0.4505054E+03  0.7546771E-02  0.1027571E+00
         21   -1    0    0  502  501  0.00000000000E+00  0.00000000000E+00  0.23933938904E+02  0.23933938904E+02  0.00000000000E+00 0. -1.
         21   -1    0    0  501  502 -0.00000000000E+00 -0.00000000000E+00 -0.21199506218E+04  0.21199506218E+04  0.00000000000E+00 0. -1.
      99926    2    1    2    0    0  0.00000000000E+00  0.00000000000E+00 -0.20960166829E+04  0.21438845607E+04  0.45050535475E+03 0.  0.
      99925    2    3    3    0    0 -0.32765708231E+02  0.88741735438E+02 -0.15810278453E+04  0.16055447998E+04  0.26301400960E+03 0.  0.
         25    1    3    3    0    0  0.32765708231E+02 -0.88741735438E+02 -0.51498883760E+03  0.53833976093E+03  0.12509000000E+03 0.  0.
         25    1    4    4    0    0 -0.16699835400E+02  0.74596139959E+02 -0.10100657141E+04  0.10206486778E+04  0.12509000000E+03 0.  0.
         25    1    4    4    0    0 -0.16065872832E+02  0.14145595479E+02 -0.57096213124E+03  0.58489612202E+03  0.12509000000E+03 0.  0.
<mgrwt>
<rscale>  2 0.45050535E+03</rscale>
<asrwt>0</asrwt>
<pdfrwt beam="1">  1       21 0.35196965E-02 0.45050535E+03</pdfrwt>
<pdfrwt beam="2">  1       21 0.31175748E+00 0.45050535E+03</pdfrwt>
<totfact> 0.11909970E+04</totfact>
</mgrwt>
</event>
<event>
 7    0  0.4737014E-002  0.4639413E+03  0.7546771E-02  0.1023644E+00
         21   -1    0    0  502  501  0.00000000000E+00  0.00000000000E+00  0.13278302464E+03  0.13278302464E+03  0.00000000000E+00 0. -1.
         21   -1    0    0  501  502 -0.00000000000E+00 -0.00000000000E+00 -0.40525051298E+03  0.40525051298E+03  0.00000000000E+00 0. -1.
      99926    2    1    2    0    0  0.00000000000E+00  0.14210854715E-13 -0.27246748834E+03  0.53803353762E+03  0.46394132754E+03 0.  0.
      99925    2    3    3    0    0  0.69755366671E+02 -0.96892762115E+02 -0.19561319116E+03  0.34880322920E+03  0.26295466075E+03 0.  0.
         25    1    4    4    0    0  0.11144701899E+02 -0.26466340964E+02 -0.55539349321E+02  0.13984562563E+03  0.12509000000E+03 0.  0.
         25    1    4    4    0    0  0.58610664772E+02 -0.70426421152E+02 -0.14007384184E+03  0.20895760357E+03  0.12509000000E+03 0.  0.
         25    1    3    3    0    0 -0.69755366671E+02  0.96892762115E+02 -0.76854297177E+02  0.18923030842E+03  0.12509000000E+03 0.  0.
<mgrwt>
<rscale>  2 0.46394133E+03</rscale>
<asrwt>0</asrwt>
<pdfrwt beam="1">  1       21 0.19526915E-01 0.46394133E+03</pdfrwt>
<pdfrwt beam="2">  1       21 0.59595664E-01 0.46394133E+03</pdfrwt>
<totfact> 0.58415334E+04</totfact>
</mgrwt>
</event>
<event>
 7    0  0.4737014E-002  0.4585742E+03  0.7546771E-02  0.1025196E+00
         21   -1    0    0  502  501  0.00000000000E+00  0.00000000000E+00  0.51735607004E+03  0.51735607004E+03  0.00000000000E+00 0. -1.
         21   -1    0    0  501  502 -0.00000000000E+00 -0.00000000000E+00 -0.10161776655E+03  0.10161776655E+03  0.00000000000E+00 0. -1.
      99926    2    1    2    0    0  0.00000000000E+00  0.71054273576E-14  0.41573830349E+03  0.61897383658E+03  0.45857417436E+03 0.  0.
      99925    2    3    3    0    0  0.97406929828E+02  0.62672298220E+02  0.24518946699E+03  0.37783001918E+03  0.26310021232E+03 0.  0.
         25    1    4    4    0    0  0.40753662255E+02  0.68382673019E+02  0.14801960261E+03  0.20950981317E+03  0.12509000000E+03 0.  0.
         25    1    4    4    0    0  0.56653267573E+02 -0.57103747997E+01  0.97169864375E+02  0.16832020601E+03  0.12509000000E+03 0.  0.
         25    1    3    3    0    0 -0.97406929828E+02 -0.62672298220E+02  0.17054883650E+03  0.24114381741E+03  0.12509000000E+03 0.  0.
<mgrwt>
<rscale>  2 0.45857417E+03</rscale>
<asrwt>0</asrwt>
<pdfrwt beam="1">  1       21 0.76081774E-01 0.45857417E+03</pdfrwt>
<pdfrwt beam="2">  1       21 0.14943789E-01 0.45857417E+03</pdfrwt>
<totfact> 0.55929897E+04</totfact>
</mgrwt>
</event>
<event>
 7    0  0.4737014E-002  0.4506142E+03  0.7546771E-02  0.1027539E+00
         21   -1    0    0  502  501  0.00000000000E+00  0.00000000000E+00  0.53340921802E+03  0.53340921802E+03  0.00000000000E+00 0.  1.
         21   -1    0    0  501  502 -0.00000000000E+00 -0.00000000000E+00 -0.95167607039E+02  0.95167607039E+02  0.00000000000E+00 0.  1.
      99926    2    1    2    0    0  0.00000000000E+00  0.00000000000E+00  0.43824161098E+03  0.62857682506E+03  0.45061415358E+03 0.  0.
      99925    2    3    3    0    0  0.78870186573E+02 -0.36973146497E+02  0.18423521625E+03  0.33234334188E+03  0.26252992609E+03 0.  0.
         25    1    4    4    0    0  0.75125937264E+00 -0.27680376012E+02  0.97488761371E+02  0.16099172122E+03  0.12509000000E+03 0.  0.
         25    1    4    4    0    0  0.78118927201E+02 -0.92927704850E+01  0.86746454879E+02  0.17135162066E+03  0.12509000000E+03 0.  0.
         25    1    3    3    0    0 -0.78870186573E+02  0.36973146497E+02  0.25400639473E+03  0.29623348318E+03  0.12509000000E+03 0.  0.
<mgrwt>
<rscale>  2 0.45061415E+03</rscale>
<asrwt>0</asrwt>
<pdfrwt beam="1">  1       21 0.78442531E-01 0.45061415E+03</pdfrwt>
<pdfrwt beam="2">  1       21 0.13995237E-01 0.45061415E+03</pdfrwt>
<totfact> 0.58968146E+04</totfact>
</mgrwt>
</event>
<event>
 7    0  0.4737014E-002  0.4569675E+03  0.7546771E-02  0.1025664E+00
         21   -1    0    0  502  501  0.00000000000E+00  0.00000000000E+00  0.96299287686E+03  0.96299287686E+03  0.00000000000E+00 0. -1.
         21   -1    0    0  501  502 -0.00000000000E+00 -0.00000000000E+00 -0.54211009542E+02  0.54211009542E+02  0.00000000000E+00 0. -1.
      99926    2    1    2    0    0  0.00000000000E+00  0.00000000000E+00  0.90878186732E+03  0.10172038864E+04  0.45696746508E+03 0.  0.
      99925    2    3    3    0    0  0.88886830876E+02  0.27412564124E+02  0.42048962094E+03  0.50463277587E+03  0.26304068087E+03 0.  0.
         25    1    3    3    0    0 -0.88886830876E+02 -0.27412564124E+02  0.48829224638E+03  0.51257111053E+03  0.12509000000E+03 0.  0.
         25    1    4    4    0    0  0.68952892242E+02 -0.18991324010E+02  0.21928469164E+03  0.26238989276E+03  0.12509000000E+03 0.  0.
         25    1    4    4    0    0  0.19933938634E+02  0.46403888134E+02  0.20120492929E+03  0.24224288311E+03  0.12509000000E+03 0.  0.
<mgrwt>
<rscale>  2 0.45696747E+03</rscale>
<asrwt>0</asrwt>
<pdfrwt beam="1">  1       21 0.14161659E+00 0.45696747E+03</pdfrwt>
<pdfrwt beam="2">  1       21 0.79722079E-02 0.45696747E+03</pdfrwt>
<totfact> 0.37918359E+04</totfact>
</mgrwt>
</event>
<event>
 7    0  0.4737014E-002  0.4597597E+03  0.7546771E-02  0.1024851E+00
         21   -1    0    0  502  501  0.00000000000E+00  0.00000000000E+00  0.10634945631E+04  0.10634945631E+04  0.00000000000E+00 0. -1.
         21   -1    0    0  501  502 -0.00000000000E+00 -0.00000000000E+00 -0.49689717703E+02  0.49689717703E+02  0.00000000000E+00 0. -1.
      99926    2    1    2    0    0  0.00000000000E+00  0.00000000000E+00  0.10138048454E+04  0.11131842808E+04  0.45975969644E+03 0.  0.
      99925    2    3    3    0    0  0.96864731084E+02  0.65144327526E+02  0.67015667307E+03  0.72929870673E+03  0.26294500877E+03 0.  0.
         25    1    3    3    0    0 -0.96864731084E+02 -0.65144327526E+02  0.34364817229E+03  0.38388557404E+03  0.12509000000E+03 0.  0.
         25    1    4    4    0    0  0.41093301407E+02  0.50704363241E+02  0.42878228011E+03  0.45139931735E+03  0.12509000000E+03 0.  0.
         25    1    4    4    0    0  0.55771429678E+02  0.14439964285E+02  0.24137439297E+03  0.27789938938E+03  0.12509000000E+03 0.  0.
<mgrwt>
<rscale>  2 0.45975970E+03</rscale>
<asrwt>0</asrwt>
<pdfrwt beam="1">  1       21 0.15639625E+00 0.45975970E+03</pdfrwt>
<pdfrwt beam="2">  1       21 0.73073121E-02 0.45975970E+03</pdfrwt>
<totfact> 0.33765004E+04</totfact>
</mgrwt>
</event>
<event>
 7    0  0.4737014E-002  0.4547734E+03  0.7546771E-02  0.1026308E+00
         21   -1    0    0  502  501  0.00000000000E+00  0.00000000000E+00  0.17375444917E+03  0.17375444917E+03  0.00000000000E+00 0.  1.
         21   -1    0    0  501  502 -0.00000000000E+00 -0.00000000000E+00 -0.29757342657E+03  0.29757342657E+03  0.00000000000E+00 0.  1.
      99926    2    1    2    0    0  0.00000000000E+00 -0.71054273576E-14 -0.12381897741E+03  0.47132787574E+03  0.45477338014E+03 0.  0.
      99925    2    3    3    0    0  0.76566076921E+02  0.47362292011E+02 -0.14863313524E+03  0.31522277855E+03  0.26299817563E+03 0.  0.
         25    1    4    4    0    0  0.16142385586E+02 -0.12415546486E+02 -0.69083684389E+02  0.14434259924E+03  0.12509000000E+03 0.  0.
         25    1    4    4    0    0  0.60423691336E+02  0.59777838497E+02 -0.79549450852E+02  0.17088017931E+03  0.12509000000E+03 0.  0.
         25    1    3    3    0    0 -0.76566076921E+02 -0.47362292011E+02  0.24814157833E+02  0.15610509719E+03  0.12509000000E+03 0.  0.
<mgrwt>
<rscale>  2 0.45477338E+03</rscale>
<asrwt>0</asrwt>
<pdfrwt beam="1">  1       21 0.25552125E-01 0.45477338E+03</pdfrwt>
<pdfrwt beam="2">  1       21 0.43760797E-01 0.45477338E+03</pdfrwt>
<totfact> 0.67458292E+04</totfact>
</mgrwt>
</event>
<event>
 7    0  0.4737014E-002  0.4542564E+03  0.7546771E-02  0.1026460E+00
         21   -1    0    0  502  501  0.00000000000E+00  0.00000000000E+00  0.79964617391E+02  0.79964617391E+02  0.00000000000E+00 0. -1.
         21   -1    0    0  501  502 -0.00000000000E+00 -0.00000000000E+00 -0.64512567236E+03  0.64512567236E+03  0.00000000000E+00 0. -1.
      99926    2    1    2    0    0  0.00000000000E+00  0.71054273576E-14 -0.56516105497E+03  0.72509028975E+03  0.45425643665E+03 0.  0.
      99925    2    3    3    0    0  0.63143721703E+02  0.62941439192E+02 -0.24622643445E+03  0.37109091881E+03  0.26293014024E+03 0.  0.
         25    1    4    4    0    0  0.14630708850E+02  0.19119155023E+02 -0.16428469050E+03  0.20788594797E+03  0.12509000000E+03 0.  0.
         25    1    4    4    0    0  0.48513012854E+02  0.43822284168E+02 -0.81941743941E+02  0.16320497084E+03  0.12509000000E+03 0.  0.
         25    1    3    3    0    0 -0.63143721703E+02 -0.62941439192E+02 -0.31893462053E+03  0.35399937094E+03  0.12509000000E+03 0.  0.
<mgrwt>
<rscale>  2 0.45425644E+03</rscale>
<asrwt>0</asrwt>
<pdfrwt beam="1">  1       21 0.11759503E-01 0.45425644E+03</pdfrwt>
<pdfrwt beam="2">  1       21 0.94871420E-01 0.45425644E+03</pdfrwt>
<totfact> 0.51864468E+04</totfact>
</mgrwt>
</event>
<event>
 7    0  0.4737014E-002  0.4561875E+03  0.7546771E-02  0.1025893E+00
         21   -1    0    0  502  501  0.00000000000E+00  0.00000000000E+00  0.12998714961E+03  0.12998714961E+03  0.00000000000E+00 0.  1.
         21   -1    0    0  501  502 -0.00000000000E+00 -0.00000000000E+00 -0.40024532979E+03  0.40024532979E+03  0.00000000000E+00 0.  1.
      99926    2    1    2    0    0  0.00000000000E+00  0.35527136788E-14 -0.27025818018E+03  0.53023247940E+03  0.45618745956E+03 0.  0.
      99925    2    3    3    0    0 -0.20861103418E+02  0.90948785035E+01 -0.39604683819E+02  0.26685737440E+03  0.26291904618E+03 0.  0.
         25    1    4    4    0    0 -0.42693203723E+01 -0.31721041196E+02 -0.36575236017E+02  0.13420025164E+03  0.12509000000E+03 0.  0.
         25    1    4    4    0    0 -0.16591783046E+02  0.40815919700E+02 -0.30294478026E+01  0.13265712276E+03  0.12509000000E+03 0.  0.
         25    1    3    3    0    0  0.20861103418E+02 -0.90948785035E+01 -0.23065349636E+03  0.26337510500E+03  0.12509000000E+03 0.  0.
<mgrwt>
<rscale>  2 0.45618746E+03</rscale>
<asrwt>0</asrwt>
<pdfrwt beam="1">  1       21 0.19115757E-01 0.45618746E+03</pdfrwt>
<pdfrwt beam="2">  1       21 0.58859607E-01 0.45618746E+03</pdfrwt>
<totfact> 0.62599538E+04</totfact>
</mgrwt>
</event>
<event>
 7    0  0.4737014E-002  0.4565251E+03  0.7546771E-02  0.1025794E+00
         21   -1    0    0  502  501  0.00000000000E+00  0.00000000000E+00  0.94833766904E+02  0.94833766904E+02  0.00000000000E+00 0. -1.
         21   -1    0    0  501  502 -0.00000000000E+00 -0.00000000000E+00 -0.54942231176E+03  0.54942231176E+03  0.00000000000E+00 0. -1.
      99926    2    1    2    0    0  0.00000000000E+00  0.00000000000E+00 -0.45458854485E+03  0.64425607866E+03  0.45652508122E+03 0.  0.
      99925    2    3    3    0    0 -0.84982635879E+01 -0.60046912062E+02 -0.14858380439E+03  0.30815451452E+03  0.26306692259E+03 0.  0.
         25    1    3    3    0    0  0.84982635879E+01  0.60046912062E+02 -0.30600474047E+03  0.33610156414E+03  0.12509000000E+03 0.  0.
         25    1    4    4    0    0  0.65491527849E+01 -0.17297499152E+02 -0.30066434392E+02  0.12997535711E+03  0.12509000000E+03 0.  0.
         25    1    4    4    0    0 -0.15047416373E+02 -0.42749412910E+02 -0.11851737000E+03  0.17817915741E+03  0.12509000000E+03 0.  0.
<mgrwt>
<rscale>  2 0.45652508E+03</rscale>
<asrwt>0</asrwt>
<pdfrwt beam="1">  1       21 0.13946143E-01 0.45652508E+03</pdfrwt>
<pdfrwt beam="2">  1       21 0.80797396E-01 0.45652508E+03</pdfrwt>
<totfact> 0.55364361E+04</totfact>
</mgrwt>
</event>
<event>
 7    0  0.4737014E-002  0.4556196E+03  0.7546771E-02  0.1026059E+00
         21   -1    0    0  502  501  0.00000000000E+00  0.00000000000E+00  0.17704321017E+03  0.17704321017E+03  0.00000000000E+00 0.  1.
         21   -1    0    0  501  502 -0.00000000000E+00 -0.00000000000E+00 -0.29313348992E+03  0.29313348992E+03  0.00000000000E+00 0.  1.
      99926    2    1    2    0    0  0.00000000000E+00  0.00000000000E+00 -0.11609027975E+03  0.47017670009E+03  0.45561955210E+03 0.  0.
      99925    2    3    3    0    0 -0.34086004795E+02 -0.10748717458E+03 -0.58084365983E+02  0.29205443154E+03  0.26307156628E+03 0.  0.
         25    1    4    4    0    0 -0.33750871089E+02 -0.34105563257E+02 -0.60511403925E+02  0.14700832918E+03  0.12509000000E+03 0.  0.
         25    1    4    4    0    0 -0.33513370600E+00 -0.73381611320E+02  0.24270379413E+01  0.14504610235E+03  0.12509000000E+03 0.  0.
         25    1    3    3    0    0  0.34086004795E+02  0.10748717458E+03 -0.58005913765E+02  0.17812226855E+03  0.12509000000E+03 0.  0.
<mgrwt>
<rscale>  2 0.45561955E+03</rscale>
<asrwt>0</asrwt>
<pdfrwt beam="1">  1       21 0.26035766E-01 0.45561955E+03</pdfrwt>
<pdfrwt beam="2">  1       21 0.43107866E-01 0.45561955E+03</pdfrwt>
<totfact> 0.67092228E+04</totfact>
</mgrwt>
</event>
<event>
 7    0  0.4737014E-002  0.4575709E+03  0.7546771E-02  0.1025488E+00
         21   -1    0    0  502  501  0.00000000000E+00  0.00000000000E+00  0.19681054898E+03  0.19681054898E+03  0.00000000000E+00 0.  1.
         21   -1    0    0  501  502 -0.00000000000E+00 -0.00000000000E+00 -0.26595514709E+03  0.26595514709E+03  0.00000000000E+00 0.  1.
      99926    2    1    2    0    0  0.00000000000E+00  0.00000000000E+00 -0.69144598109E+02  0.46276569607E+03  0.45757088413E+03 0.  0.
      99925    2    3    3    0    0  0.77563289191E+02  0.17510274806E+02 -0.12842361671E+03  0.30312803228E+03  0.26281420256E+03 0.  0.
         25    1    4    4    0    0  0.77053748154E+02  0.90220361974E+01 -0.51044274020E+02  0.15579378438E+03  0.12509000000E+03 0.  0.
         25    1    4    4    0    0  0.50954103624E+00  0.84882386084E+01 -0.77379342694E+02  0.14733424789E+03  0.12509000000E+03 0.  0.
         25    1    3    3    0    0 -0.77563289191E+02 -0.17510274806E+02  0.59279018604E+02  0.15963766379E+03  0.12509000000E+03 0.  0.
<mgrwt>
<rscale>  2 0.45757088E+03</rscale>
<asrwt>0</asrwt>
<pdfrwt beam="1">  1       21 0.28942728E-01 0.45757088E+03</pdfrwt>
<pdfrwt beam="2">  1       21 0.39111050E-01 0.45757088E+03</pdfrwt>
<totfact> 0.66603470E+04</totfact>
</mgrwt>
</event>
<event>
 7    0  0.4737014E-002  0.4577963E+03  0.7546771E-02  0.1025422E+00
         21   -1    0    0  502  501  0.00000000000E+00  0.00000000000E+00  0.65580829530E+02  0.65580829530E+02  0.00000000000E+00 0.  1.
         21   -1    0    0  501  502 -0.00000000000E+00 -0.00000000000E+00 -0.79892805908E+03  0.79892805908E+03  0.00000000000E+00 0.  1.
      99926    2    1    2    0    0  0.35527136788E-14  0.00000000000E+00 -0.73334722955E+03  0.86450888861E+03  0.45779630776E+03 0.  0.
      99925    2    3    3    0    0  0.25894582872E+02  0.10903533989E+03 -0.40551885658E+03  0.49616369047E+03  0.26300880201E+03 0.  0.
         25    1    3    3    0    0 -0.25894582872E+02 -0.10903533989E+03 -0.32782837297E+03  0.36834519814E+03  0.12509000000E+03 0.  0.
         25    1    4    4    0    0 -0.20384084413E+02  0.33609307265E+02 -0.21282643665E+03  0.24997539213E+03  0.12509000000E+03 0.  0.
         25    1    4    4    0    0  0.46278667285E+02  0.75426032625E+02 -0.19269241993E+03  0.24618829834E+03  0.12509000000E+03 0.  0.
<mgrwt>
<rscale>  2 0.45779631E+03</rscale>
<asrwt>0</asrwt>
<pdfrwt beam="1">  1       21 0.96442400E-02 0.45779631E+03</pdfrwt>
<pdfrwt beam="2">  1       21 0.11748942E+00 0.45779631E+03</pdfrwt>
<totfact> 0.43827924E+04</totfact>
</mgrwt>
</event>
<event>
 7    0  0.4737014E-002  0.4557466E+03  0.7546771E-02  0.1026022E+00
         21   -1    0    0  502  501  0.00000000000E+00  0.00000000000E+00  0.16156403506E+03  0.16156403506E+03  0.00000000000E+00 0. -1.
         21   -1    0    0  501  502 -0.00000000000E+00 -0.00000000000E+00 -0.32139728286E+03  0.32139728286E+03  0.00000000000E+00 0. -1.
      99926    2    1    2    0    0  0.00000000000E+00 -0.14210854715E-13 -0.15983324779E+03  0.48296131792E+03  0.45574660449E+03 0.  0.
      99925    2    3    3    0    0 -0.32347664759E+02 -0.74533659804E+02 -0.18499715393E+03  0.33169212697E+03  0.26304768061E+03 0.  0.
         25    1    3    3    0    0  0.32347664759E+02  0.74533659804E+02  0.25163906135E+02  0.15126919095E+03  0.12509000000E+03 0.  0.
         25    1    4    4    0    0 -0.45961419426E+02 -0.43689229748E+02 -0.12901133009E+03  0.19055873704E+03  0.12509000000E+03 0.  0.
         25    1    4    4    0    0  0.13613754667E+02 -0.30844430057E+02 -0.55985823841E+02  0.14113338993E+03  0.12509000000E+03 0.  0.
<mgrwt>
<rscale>  2 0.45574660E+03</rscale>
<asrwt>0</asrwt>
<pdfrwt beam="1">  1       21 0.23759417E-01 0.45574660E+03</pdfrwt>
<pdfrwt beam="2">  1       21 0.47264306E-01 0.45574660E+03</pdfrwt>
<totfact> 0.66092594E+04</totfact>
</mgrwt>
</event>
<event>
 7    0  0.4737014E-002  0.4554128E+03  0.7546771E-02  0.1026120E+00
         21   -1    0    0  502  501  0.00000000000E+00  0.00000000000E+00  0.47270455410E+02  0.47270455410E+02  0.00000000000E+00 0.  1.
         21   -1    0    0  501  502 -0.00000000000E+00 -0.00000000000E+00 -0.10968841044E+04  0.10968841044E+04  0.00000000000E+00 0.  1.
      99926    2    1    2    0    0  0.00000000000E+00  0.00000000000E+00 -0.10496136490E+04  0.11441545598E+04  0.45541282874E+03 0.  0.
      99925    2    3    3    0    0 -0.32083119091E+02 -0.37264889594E+02 -0.40314117440E+03  0.48385753041E+03  0.26301578795E+03 0.  0.
         25    1    4    4    0    0 -0.28031705978E+02  0.26374881693E+01 -0.25795258181E+03  0.28806210345E+03  0.12509000000E+03 0.  0.
         25    1    4    4    0    0 -0.40514131127E+01 -0.39902377763E+02 -0.14518859259E+03  0.19579542696E+03  0.12509000000E+03 0.  0.
         25    1    3    3    0    0  0.32083119091E+02  0.37264889594E+02 -0.64647247457E+03  0.66029702937E+03  0.12509000000E+03 0.  0.
<mgrwt>
<rscale>  2 0.45541283E+03</rscale>
<asrwt>0</asrwt>
<pdfrwt beam="1">  1       21 0.69515380E-02 0.45541283E+03</pdfrwt>
<pdfrwt beam="2">  1       21 0.16130648E+00 0.45541283E+03</pdfrwt>
<totfact> 0.33869026E+04</totfact>
</mgrwt>
</event>
<event>
 7    0  0.4737014E-002  0.4551743E+03  0.7546771E-02  0.1026190E+00
         21   -1    0    0  502  501  0.00000000000E+00  0.00000000000E+00  0.13214302088E+03  0.13214302088E+03  0.00000000000E+00 0.  1.
         21   -1    0    0  501  502 -0.00000000000E+00 -0.00000000000E+00 -0.39196856458E+03  0.39196856458E+03  0.00000000000E+00 0.  1.
      99926    2    1    2    0    0  0.00000000000E+00  0.00000000000E+00 -0.25982554370E+03  0.52411158546E+03  0.45517429722E+03 0.  0.
      99925    2    3    3    0    0 -0.57507058756E+02  0.97143266063E+02 -0.15122311764E+03  0.32364744653E+03  0.26293604240E+03 0.  0.
         25    1    3    3    0    0  0.57507058756E+02 -0.97143266063E+02 -0.10860242607E+03  0.20046413893E+03  0.12509000000E+03 0.  0.
         25    1    4    4    0    0 -0.43904298294E+02  0.21462687982E+02 -0.42222878013E+02  0.14077824374E+03  0.12509000000E+03 0.  0.
         25    1    4    4    0    0 -0.13602760462E+02  0.75680578081E+02 -0.10900023962E+03  0.18286920279E+03  0.12509000000E+03 0.  0.
<mgrwt>
<rscale>  2 0.45517430E+03</rscale>
<asrwt>0</asrwt>
<pdfrwt beam="1">  1       21 0.19432797E-01 0.45517430E+03</pdfrwt>
<pdfrwt beam="2">  1       21 0.57642435E-01 0.45517430E+03</pdfrwt>
<totfact> 0.63519059E+04</totfact>
</mgrwt>
</event>
<event>
 7    0  0.4737014E-002  0.4562796E+03  0.7546771E-02  0.1025866E+00
         21   -1    0    0  502  501  0.00000000000E+00  0.00000000000E+00  0.80650621660E+03  0.80650621660E+03  0.00000000000E+00 0.  1.
         21   -1    0    0  501  502 -0.00000000000E+00 -0.00000000000E+00 -0.64534853304E+02  0.64534853304E+02  0.00000000000E+00 0.  1.
      99926    2    1    2    0    0  0.00000000000E+00 -0.17763568394E-14  0.74197136330E+03  0.87104106991E+03  0.45627956508E+03 0.  0.
      99925    2    3    3    0    0 -0.47951116053E+02 -0.67726772771E+01  0.66405271226E+03  0.71591530491E+03  0.26310366863E+03 0.  0.
         25    1    4    4    0    0 -0.14591979185E+02  0.33079813982E+02  0.36764612383E+03  0.39002356392E+03  0.12509000000E+03 0.  0.
         25    1    3    3    0    0  0.47951116053E+02  0.67726772771E+01  0.77918651034E+02  0.15512576500E+03  0.12509000000E+03 0.  0.
         25    1    4    4    0    0 -0.33359136868E+02 -0.39852491259E+02  0.29640658844E+03  0.32589174098E+03  0.12509000000E+03 0.  0.
<mgrwt>
<rscale>  2 0.45627957E+03</rscale>
<asrwt>0</asrwt>
<pdfrwt beam="1">  1       21 0.11860385E+00 0.45627957E+03</pdfrwt>
<pdfrwt beam="2">  1       21 0.94904201E-02 0.45627957E+03</pdfrwt>
<totfact> 0.44066136E+04</totfact>
</mgrwt>
</event>
<event>
 7    0  0.4737014E-002  0.4565572E+03  0.7546771E-02  0.1025784E+00
         21   -1    0    0  502  501  0.00000000000E+00  0.00000000000E+00  0.45972945413E+03  0.45972945413E+03  0.00000000000E+00 0.  1.
         21   -1    0    0  501  502 -0.00000000000E+00 -0.00000000000E+00 -0.11335170191E+03  0.11335170191E+03  0.00000000000E+00 0.  1.
      99926    2    1    2    0    0  0.00000000000E+00  0.00000000000E+00  0.34637775222E+03  0.57308115603E+03  0.45655718609E+03 0.  0.
      99925    2    3    3    0    0  0.22115463341E+02  0.85341586193E+02  0.12601363478E+03  0.30479002236E+03  0.26314490595E+03 0.  0.
         25    1    4    4    0    0 -0.25077614967E+02  0.24441773256E+02  0.70011825606E+02  0.14756507336E+03  0.12509000000E+03 0.  0.
         25    1    3    3    0    0 -0.22115463341E+02 -0.85341586193E+02  0.22036411744E+03  0.26829113367E+03  0.12509000000E+03 0.  0.
         25    1    4    4    0    0  0.47193078309E+02  0.60899812937E+02  0.56001809174E+02  0.15722494900E+03  0.12509000000E+03 0.  0.
<mgrwt>
<rscale>  2 0.45655719E+03</rscale>
<asrwt>0</asrwt>
<pdfrwt beam="1">  1       21 0.67607272E-01 0.45655719E+03</pdfrwt>
<pdfrwt beam="2">  1       21 0.16669368E-01 0.45655719E+03</pdfrwt>
<totfact> 0.59628952E+04</totfact>
</mgrwt>
</event>
<event>
 7    0  0.4737014E-002  0.4595697E+03  0.7546771E-02  0.1024906E+00
         21   -1    0    0  502  501  0.00000000000E+00  0.00000000000E+00  0.65440548540E+03  0.65440548540E+03  0.00000000000E+00 0. -1.
         21   -1    0    0  501  502 -0.00000000000E+00 -0.00000000000E+00 -0.80685566770E+02  0.80685566770E+02  0.00000000000E+00 0. -1.
      99926    2    1    2    0    0  0.00000000000E+00  0.00000000000E+00  0.57371991863E+03  0.73509105217E+03  0.45956970086E+03 0.  0.
      99925    2    3    3    0    0 -0.39592685464E+01  0.64779526335E+02  0.51602762714E+03  0.58281508086E+03  0.26301491150E+03 0.  0.
         25    1    4    4    0    0  0.35778844290E+01  0.68391755344E+02  0.23164123914E+03  0.27202096468E+03  0.12509000000E+03 0.  0.
         25    1    3    3    0    0  0.39592685464E+01 -0.64779526335E+02  0.57692291487E+02  0.15227597130E+03  0.12509000000E+03 0.  0.
         25    1    4    4    0    0 -0.75371529754E+01 -0.36122290086E+01  0.28438638800E+03  0.31079411618E+03  0.12509000000E+03 0.  0.
<mgrwt>
<rscale>  2 0.45956970E+03</rscale>
<asrwt>0</asrwt>
<pdfrwt beam="1">  1       21 0.96236098E-01 0.45956970E+03</pdfrwt>
<pdfrwt beam="2">  1       21 0.11865525E-01 0.45956970E+03</pdfrwt>
<totfact> 0.49245466E+04</totfact>
</mgrwt>
</event>
<event>
 7    0  0.4737014E-002  0.4525748E+03  0.7546771E-02  0.1026957E+00
         21   -1    0    0  502  501  0.00000000000E+00  0.00000000000E+00  0.86097730846E+03  0.86097730846E+03  0.00000000000E+00 0. -1.
         21   -1    0    0  501  502 -0.00000000000E+00 -0.00000000000E+00 -0.59474256597E+02  0.59474256597E+02  0.00000000000E+00 0. -1.
      99926    2    1    2    0    0  0.14210854715E-13  0.00000000000E+00  0.80150305186E+03  0.92045156506E+03  0.45257479102E+03 0.  0.
      99925    2    3    3    0    0 -0.81108596521E+02 -0.15326369553E+02  0.65608858299E+03  0.71163016316E+03  0.26296721916E+03 0.  0.
         25    1    4    4    0    0 -0.22395737654E+01 -0.65541223797E+01  0.25635878658E+03  0.28533367795E+03  0.12509000000E+03 0.  0.
         25    1    4    4    0    0 -0.78869022755E+02 -0.87722471731E+01  0.39972979641E+03  0.42629648521E+03  0.12509000000E+03 0.  0.
         25    1    3    3    0    0  0.81108596521E+02  0.15326369553E+02  0.14541446887E+03  0.20882140190E+03  0.12509000000E+03 0.  0.
<mgrwt>
<rscale>  2 0.45257479E+03</rscale>
<asrwt>0</asrwt>
<pdfrwt beam="1">  1       21 0.12661430E+00 0.45257479E+03</pdfrwt>
<pdfrwt beam="2">  1       21 0.87462147E-02 0.45257479E+03</pdfrwt>
<totfact> 0.43174380E+04</totfact>
</mgrwt>
</event>
<event>
 7    0  0.4737014E-002  0.4559416E+03  0.7546771E-02  0.1025965E+00
         21   -1    0    0  502  501  0.00000000000E+00  0.00000000000E+00  0.93102162443E+03  0.93102162443E+03  0.00000000000E+00 0. -1.
         21   -1    0    0  501  502 -0.00000000000E+00 -0.00000000000E+00 -0.55821128261E+02  0.55821128261E+02  0.00000000000E+00 0. -1.
      99926    2    1    2    0    0 -0.35527136788E-14  0.00000000000E+00  0.87520049617E+03  0.98684275269E+03  0.45594156429E+03 0.  0.
      99925    2    3    3    0    0  0.18772748126E+02  0.27779636620E+02  0.31437949902E+03  0.41126319848E+03  0.26301867754E+03 0.  0.
         25    1    4    4    0    0 -0.27391662845E+02  0.25368639858E+02  0.13561796717E+03  0.18823817944E+03  0.12509000000E+03 0.  0.
         25    1    3    3    0    0 -0.18772748126E+02 -0.27779636620E+02  0.56082099714E+03  0.57557955421E+03  0.12509000000E+03 0.  0.
         25    1    4    4    0    0  0.46164410971E+02  0.24109967619E+01  0.17876153186E+03  0.22302501904E+03  0.12509000000E+03 0.  0.
<mgrwt>
<rscale>  2 0.45594156E+03</rscale>
<asrwt>0</asrwt>
<pdfrwt beam="1">  1       21 0.13691494E+00 0.45594156E+03</pdfrwt>
<pdfrwt beam="2">  1       21 0.82089900E-02 0.45594156E+03</pdfrwt>
<totfact> 0.39391855E+04</totfact>
</mgrwt>
</event>
<event>
 7    0  0.4737014E-002  0.4483232E+03  0.7546771E-02  0.1028223E+00
         21   -1    0    0  502  501  0.00000000000E+00  0.00000000000E+00  0.20262311694E+03  0.20262311694E+03  0.00000000000E+00 0. -1.
         21   -1    0    0  501  502 -0.00000000000E+00 -0.00000000000E+00 -0.24798963225E+03  0.24798963225E+03  0.00000000000E+00 0. -1.
      99926    2    1    2    0    0  0.71054273576E-14 -0.71054273576E-14 -0.45366515313E+02  0.45061274919E+03  0.44832324167E+03 0.  0.
      99925    2    3    3    0    0  0.50448340326E+02 -0.55803966781E+02  0.48039603821E+02  0.27731725316E+03  0.26256035043E+03 0.  0.
         25    1    3    3    0    0 -0.50448340326E+02  0.55803966781E+02 -0.93406119133E+02  0.17329549602E+03  0.12509000000E+03 0.  0.
         25    1    4    4    0    0  0.32411091632E+02  0.10646608753E+02  0.13117679734E+02  0.13032041575E+03  0.12509000000E+03 0.  0.
         25    1    4    4    0    0  0.18037248694E+02 -0.66450575533E+02  0.34921924086E+02  0.14699683742E+03  0.12509000000E+03 0.  0.
<mgrwt>
<rscale>  2 0.44832324E+03</rscale>
<asrwt>0</asrwt>
<pdfrwt beam="1">  1       21 0.29797517E-01 0.44832324E+03</pdfrwt>
<pdfrwt beam="2">  1       21 0.36469064E-01 0.44832324E+03</pdfrwt>
<totfact> 0.72662725E+04</totfact>
</mgrwt>
</event>
<event>
 7    0  0.4737014E-002  0.4525851E+03  0.7546771E-02  0.1026954E+00
         21   -1    0    0  502  501  0.00000000000E+00  0.00000000000E+00  0.56082641468E+02  0.56082641468E+02  0.00000000000E+00 0. -1.
         21   -1    0    0  501  502 -0.00000000000E+00 -0.00000000000E+00 -0.91308657567E+03  0.91308657567E+03  0.00000000000E+00 0. -1.
      99926    2    1    2    0    0  0.17763568394E-14  0.00000000000E+00 -0.85700393420E+03  0.96916921713E+03  0.45258505080E+03 0.  0.
      99925    2    3    3    0    0  0.11406386423E+02  0.47796901021E+02 -0.75329296921E+03  0.79941020631E+03  0.26304321144E+03 0.  0.
         25    1    4    4    0    0 -0.14640726495E+01  0.32778782405E+02 -0.49679234586E+03  0.51334855127E+03  0.12509000000E+03 0.  0.
         25    1    4    4    0    0  0.12870459072E+02  0.15018118616E+02 -0.25650062335E+03  0.28606165503E+03  0.12509000000E+03 0.  0.
         25    1    3    3    0    0 -0.11406386423E+02 -0.47796901021E+02 -0.10371096499E+03  0.16975901083E+03  0.12509000000E+03 0.  0.
<mgrwt>
<rscale>  2 0.45258505E+03</rscale>
<asrwt>0</asrwt>
<pdfrwt beam="1">  1       21 0.82474473E-02 0.45258505E+03</pdfrwt>
<pdfrwt beam="2">  1       21 0.13427744E+00 0.45258505E+03</pdfrwt>
<totfact> 0.41145555E+04</totfact>
</mgrwt>
</event>
<event>
 7    0  0.4737014E-002  0.4580236E+03  0.7546771E-02  0.1025356E+00
         21   -1    0    0  502  501  0.00000000000E+00  0.00000000000E+00  0.38455230874E+03  0.38455230874E+03  0.00000000000E+00 0. -1.
         21   -1    0    0  501  502 -0.00000000000E+00 -0.00000000000E+00 -0.13638302268E+03  0.13638302268E+03  0.00000000000E+00 0. -1.
      99926    2    1    2    0    0  0.00000000000E+00 -0.14210854715E-13  0.24816928606E+03  0.52093533142E+03  0.45802360744E+03 0.  0.
      99925    2    3    3    0    0  0.12417877870E+02 -0.11311433024E+03  0.13010265448E+03  0.31469204549E+03  0.26297400518E+03 0.  0.
         25    1    3    3    0    0 -0.12417877870E+02  0.11311433024E+03  0.11806663158E+03  0.20624328592E+03  0.12509000000E+03 0.  0.
         25    1    4    4    0    0 -0.18202538204E+02 -0.39534804172E+02  0.92894865362E+02  0.16177545317E+03  0.12509000000E+03 0.  0.
         25    1    4    4    0    0  0.30620416074E+02 -0.73579526066E+02  0.37207789115E+02  0.15291659232E+03  0.12509000000E+03 0.  0.
<mgrwt>
<rscale>  2 0.45802361E+03</rscale>
<asrwt>0</asrwt>
<pdfrwt beam="1">  1       21 0.56551810E-01 0.45802361E+03</pdfrwt>
<pdfrwt beam="2">  1       21 0.20056327E-01 0.45802361E+03</pdfrwt>
<totfact> 0.62315213E+04</totfact>
</mgrwt>
</event>
<event>
 7    0  0.4737014E-002  0.4542587E+03  0.7546771E-02  0.1026460E+00
         21   -1    0    0  502  501  0.00000000000E+00  0.00000000000E+00  0.27274213700E+03  0.27274213700E+03  0.00000000000E+00 0.  1.
         21   -1    0    0  501  502 -0.00000000000E+00 -0.00000000000E+00 -0.18914471066E+03  0.18914471066E+03  0.00000000000E+00 0.  1.
      99926    2    1    2    0    0 -0.17763568394E-14  0.71054273576E-14  0.83597426339E+02  0.46188684766E+03  0.45425866018E+03 0.  0.
      99925    2    3    3    0    0  0.90286182066E+01  0.42607874219E+02 -0.52809497740E+02  0.27175188525E+03  0.26298915794E+03 0.  0.
         25    1    3    3    0    0 -0.90286182066E+01 -0.42607874219E+02  0.13640692408E+03  0.19013496241E+03  0.12509000000E+03 0.  0.
         25    1    4    4    0    0 -0.33804825333E+02  0.10194034744E+02 -0.17835289019E+02  0.13119561805E+03  0.12509000000E+03 0.  0.
         25    1    4    4    0    0  0.42833443539E+02  0.32413839475E+02 -0.34974208720E+02  0.14055626720E+03  0.12509000000E+03 0.  0.
<mgrwt>
<rscale>  2 0.45425866E+03</rscale>
<asrwt>0</asrwt>
<pdfrwt beam="1">  1       21 0.40109138E-01 0.45425866E+03</pdfrwt>
<pdfrwt beam="2">  1       21 0.27815399E-01 0.45425866E+03</pdfrwt>
<totfact> 0.68444324E+04</totfact>
</mgrwt>
</event>
<event>
 7    0  0.4737014E-002  0.4542840E+03  0.7546771E-02  0.1026452E+00
         21   -1    0    0  502  501  0.00000000000E+00  0.00000000000E+00  0.76109152568E+02  0.76109152568E+02  0.00000000000E+00 0.  1.
         21   -1    0    0  501  502 -0.00000000000E+00 -0.00000000000E+00 -0.67788808848E+03  0.67788808848E+03  0.00000000000E+00 0.  1.
      99926    2    1    2    0    0  0.71054273576E-14 -0.35527136788E-14 -0.60177893591E+03  0.75399724105E+03  0.45428399906E+03 0.  0.
      99925    2    3    3    0    0 -0.42473074722E+02  0.30327680210E+02 -0.21335863208E+03  0.34260743710E+03  0.26293386965E+03 0.  0.
         25    1    4    4    0    0  0.65620796968E+01  0.40013870080E+02 -0.12555069623E+03  0.18180939500E+03  0.12509000000E+03 0.  0.
         25    1    4    4    0    0 -0.49035154419E+02 -0.96861898696E+01 -0.87807935853E+02  0.16079804210E+03  0.12509000000E+03 0.  0.
         25    1    3    3    0    0  0.42473074722E+02 -0.30327680210E+02 -0.38842030383E+03  0.41138980395E+03  0.12509000000E+03 0.  0.
<mgrwt>
<rscale>  2 0.45428400E+03</rscale>
<asrwt>0</asrwt>
<pdfrwt beam="1">  1       21 0.11192523E-01 0.45428400E+03</pdfrwt>
<pdfrwt beam="2">  1       21 0.99689421E-01 0.45428400E+03</pdfrwt>
<totfact> 0.50350116E+04</totfact>
</mgrwt>
</event>
<event>
 7    0  0.4737014E-002  0.4578631E+03  0.7546771E-02  0.1025403E+00
         21   -1    0    0  502  501  0.00000000000E+00  0.00000000000E+00  0.19767161395E+03  0.19767161395E+03  0.00000000000E+00 0.  1.
         21   -1    0    0  501  502 -0.00000000000E+00 -0.00000000000E+00 -0.26513495719E+03  0.26513495719E+03  0.00000000000E+00 0.  1.
      99926    2    1    2    0    0  0.00000000000E+00  0.00000000000E+00 -0.67463343247E+02  0.46280657114E+03  0.45786310138E+03 0.  0.
      99925    2    3    3    0    0 -0.76275966963E+02  0.42432388526E+02  0.35008459290E+02  0.27904991371E+03  0.26272558191E+03 0.  0.
         25    1    4    4    0    0 -0.75530584366E+02  0.17409089646E+02  0.35910944055E+02  0.15147623437E+03  0.12509000000E+03 0.  0.
         25    1    4    4    0    0 -0.74538259760E+00  0.25023298880E+02 -0.90248476495E+00  0.12757367934E+03  0.12509000000E+03 0.  0.
         25    1    3    3    0    0  0.76275966963E+02 -0.42432388526E+02 -0.10247180254E+03  0.18375665742E+03  0.12509000000E+03 0.  0.
<mgrwt>
<rscale>  2 0.45786310E+03</rscale>
<asrwt>0</asrwt>
<pdfrwt beam="1">  1       21 0.29069355E-01 0.45786310E+03</pdfrwt>
<pdfrwt beam="2">  1       21 0.38990435E-01 0.45786310E+03</pdfrwt>
<totfact> 0.66446384E+04</totfact>
</mgrwt>
</event>
<event>
 7    0  0.4737014E-002  0.4910602E+03  0.7546771E-02  0.1016139E+00
         21   -1    0    0  502  501  0.00000000000E+00  0.00000000000E+00  0.14838793568E+03  0.14838793568E+03  0.00000000000E+00 0.  1.
         21   -1    0    0  501  502 -0.00000000000E+00 -0.00000000000E+00 -0.40626641699E+03  0.40626641699E+03  0.00000000000E+00 0.  1.
      99926    2    1    2    0    0  0.00000000000E+00  0.00000000000E+00 -0.25787848131E+03  0.55465435267E+03  0.49106022015E+03 0.  0.
      99925    2    3    3    0    0  0.40161230127E+02  0.13470306992E+03 -0.11948559920E+03  0.32107794254E+03  0.26278583546E+03 0.  0.
         25    1    4    4    0    0  0.44766172733E+02  0.33419433612E+02 -0.54622156280E+02  0.14748544613E+03  0.12509000000E+03 0.  0.
         25    1    4    4    0    0 -0.46049426062E+01  0.10128363631E+03 -0.64863442917E+02  0.17359249640E+03  0.12509000000E+03 0.  0.
         25    1    3    3    0    0 -0.40161230127E+02 -0.13470306992E+03 -0.13839288212E+03  0.23357641014E+03  0.12509000000E+03 0.  0.
<mgrwt>
<rscale>  2 0.49106022E+03</rscale>
<asrwt>0</asrwt>
<pdfrwt beam="1">  1       21 0.21821756E-01 0.49106022E+03</pdfrwt>
<pdfrwt beam="2">  1       21 0.59745060E-01 0.49106022E+03</pdfrwt>
<totfact> 0.46718774E+04</totfact>
</mgrwt>
</event>
<event>
 7    0  0.4737014E-002  0.4548326E+03  0.7546771E-02  0.1026291E+00
         21   -1    0    0  502  501  0.00000000000E+00  0.00000000000E+00  0.76421780680E+03  0.76421780680E+03  0.00000000000E+00 0.  1.
         21   -1    0    0  501  502 -0.00000000000E+00 -0.00000000000E+00 -0.67674662969E+02  0.67674662969E+02  0.00000000000E+00 0.  1.
      99926    2    1    2    0    0  0.00000000000E+00 -0.14210854715E-13  0.69654314383E+03  0.83189246977E+03  0.45483263960E+03 0.  0.
      99925    2    3    3    0    0  0.35170557240E+02 -0.10739348154E+03  0.43664374120E+03  0.52210942381E+03  0.26300221621E+03 0.  0.
         25    1    4    4    0    0  0.50048447575E+02 -0.57402821151E+02  0.27144102205E+03  0.30842773470E+03  0.12509000000E+03 0.  0.
         25    1    3    3    0    0 -0.35170557240E+02  0.10739348154E+03  0.25989940263E+03  0.30978304596E+03  0.12509000000E+03 0.  0.
         25    1    4    4    0    0 -0.14877890335E+02 -0.49990660392E+02  0.16520271915E+03  0.21368168911E+03  0.12509000000E+03 0.  0.
<mgrwt>
<rscale>  2 0.45483264E+03</rscale>
<asrwt>0</asrwt>
<pdfrwt beam="1">  1       21 0.11238497E+00 0.45483264E+03</pdfrwt>
<pdfrwt beam="2">  1       21 0.99521568E-02 0.45483264E+03</pdfrwt>
<totfact> 0.46321369E+04</totfact>
</mgrwt>
</event>
<event>
 7    0  0.4737014E-002  0.4590426E+03  0.7546771E-02  0.1025059E+00
         21   -1    0    0  502  501  0.00000000000E+00  0.00000000000E+00  0.92469120879E+03  0.92469120879E+03  0.00000000000E+00 0.  1.
         21   -1    0    0  501  502 -0.00000000000E+00 -0.00000000000E+00 -0.56970394503E+02  0.56970394503E+02  0.00000000000E+00 0.  1.
      99926    2    1    2    0    0  0.00000000000E+00  0.00000000000E+00  0.86772081429E+03  0.98166160330E+03  0.45904258172E+03 0.  0.
      99925    2    3    3    0    0  0.87224894203E+02 -0.76633389891E+02  0.56932205285E+03  0.63790269426E+03  0.26327056209E+03 0.  0.
         25    1    4    4    0    0  0.14528699557E+02 -0.43986243028E+02  0.20535202490E+03  0.24487309962E+03  0.12509000000E+03 0.  0.
         25    1    3    3    0    0 -0.87224894203E+02  0.76633389891E+02  0.29839876144E+03  0.34375890904E+03  0.12509000000E+03 0.  0.
         25    1    4    4    0    0  0.72696194646E+02 -0.32647146862E+02  0.36397002796E+03  0.39302959464E+03  0.12509000000E+03 0.  0.
<mgrwt>
<rscale>  2 0.45904258E+03</rscale>
<asrwt>0</asrwt>
<pdfrwt beam="1">  1       21 0.13598399E+00 0.45904258E+03</pdfrwt>
<pdfrwt beam="2">  1       21 0.83779998E-02 0.45904258E+03</pdfrwt>
<totfact> 0.38648626E+04</totfact>
</mgrwt>
</event>
<event>
 7    0  0.4737014E-002  0.4547612E+03  0.7546771E-02  0.1026312E+00
         21   -1    0    0  502  501  0.00000000000E+00  0.00000000000E+00  0.12464390941E+02  0.12464390941E+02  0.00000000000E+00 0. -1.
         21   -1    0    0  501  502 -0.00000000000E+00 -0.00000000000E+00 -0.41479712865E+04  0.41479712865E+04  0.00000000000E+00 0. -1.
      99926    2    1    2    0    0  0.46629367034E-14  0.00000000000E+00 -0.41355068955E+04  0.41604356774E+04  0.45476119327E+03 0.  0.
      99925    2    3    3    0    0 -0.12675134176E+01 -0.10266965764E+03 -0.21746036716E+04  0.21928656972E+04  0.26308966602E+03 0.  0.
         25    1    4    4    0    0 -0.39455684562E+02 -0.47379704535E+02 -0.98723905777E+03  0.99704064748E+03  0.12509000000E+03 0.  0.
         25    1    3    3    0    0  0.12675134176E+01  0.10266965764E+03 -0.19609032239E+04  0.19675699802E+04  0.12509000000E+03 0.  0.
         25    1    4    4    0    0  0.38188171145E+02 -0.55289953108E+02 -0.11873646138E+04  0.11958250498E+04  0.12509000000E+03 0.  0.
<mgrwt>
<rscale>  2 0.45476119E+03</rscale>
<asrwt>0</asrwt>
<pdfrwt beam="1">  1       21 0.18329997E-02 0.45476119E+03</pdfrwt>
<pdfrwt beam="2">  1       21 0.60999543E+00 0.45476119E+03</pdfrwt>
<totfact> 0.31448871E+02</totfact>
</mgrwt>
</event>
<event>
 7    0  0.4737014E-002  0.4597798E+03  0.7546771E-02  0.1024845E+00
         21   -1    0    0  502  501  0.00000000000E+00  0.00000000000E+00  0.47491568365E+03  0.47491568365E+03  0.00000000000E+00 0. -1.
         21   -1    0    0  501  502 -0.00000000000E+00 -0.00000000000E+00 -0.11128155706E+03  0.11128155706E+03  0.00000000000E+00 0. -1.
      99926    2    1    2    0    0  0.00000000000E+00  0.00000000000E+00  0.36363412658E+03  0.58619724071E+03  0.45977975923E+03 0.  0.
      99925    2    3    3    0    0 -0.11177409021E+03 -0.15496801442E+02  0.18612814118E+03  0.34147396627E+03  0.26311059766E+03 0.  0.
         25    1    4    4    0    0 -0.55701512436E+02  0.27119931495E+02  0.66563705337E+02  0.15464922936E+03  0.12509000000E+03 0.  0.
         25    1    4    4    0    0 -0.56072577777E+02 -0.42616732937E+02  0.11956443585E+03  0.18682473692E+03  0.12509000000E+03 0.  0.
         25    1    3    3    0    0  0.11177409021E+03  0.15496801442E+02  0.17750598540E+03  0.24472327444E+03  0.12509000000E+03 0.  0.
<mgrwt>
<rscale>  2 0.45977976E+03</rscale>
<asrwt>0</asrwt>
<pdfrwt beam="1">  1       21 0.69840541E-01 0.45977976E+03</pdfrwt>
<pdfrwt beam="2">  1       21 0.16364935E-01 0.45977976E+03</pdfrwt>
<totfact> 0.57338754E+04</totfact>
</mgrwt>
</event>
<event>
 7    0  0.4737014E-002  0.4640077E+03  0.7546771E-02  0.1023625E+00
         21   -1    0    0  502  501  0.00000000000E+00  0.00000000000E+00  0.40896097032E+03  0.40896097032E+03  0.00000000000E+00 0. -1.
         21   -1    0    0  501  502 -0.00000000000E+00 -0.00000000000E+00 -0.13161594036E+03  0.13161594036E+03  0.00000000000E+00 0. -1.
      99926    2    1    2    0    0  0.00000000000E+00  0.00000000000E+00  0.27734502996E+03  0.54057691069E+03  0.46400768390E+03 0.  0.
      99925    2    3    3    0    0 -0.76534624812E+02 -0.79981257547E+02  0.23131633456E+03  0.36731208663E+03  0.26297599130E+03 0.  0.
         25    1    4    4    0    0 -0.52252152943E+02 -0.76567865328E+02  0.14946601110E+03  0.21582521183E+03  0.12509000000E+03 0.  0.
         25    1    4    4    0    0 -0.24282471869E+02 -0.34133922187E+01  0.81850323458E+02  0.15148687480E+03  0.12509000000E+03 0.  0.
         25    1    3    3    0    0  0.76534624812E+02  0.79981257547E+02  0.46028695404E+02  0.17326482405E+03  0.12509000000E+03 0.  0.
<mgrwt>
<rscale>  2 0.46400768E+03</rscale>
<asrwt>0</asrwt>
<pdfrwt beam="1">  1       21 0.60141319E-01 0.46400768E+03</pdfrwt>
<pdfrwt beam="2">  1       21 0.19355285E-01 0.46400768E+03</pdfrwt>
<totfact> 0.58227202E+04</totfact>
</mgrwt>
</event>
<event>
 7    0  0.4737014E-002  0.4522541E+03  0.7546771E-02  0.1027052E+00
         21   -1    0    0  502  501  0.00000000000E+00  0.00000000000E+00  0.14072909562E+03  0.14072909562E+03  0.00000000000E+00 0.  1.
         21   -1    0    0  501  502 -0.00000000000E+00 -0.00000000000E+00 -0.36334669898E+03  0.36334669898E+03  0.00000000000E+00 0.  1.
      99926    2    1    2    0    0  0.00000000000E+00  0.00000000000E+00 -0.22261760336E+03  0.50407579461E+03  0.45225414247E+03 0.  0.
      99925    2    3    3    0    0 -0.10841870274E+03 -0.21262278271E+02 -0.13535956569E+03  0.31574583730E+03  0.26299528925E+03 0.  0.
         25    1    4    4    0    0 -0.76289349387E+02 -0.28203179121E+02 -0.38312308012E+02  0.15404812621E+03  0.12509000000E+03 0.  0.
         25    1    3    3    0    0  0.10841870274E+03  0.21262278271E+02 -0.87258037671E+02  0.18832995731E+03  0.12509000000E+03 0.  0.
         25    1    4    4    0    0 -0.32129353349E+02  0.69409008499E+01 -0.97047257675E+02  0.16169771110E+03  0.12509000000E+03 0.  0.
<mgrwt>
<rscale>  2 0.45225414E+03</rscale>
<asrwt>0</asrwt>
<pdfrwt beam="1">  1       21 0.20695456E-01 0.45225414E+03</pdfrwt>
<pdfrwt beam="2">  1       21 0.53433337E-01 0.45225414E+03</pdfrwt>
<totfact> 0.66421106E+04</totfact>
</mgrwt>
</event>
<event>
 7    0  0.4737014E-002  0.4495686E+03  0.7546771E-02  0.1027851E+00
         21   -1    0    0  502  501  0.00000000000E+00  0.00000000000E+00  0.32589816871E+03  0.32589816871E+03  0.00000000000E+00 0. -1.
         21   -1    0    0  501  502 -0.00000000000E+00 -0.00000000000E+00 -0.15504223402E+03  0.15504223402E+03  0.00000000000E+00 0. -1.
      99926    2    1    2    0    0 -0.35527136788E-14  0.00000000000E+00  0.17085593469E+03  0.48094040274E+03  0.44956859384E+03 0.  0.
      99925    2    3    3    0    0 -0.68794720792E+01  0.92516593070E+02  0.16687493002E+03  0.32515207317E+03  0.26319190962E+03 0.  0.
         25    1    4    4    0    0  0.24455090646E+02  0.46246582623E+02  0.11782953187E+03  0.17963325010E+03  0.12509000000E+03 0.  0.
         25    1    4    4    0    0 -0.31334562725E+02  0.46270010447E+02  0.49045398149E+02  0.14551882307E+03  0.12509000000E+03 0.  0.
         25    1    3    3    0    0  0.68794720792E+01 -0.92516593070E+02  0.39810046715E+01  0.15578832956E+03  0.12509000000E+03 0.  0.
<mgrwt>
<rscale>  2 0.44956859E+03</rscale>
<asrwt>0</asrwt>
<pdfrwt beam="1">  1       21 0.47926201E-01 0.44956859E+03</pdfrwt>
<pdfrwt beam="2">  1       21 0.22800329E-01 0.44956859E+03</pdfrwt>
<totfact> 0.69583816E+04</totfact>
</mgrwt>
</event>
<event>
 7    0  0.4737014E-002  0.4488167E+03  0.7546771E-02  0.1028075E+00
         21   -1    0    0  502  501  0.00000000000E+00  0.00000000000E+00  0.22876424228E+03  0.22876424228E+03  0.00000000000E+00 0. -1.
         21   -1    0    0  501  502 -0.00000000000E+00 -0.00000000000E+00 -0.22013543643E+03  0.22013543643E+03  0.00000000000E+00 0. -1.
      99926    2    1    2    0    0  0.35527136788E-14 -0.14210854715E-13  0.86288058509E+01  0.44889967872E+03  0.44881673906E+03 0.  0.
      99925    2    3    3    0    0 -0.12625385417E+02  0.89929057206E+02  0.62599923260E+02  0.28517116776E+03  0.26297758239E+03 0.  0.
         25    1    4    4    0    0  0.22163268281E+02  0.22730436560E+02  0.86766086621E+01  0.12934710992E+03  0.12509000000E+03 0.  0.
         25    1    4    4    0    0 -0.34788653698E+02  0.67198620646E+02  0.53923314598E+02  0.15582405783E+03  0.12509000000E+03 0.  0.
         25    1    3    3    0    0  0.12625385417E+02 -0.89929057206E+02 -0.53971117409E+02  0.16372851096E+03  0.12509000000E+03 0.  0.
<mgrwt>
<rscale>  2 0.44881674E+03</rscale>
<asrwt>0</asrwt>
<pdfrwt beam="1">  1       21 0.33641801E-01 0.44881674E+03</pdfrwt>
<pdfrwt beam="2">  1       21 0.32372858E-01 0.44881674E+03</pdfrwt>
<totfact> 0.72506729E+04</totfact>
</mgrwt>
</event>
<event>
 7    0  0.4737014E-002  0.4691834E+03  0.7546771E-02  0.1022151E+00
         21   -1    0    0  502  501  0.00000000000E+00  0.00000000000E+00  0.17526307378E+03  0.17526307378E+03  0.00000000000E+00 0.  1.
         21   -1    0    0  501  502 -0.00000000000E+00 -0.00000000000E+00 -0.31400380538E+03  0.31400380538E+03  0.00000000000E+00 0.  1.
      99926    2    1    2    0    0  0.00000000000E+00 -0.35527136788E-14 -0.13874073160E+03  0.48926687916E+03  0.46918342728E+03 0.  0.
      99925    2    3    3    0    0 -0.10170709012E+03 -0.28863975112E+02 -0.15349465580E+02  0.28420500101E+03  0.26336175741E+03 0.  0.
         25    1    4    4    0    0 -0.67996127581E+02  0.41915495532E+00  0.26757467613E+02  0.14486931777E+03  0.12509000000E+03 0.  0.
         25    1    3    3    0    0  0.10170709012E+03  0.28863975112E+02 -0.12339126602E+03  0.20506187815E+03  0.12509000000E+03 0.  0.
         25    1    4    4    0    0 -0.33710962543E+02 -0.29283130068E+02 -0.42106933193E+02  0.13933568324E+03  0.12509000000E+03 0.  0.
<mgrwt>
<rscale>  2 0.46918343E+03</rscale>
<asrwt>0</asrwt>
<pdfrwt beam="1">  1       21 0.25773982E-01 0.46918343E+03</pdfrwt>
<pdfrwt beam="2">  1       21 0.46177029E-01 0.46918343E+03</pdfrwt>
<totfact> 0.59093167E+04</totfact>
</mgrwt>
</event>
<event>
 6    0  0.4737014E-002  0.4563486E+03  0.7546771E-02  0.1025846E+00
         21   -1    0    0  502  501  0.00000000000E+00  0.00000000000E+00  0.76650835722E+02  0.76650835722E+02  0.00000000000E+00 0.  1.
         21   -1    0    0  501  502 -0.00000000000E+00 -0.00000000000E+00 -0.67922942515E+03  0.67922942515E+03  0.00000000000E+00 0.  1.
      99926    2    1    2    0    0  0.00000000000E+00 -0.17763568394E-14 -0.60257858943E+03  0.75588026087E+03  0.45634856452E+03 0.  0.
         25    1    3    3    0    0 -0.12876718840E+02  0.36714403404E+02 -0.24342261615E+03  0.27643414308E+03  0.12509000000E+03 0.  0.
         25    1    3    3    0    0 -0.15648082350E+02 -0.29619309080E+02 -0.31985185479E+03  0.34507228672E+03  0.12509000000E+03 0.  0.
         25    1    3    3    0    0  0.28524801191E+02 -0.70950943241E+01 -0.39304118485E+02  0.13437383107E+03  0.12509000000E+03 0.  0.
<mgrwt>
<rscale>  2 0.45634856E+03</rscale>
<asrwt>0</asrwt>
<pdfrwt beam="1">  1       21 0.11272181E-01 0.45634856E+03</pdfrwt>
<pdfrwt beam="2">  1       21 0.99886686E-01 0.45634856E+03</pdfrwt>
<totfact> 0.49445777E+04</totfact>
</mgrwt>
</event>
<event>
 7    0  0.4737014E-002  0.4532404E+03  0.7546771E-02  0.1026760E+00
         21   -1    0    0  502  501  0.00000000000E+00  0.00000000000E+00  0.10272264658E+03  0.10272264658E+03  0.00000000000E+00 0.  1.
         21   -1    0    0  501  502 -0.00000000000E+00 -0.00000000000E+00 -0.49995504273E+03  0.49995504273E+03  0.00000000000E+00 0.  1.
      99926    2    1    2    0    0  0.00000000000E+00 -0.71054273576E-14 -0.39723239615E+03  0.60267768931E+03  0.45324035637E+03 0.  0.
      99925    2    3    3    0    0 -0.16415363044E+02  0.52196805934E+02 -0.12110601421E+03  0.29463993578E+03  0.26296778203E+03 0.  0.
         25    1    4    4    0    0 -0.42614105417E+02  0.59478117964E+01 -0.51678776154E+02  0.14201951433E+03  0.12509000000E+03 0.  0.
         25    1    4    4    0    0  0.26198742373E+02  0.46248994138E+02 -0.69427238052E+02  0.15262042145E+03  0.12509000000E+03 0.  0.
         25    1    3    3    0    0  0.16415363044E+02 -0.52196805934E+02 -0.27612638195E+03  0.30803775353E+03  0.12509000000E+03 0.  0.
<mgrwt>
<rscale>  2 0.45324036E+03</rscale>
<asrwt>0</asrwt>
<pdfrwt beam="1">  1       21 0.15106271E-01 0.45324036E+03</pdfrwt>
<pdfrwt beam="2">  1       21 0.73522801E-01 0.45324036E+03</pdfrwt>
<totfact> 0.59334336E+04</totfact>
</mgrwt>
</event>
<event>
 7    0  0.4737014E-002  0.4612767E+03  0.7546771E-02  0.1024412E+00
         21   -1    0    0  502  501  0.00000000000E+00  0.00000000000E+00  0.12804537210E+03  0.12804537210E+03  0.00000000000E+00 0.  1.
         21   -1    0    0  501  502 -0.00000000000E+00 -0.00000000000E+00 -0.41543121695E+03  0.41543121695E+03  0.00000000000E+00 0.  1.
      99926    2    1    2    0    0  0.00000000000E+00 -0.35527136788E-14 -0.28738584486E+03  0.54347658905E+03  0.46127668380E+03 0.  0.
      99925    2    3    3    0    0  0.11350329281E+03 -0.23448458004E+02 -0.21128385445E+03  0.35673653254E+03  0.26303471033E+03 0.  0.
         25    1    4    4    0    0  0.32767063999E+02  0.21855038918E+02 -0.10879962529E+03  0.17040008736E+03  0.12509000000E+03 0.  0.
         25    1    3    3    0    0 -0.11350329281E+03  0.23448458004E+02 -0.76101990411E+02  0.18674005651E+03  0.12509000000E+03 0.  0.
         25    1    4    4    0    0  0.80736228812E+02 -0.45303496921E+02 -0.10248422916E+03  0.18633644518E+03  0.12509000000E+03 0.  0.
<mgrwt>
<rscale>  2 0.46127668E+03</rscale>
<asrwt>0</asrwt>
<pdfrwt beam="1">  1       21 0.18830201E-01 0.46127668E+03</pdfrwt>
<pdfrwt beam="2">  1       21 0.61092827E-01 0.46127668E+03</pdfrwt>
<totfact> 0.59298509E+04</totfact>
</mgrwt>
</event>
<event>
 7    0  0.4737014E-002  0.4569493E+03  0.7546771E-02  0.1025670E+00
         21   -1    0    0  502  501  0.00000000000E+00  0.00000000000E+00  0.43700252634E+03  0.43700252634E+03  0.00000000000E+00 0. -1.
         21   -1    0    0  501  502 -0.00000000000E+00 -0.00000000000E+00 -0.11945161445E+03  0.11945161445E+03  0.00000000000E+00 0. -1.
      99926    2    1    2    0    0  0.88817841970E-15  0.00000000000E+00  0.31755091189E+03  0.55645414079E+03  0.45694926322E+03 0.  0.
      99925    2    3    3    0    0 -0.26473520821E+01 -0.33456851879E+02  0.33347295583E+03  0.42596510296E+03  0.26289862544E+03 0.  0.
         25    1    4    4    0    0  0.12487305245E+02 -0.21572439743E+02  0.10682242466E+03  0.16637259828E+03  0.12509000000E+03 0.  0.
         25    1    4    4    0    0 -0.15134657327E+02 -0.11884412137E+02  0.22665053117E+03  0.25959250468E+03  0.12509000000E+03 0.  0.
         25    1    3    3    0    0  0.26473520821E+01  0.33456851879E+02 -0.15922043944E+02  0.13048903783E+03  0.12509000000E+03 0.  0.
<mgrwt>
<rscale>  2 0.45694926E+03</rscale>
<asrwt>0</asrwt>
<pdfrwt beam="1">  1       21 0.64265077E-01 0.45694926E+03</pdfrwt>
<pdfrwt beam="2">  1       21 0.17566414E-01 0.45694926E+03</pdfrwt>
<totfact> 0.60503649E+04</totfact>
</mgrwt>
</event>
<event>
 7    0  0.4737014E-002  0.4343070E+03  0.7546771E-02  0.1032508E+00
         21   -1    0    0  502  501  0.00000000000E+00  0.00000000000E+00  0.44006553876E+03  0.44006553876E+03  0.00000000000E+00 0.  1.
         21   -1    0    0  501  502 -0.00000000000E+00 -0.00000000000E+00 -0.10715593485E+03  0.10715593485E+03  0.00000000000E+00 0.  1.
      99926    2    1    2    0    0  0.00000000000E+00  0.14210854715E-13  0.33290960391E+03  0.54722147361E+03  0.43430696150E+03 0.  0.
      99925    2    3    3    0    0 -0.28892770554E+02 -0.79690922589E+02  0.16744345723E+03  0.32314115513E+03  0.26305409983E+03 0.  0.
         25    1    4    4    0    0 -0.53066352168E+02 -0.53307008519E+02  0.96083477000E+02  0.17474901299E+03  0.12509000000E+03 0.  0.
         25    1    4    4    0    0  0.24173581614E+02 -0.26383914070E+02  0.71359980233E+02  0.14839214214E+03  0.12509000000E+03 0.  0.
         25    1    3    3    0    0  0.28892770554E+02  0.79690922589E+02  0.16546614668E+03  0.22408031848E+03  0.12509000000E+03 0.  0.
<mgrwt>
<rscale>  2 0.43430696E+03</rscale>
<asrwt>0</asrwt>
<pdfrwt beam="1">  1       21 0.64715520E-01 0.43430696E+03</pdfrwt>
<pdfrwt beam="2">  1       21 0.15758226E-01 0.43430696E+03</pdfrwt>
<totfact> 0.73341007E+04</totfact>
</mgrwt>
</event>
<event>
 7    0  0.4737014E-002  0.4334383E+03  0.7546771E-02  0.1032779E+00
         21   -1    0    0  502  501  0.00000000000E+00  0.00000000000E+00  0.58265147163E+03  0.58265147163E+03  0.00000000000E+00 0.  1.
         21   -1    0    0  501  502 -0.00000000000E+00 -0.00000000000E+00 -0.80609414141E+02  0.80609414141E+02  0.00000000000E+00 0.  1.
      99926    2    1    2    0    0  0.71054273576E-14  0.00000000000E+00  0.50204205749E+03  0.66326088577E+03  0.43343831753E+03 0.  0.
      99925    2    3    3    0    0  0.42894823860E+02  0.80061068511E+02  0.30544598523E+03  0.41316637497E+03  0.26298186802E+03 0.  0.
         25    1    4    4    0    0  0.28800932835E+02  0.76280786976E+02  0.19541331556E+03  0.24593113709E+03  0.12509000000E+03 0.  0.
         25    1    4    4    0    0  0.14093891026E+02  0.37802815348E+01  0.11003266968E+03  0.16723523788E+03  0.12509000000E+03 0.  0.
         25    1    3    3    0    0 -0.42894823860E+02 -0.80061068511E+02  0.19659607225E+03  0.25009451079E+03  0.12509000000E+03 0.  0.
<mgrwt>
<rscale>  2 0.43343832E+03</rscale>
<asrwt>0</asrwt>
<pdfrwt beam="1">  1       21 0.85684038E-01 0.43343832E+03</pdfrwt>
<pdfrwt beam="2">  1       21 0.11854326E-01 0.43343832E+03</pdfrwt>
<totfact> 0.65358953E+04</totfact>
</mgrwt>
</event>
<event>
 7    0  0.4737014E-002  0.4424239E+03  0.7546771E-02  0.1030006E+00
         21   -1    0    0  502  501  0.00000000000E+00  0.00000000000E+00  0.73779887386E+03  0.73779887386E+03  0.00000000000E+00 0. -1.
         21   -1    0    0  501  502 -0.00000000000E+00 -0.00000000000E+00 -0.66325285801E+02  0.66325285801E+02  0.00000000000E+00 0. -1.
      99926    2    1    2    0    0 -0.17763568394E-14  0.00000000000E+00  0.67147358806E+03  0.80412415966E+03  0.44242387446E+03 0.  0.
      99925    2    3    3    0    0 -0.15318295196E+02  0.58172403200E+02  0.28002634084E+03  0.38879641665E+03  0.26292436816E+03 0.  0.
         25    1    4    4    0    0 -0.39334113909E+02  0.24869337004E+02  0.17667000166E+03  0.22141692354E+03  0.12509000000E+03 0.  0.
         25    1    4    4    0    0  0.24015818714E+02  0.33303066197E+02  0.10335633918E+03  0.16737949311E+03  0.12509000000E+03 0.  0.
         25    1    3    3    0    0  0.15318295196E+02 -0.58172403200E+02  0.39144724721E+03  0.41532774301E+03  0.12509000000E+03 0.  0.
<mgrwt>
<rscale>  2 0.44242387E+03</rscale>
<asrwt>0</asrwt>
<pdfrwt beam="1">  1       21 0.10849983E+00 0.44242387E+03</pdfrwt>
<pdfrwt beam="2">  1       21 0.97537189E-02 0.44242387E+03</pdfrwt>
<totfact> 0.52564914E+04</totfact>
</mgrwt>
</event>
<event>
 7    0  0.4737014E-002  0.4532577E+03  0.7546771E-02  0.1026755E+00
         21   -1    0    0  502  501  0.00000000000E+00  0.00000000000E+00  0.95583456099E+02  0.95583456099E+02  0.00000000000E+00 0.  1.
         21   -1    0    0  501  502 -0.00000000000E+00 -0.00000000000E+00 -0.53733817030E+03  0.53733817030E+03  0.00000000000E+00 0.  1.
      99926    2    1    2    0    0  0.88817841970E-15 -0.17763568394E-14 -0.44175471421E+03  0.63292162640E+03  0.45325771659E+03 0.  0.
      99925    2    3    3    0    0 -0.67303409354E+01 -0.11534809584E+02 -0.43299171554E+03  0.50681592643E+03  0.26306312594E+03 0.  0.
         25    1    4    4    0    0 -0.26246187887E+02 -0.38428560638E+02 -0.23553553782E+03  0.27072147002E+03  0.12509000000E+03 0.  0.
         25    1    4    4    0    0  0.19515846952E+02  0.26893751053E+02 -0.19745617772E+03  0.23609445641E+03  0.12509000000E+03 0.  0.
         25    1    3    3    0    0  0.67303409354E+01  0.11534809584E+02 -0.87629986669E+01  0.12610569998E+03  0.12509000000E+03 0.  0.
<mgrwt>
<rscale>  2 0.45325772E+03</rscale>
<asrwt>0</asrwt>
<pdfrwt beam="1">  1       21 0.14056391E-01 0.45325772E+03</pdfrwt>
<pdfrwt beam="2">  1       21 0.79020318E-01 0.45325772E+03</pdfrwt>
<totfact> 0.57482708E+04</totfact>
</mgrwt>
</event>
<event>
 7    0  0.4737014E-002  0.4498656E+03  0.7546771E-02  0.1027762E+00
         21   -1    0    0  502  501  0.00000000000E+00  0.00000000000E+00  0.64328290915E+02  0.64328290915E+02  0.00000000000E+00 0. -1.
         21   -1    0    0  501  502 -0.00000000000E+00 -0.00000000000E+00 -0.78650893169E+03  0.78650893169E+03  0.00000000000E+00 0. -1.
      99926    2    1    2    0    0  0.00000000000E+00  0.14210854715E-13 -0.72218064078E+03  0.85083722261E+03  0.44986564823E+03 0.  0.
      99925    2    3    3    0    0 -0.45557556376E+02 -0.75891855941E+02 -0.57455395956E+03  0.63805515135E+03  0.26299630982E+03 0.  0.
         25    1    4    4    0    0 -0.20774477881E+02 -0.79955301259E+02 -0.31045324202E+03  0.34475085600E+03  0.12509000000E+03 0.  0.
         25    1    4    4    0    0 -0.24783078495E+02  0.40634453187E+01 -0.26410071754E+03  0.29330429535E+03  0.12509000000E+03 0.  0.
         25    1    3    3    0    0  0.45557556376E+02  0.75891855941E+02 -0.14762668122E+03  0.21278207126E+03  0.12509000000E+03 0.  0.
<mgrwt>
<rscale>  2 0.44986565E+03</rscale>
<asrwt>0</asrwt>
<pdfrwt beam="1">  1       21 0.94600437E-02 0.44986565E+03</pdfrwt>
<pdfrwt beam="2">  1       21 0.11566307E+00 0.44986565E+03</pdfrwt>
<totfact> 0.47277515E+04</totfact>
</mgrwt>
</event>
<event>
 7    0  0.4737014E-002  0.4521240E+03  0.7546771E-02  0.1027091E+00
         21   -1    0    0  502  501  0.00000000000E+00  0.00000000000E+00  0.92414229828E+02  0.92414229828E+02  0.00000000000E+00 0.  1.
         21   -1    0    0  501  502 -0.00000000000E+00 -0.00000000000E+00 -0.55298863464E+03  0.55298863464E+03  0.00000000000E+00 0.  1.
      99926    2    1    2    0    0  0.00000000000E+00 -0.14210854715E-13 -0.46057440482E+03  0.64540286447E+03  0.45212395988E+03 0.  0.
      99925    2    3    3    0    0  0.45893764819E+02 -0.97035246727E+02 -0.32746734651E+03  0.43353716685E+03  0.26305424394E+03 0.  0.
         25    1    4    4    0    0  0.25401064302E+02 -0.94014718254E+01 -0.12308459630E+03  0.17756950101E+03  0.12509000000E+03 0.  0.
         25    1    4    4    0    0  0.20492700517E+02 -0.87633774901E+02 -0.20438275020E+03  0.25596766585E+03  0.12509000000E+03 0.  0.
         25    1    3    3    0    0 -0.45893764819E+02  0.97035246727E+02 -0.13310705831E+03  0.21186569762E+03  0.12509000000E+03 0.  0.
<mgrwt>
<rscale>  2 0.45212396E+03</rscale>
<asrwt>0</asrwt>
<pdfrwt beam="1">  1       21 0.13590328E-01 0.45212396E+03</pdfrwt>
<pdfrwt beam="2">  1       21 0.81321858E-01 0.45212396E+03</pdfrwt>
<totfact> 0.57255318E+04</totfact>
</mgrwt>
</event>
<event>
 7    0  0.4737014E-002  0.4590563E+03  0.7546771E-02  0.1025055E+00
         21   -1    0    0  502  501  0.00000000000E+00  0.00000000000E+00  0.27788387331E+03  0.27788387331E+03  0.00000000000E+00 0.  1.
         21   -1    0    0  501  502 -0.00000000000E+00 -0.00000000000E+00 -0.18958699668E+03  0.18958699668E+03  0.00000000000E+00 0.  1.
      99926    2    1    2    0    0  0.00000000000E+00 -0.14210854715E-13  0.88296876632E+02  0.46747086999E+03  0.45905628835E+03 0.  0.
      99925    2    3    3    0    0 -0.61994546287E+02  0.84333998512E+02  0.22916544541E+01  0.28308010717E+03  0.26300864685E+03 0.  0.
         25    1    4    4    0    0  0.10496501605E+02  0.40831925344E+02 -0.24427707862E+01  0.13202612583E+03  0.12509000000E+03 0.  0.
         25    1    3    3    0    0  0.61994546287E+02 -0.84333998512E+02  0.86005222178E+02  0.18439076283E+03  0.12509000000E+03 0.  0.
         25    1    4    4    0    0 -0.72491047892E+02  0.43502073168E+02  0.47344252403E+01  0.15105398133E+03  0.12509000000E+03 0.  0.
<mgrwt>
<rscale>  2 0.45905629E+03</rscale>
<asrwt>0</asrwt>
<pdfrwt beam="1">  1       21 0.40865275E-01 0.45905629E+03</pdfrwt>
<pdfrwt beam="2">  1       21 0.27880441E-01 0.45905629E+03</pdfrwt>
<totfact> 0.65489873E+04</totfact>
</mgrwt>
</event>
<event>
 7    0  0.4737014E-002  0.4558113E+03  0.7546771E-02  0.1026003E+00
         21   -1    0    0  502  501  0.00000000000E+00  0.00000000000E+00  0.41582179553E+03  0.41582179553E+03  0.00000000000E+00 0.  1.
         21   -1    0    0  501  502 -0.00000000000E+00 -0.00000000000E+00 -0.12491165566E+03  0.12491165566E+03  0.00000000000E+00 0.  1.
      99926    2    1    2    0    0  0.00000000000E+00  0.00000000000E+00  0.29091013987E+03  0.54073345119E+03  0.45581131596E+03 0.  0.
      99925    2    3    3    0    0  0.59416468597E+02 -0.97516049119E+02  0.19328855964E+03  0.34524130914E+03  0.26228114243E+03 0.  0.
         25    1    4    4    0    0  0.55793406930E+00 -0.59224891904E+02  0.12445813853E+03  0.18613230633E+03  0.12509000000E+03 0.  0.
         25    1    3    3    0    0 -0.59416468597E+02  0.97516049119E+02  0.97621580235E+02  0.19549214205E+03  0.12509000000E+03 0.  0.
         25    1    4    4    0    0  0.58858534528E+02 -0.38291157216E+02  0.68830421104E+02  0.15910900282E+03  0.12509000000E+03 0.  0.
<mgrwt>
<rscale>  2 0.45581132E+03</rscale>
<asrwt>0</asrwt>
<pdfrwt beam="1">  1       21 0.61150264E-01 0.45581132E+03</pdfrwt>
<pdfrwt beam="2">  1       21 0.18369361E-01 0.45581132E+03</pdfrwt>
<totfact> 0.62083465E+04</totfact>
</mgrwt>
</event>
<event>
 7    0  0.4737014E-002  0.4576795E+03  0.7546771E-02  0.1025456E+00
         21   -1    0    0  502  501  0.00000000000E+00  0.00000000000E+00  0.19137734941E+03  0.19137734941E+03  0.00000000000E+00 0.  1.
         21   -1    0    0  501  502 -0.00000000000E+00 -0.00000000000E+00 -0.27363547440E+03  0.27363547440E+03  0.00000000000E+00 0.  1.
      99926    2    1    2    0    0  0.00000000000E+00  0.00000000000E+00 -0.82258124986E+02  0.46501282381E+03  0.45767950269E+03 0.  0.
      99925    2    3    3    0    0 -0.11236038900E+03 -0.25407904444E+02 -0.40422077941E+02  0.28988949139E+03  0.26292880065E+03 0.  0.
         25    1    3    3    0    0  0.11236038900E+03  0.25407904444E+02 -0.41836047045E+02  0.17512333242E+03  0.12509000000E+03 0.  0.
         25    1    4    4    0    0 -0.56452983273E+02 -0.25484085908E+02  0.18379632005E+02  0.14078954836E+03  0.12509000000E+03 0.  0.
         25    1    4    4    0    0 -0.55907405732E+02  0.76181464495E-01 -0.58801709946E+02  0.14909994303E+03  0.12509000000E+03 0.  0.
<mgrwt>
<rscale>  2 0.45767950E+03</rscale>
<asrwt>0</asrwt>
<pdfrwt beam="1">  1       21 0.28143728E-01 0.45767950E+03</pdfrwt>
<pdfrwt beam="2">  1       21 0.40240511E-01 0.45767950E+03</pdfrwt>
<totfact> 0.66383875E+04</totfact>
</mgrwt>
</event>
<event>
 7    0  0.4737014E-002  0.4582694E+03  0.7546771E-02  0.1025284E+00
         21   -1    0    0  502  501  0.00000000000E+00  0.00000000000E+00  0.23871089404E+03  0.23871089404E+03  0.00000000000E+00 0. -1.
         21   -1    0    0  501  502 -0.00000000000E+00 -0.00000000000E+00 -0.21994270258E+03  0.21994270258E+03  0.00000000000E+00 0. -1.
      99926    2    1    2    0    0 -0.14210854715E-13  0.00000000000E+00  0.18768191462E+02  0.45865359661E+03  0.45826943677E+03 0.  0.
      99925    2    3    3    0    0  0.77447760714E+02 -0.66213868506E+02 -0.44328437946E+02  0.28541640440E+03  0.26289747330E+03 0.  0.
         25    1    3    3    0    0 -0.77447760714E+02  0.66213868506E+02  0.63096629408E+02  0.17323719221E+03  0.12509000000E+03 0.  0.
         25    1    4    4    0    0  0.44475035918E+02 -0.65202407106E+01  0.91575180283E+01  0.13323629609E+03  0.12509000000E+03 0.  0.
         25    1    4    4    0    0  0.32972724796E+02 -0.59693627796E+02 -0.53485955974E+02  0.15218010831E+03  0.12509000000E+03 0.  0.
<mgrwt>
<rscale>  2 0.45826944E+03</rscale>
<asrwt>0</asrwt>
<pdfrwt beam="1">  1       21 0.35104543E-01 0.45826944E+03</pdfrwt>
<pdfrwt beam="2">  1       21 0.32344515E-01 0.45826944E+03</pdfrwt>
<totfact> 0.66526523E+04</totfact>
</mgrwt>
</event>
<event>
 7    0  0.4737014E-002  0.4530831E+03  0.7546771E-02  0.1026807E+00
         21   -1    0    0  502  501  0.00000000000E+00  0.00000000000E+00  0.15955610233E+03  0.15955610233E+03  0.00000000000E+00 0.  1.
         21   -1    0    0  501  502 -0.00000000000E+00 -0.00000000000E+00 -0.32164911637E+03  0.32164911637E+03  0.00000000000E+00 0.  1.
      99926    2    1    2    0    0  0.00000000000E+00  0.00000000000E+00 -0.16209301404E+03  0.48120521871E+03  0.45308312406E+03 0.  0.
      99925    2    3    3    0    0  0.93371736491E+02  0.60461961399E+02 -0.99643983527E+02  0.30253983464E+03  0.26311118969E+03 0.  0.
         25    1    4    4    0    0  0.18768603991E+02  0.35008562749E+02 -0.79167928054E+02  0.15327403203E+03  0.12509000000E+03 0.  0.
         25    1    3    3    0    0 -0.93371736491E+02 -0.60461961399E+02 -0.62449030514E+02  0.17866538407E+03  0.12509000000E+03 0.  0.
         25    1    4    4    0    0  0.74603132500E+02  0.25453398650E+02 -0.20476055473E+02  0.14926580261E+03  0.12509000000E+03 0.  0.
<mgrwt>
<rscale>  2 0.45308312E+03</rscale>
<asrwt>0</asrwt>
<pdfrwt beam="1">  1       21 0.23464133E-01 0.45308312E+03</pdfrwt>
<pdfrwt beam="2">  1       21 0.47301340E-01 0.45308312E+03</pdfrwt>
<totfact> 0.67635780E+04</totfact>
</mgrwt>
</event>
<event>
 7    0  0.4737014E-002  0.4506679E+03  0.7546771E-02  0.1027523E+00
         21   -1    0    0  502  501  0.00000000000E+00  0.00000000000E+00  0.12768036992E+03  0.12768036992E+03  0.00000000000E+00 0.  1.
         21   -1    0    0  501  502 -0.00000000000E+00 -0.00000000000E+00 -0.39767575466E+03  0.39767575466E+03  0.00000000000E+00 0.  1.
      99926    2    1    2    0    0  0.00000000000E+00  0.00000000000E+00 -0.26999538474E+03  0.52535612458E+03  0.45066789308E+03 0.  0.
      99925    2    3    3    0    0  0.51096218485E+02 -0.82412664833E+02 -0.22877574370E+03  0.36180418244E+03  0.26298527461E+03 0.  0.
         25    1    3    3    0    0 -0.51096218485E+02  0.82412664833E+02 -0.41219641048E+02  0.16355194214E+03  0.12509000000E+03 0.  0.
         25    1    4    4    0    0  0.12991638801E+02 -0.13412332575E+02 -0.14285923400E+03  0.19080079188E+03  0.12509000000E+03 0.  0.
         25    1    4    4    0    0  0.38104579684E+02 -0.69000332259E+02 -0.85916509693E+02  0.17100339056E+03  0.12509000000E+03 0.  0.
<mgrwt>
<rscale>  2 0.45066789E+03</rscale>
<asrwt>0</asrwt>
<pdfrwt beam="1">  1       21 0.18776525E-01 0.45066789E+03</pdfrwt>
<pdfrwt beam="2">  1       21 0.58481728E-01 0.45066789E+03</pdfrwt>
<totfact> 0.65750938E+04</totfact>
</mgrwt>
</event>
<event>
 7    0  0.4737014E-002  0.4555128E+03  0.7546771E-02  0.1026091E+00
         21   -1    0    0  502  501  0.00000000000E+00  0.00000000000E+00  0.91898808446E+02  0.91898808446E+02  0.00000000000E+00 0. -1.
         21   -1    0    0  501  502 -0.00000000000E+00 -0.00000000000E+00 -0.56445767122E+03  0.56445767122E+03  0.00000000000E+00 0. -1.
      99926    2    1    2    0    0  0.71054273576E-14  0.00000000000E+00 -0.47255886277E+03  0.65635647966E+03  0.45551284242E+03 0.  0.
      99925    2    3    3    0    0 -0.42776447737E+02  0.78244787585E+02 -0.39884292136E+03  0.48596393469E+03  0.26293192775E+03 0.  0.
         25    1    3    3    0    0  0.42776447737E+02 -0.78244787585E+02 -0.73715941411E+02  0.17039254498E+03  0.12509000000E+03 0.  0.
         25    1    4    4    0    0 -0.49584370312E+02  0.53970022961E+02 -0.25775181869E+03  0.29572771479E+03  0.12509000000E+03 0.  0.
         25    1    4    4    0    0  0.68079225752E+01  0.24274764624E+02 -0.14109110267E+03  0.19023621989E+03  0.12509000000E+03 0.  0.
<mgrwt>
<rscale>  2 0.45551284E+03</rscale>
<asrwt>0</asrwt>
<pdfrwt beam="1">  1       21 0.13514530E-01 0.45551284E+03</pdfrwt>
<pdfrwt beam="2">  1       21 0.83008484E-01 0.45551284E+03</pdfrwt>
<totfact> 0.55113506E+04</totfact>
</mgrwt>
</event>
<event>
 7    0  0.4737014E-002  0.4361437E+03  0.7546771E-02  0.1031937E+00
         21   -1    0    0  502  501  0.00000000000E+00  0.00000000000E+00  0.15995088996E+03  0.15995088996E+03  0.00000000000E+00 0.  1.
         21   -1    0    0  501  502 -0.00000000000E+00 -0.00000000000E+00 -0.29731210186E+03  0.29731210186E+03  0.00000000000E+00 0.  1.
      99926    2    1    2    0    0  0.00000000000E+00  0.00000000000E+00 -0.13736121191E+03  0.45726299182E+03  0.43614371617E+03 0.  0.
      99925    2    3    3    0    0 -0.62172220933E+02  0.27474761844E+02 -0.15668716253E+03  0.31359236830E+03  0.26300011210E+03 0.  0.
         25    1    3    3    0    0  0.62172220933E+02 -0.27474761844E+02  0.19325950622E+02  0.14367062352E+03  0.12509000000E+03 0.  0.
         25    1    4    4    0    0 -0.20512203800E+01  0.37209688901E+02 -0.56944773475E+02  0.14240429691E+03  0.12509000000E+03 0.  0.
         25    1    4    4    0    0 -0.60121000553E+02 -0.97349270571E+01 -0.99742389054E+02  0.17118807139E+03  0.12509000000E+03 0.  0.
<mgrwt>
<rscale>  2 0.43614372E+03</rscale>
<asrwt>0</asrwt>
<pdfrwt beam="1">  1       21 0.23522190E-01 0.43614372E+03</pdfrwt>
<pdfrwt beam="2">  1       21 0.43722368E-01 0.43614372E+03</pdfrwt>
<totfact> 0.79661589E+04</totfact>
</mgrwt>
</event>
<event>
 7    0  0.4737014E-002  0.4548888E+03  0.7546771E-02  0.1026274E+00
         21   -1    0    0  502  501  0.00000000000E+00  0.00000000000E+00  0.34824166988E+03  0.34824166988E+03  0.00000000000E+00 0.  1.
         21   -1    0    0  501  502 -0.00000000000E+00 -0.00000000000E+00 -0.14854900613E+03  0.14854900613E+03  0.00000000000E+00 0.  1.
      99926    2    1    2    0    0  0.00000000000E+00  0.00000000000E+00  0.19969266375E+03  0.49679067601E+03  0.45488879500E+03 0.  0.
      99925    2    3    3    0    0  0.35987301558E+02  0.95895333552E+02  0.17649254925E+03  0.33346047585E+03  0.26373332771E+03 0.  0.
         25    1    4    4    0    0  0.35694858901E+02  0.88299821238E+02  0.10679570738E+03  0.19006265440E+03  0.12509000000E+03 0.  0.
         25    1    3    3    0    0 -0.35987301558E+02 -0.95895333552E+02  0.23200114496E+02  0.16333020016E+03  0.12509000000E+03 0.  0.
         25    1    4    4    0    0  0.29244265731E+00  0.75955123138E+01  0.69696841873E+02  0.14339782145E+03  0.12509000000E+03 0.  0.
<mgrwt>
<rscale>  2 0.45488879E+03</rscale>
<asrwt>0</asrwt>
<pdfrwt beam="1">  1       21 0.51212010E-01 0.45488879E+03</pdfrwt>
<pdfrwt beam="2">  1       21 0.21845442E-01 0.45488879E+03</pdfrwt>
<totfact> 0.65554567E+04</totfact>
</mgrwt>
</event>
<event>
 7    0  0.4737014E-002  0.4446365E+03  0.7546771E-02  0.1029334E+00
         21   -1    0    0  502  501  0.00000000000E+00  0.00000000000E+00  0.76531649302E+02  0.76531649302E+02  0.00000000000E+00 0. -1.
         21   -1    0    0  501  502 -0.00000000000E+00 -0.00000000000E+00 -0.64581638912E+03  0.64581638912E+03  0.00000000000E+00 0. -1.
      99926    2    1    2    0    0  0.14210854715E-13  0.00000000000E+00 -0.56928473982E+03  0.72234803842E+03  0.44463645107E+03 0.  0.
      99925    2    3    3    0    0 -0.73854837980E+02 -0.71534345826E+02 -0.37290759398E+03  0.46782261487E+03  0.26310877145E+03 0.  0.
         25    1    3    3    0    0  0.73854837980E+02  0.71534345826E+02 -0.19637714585E+03  0.25452542356E+03  0.12509000000E+03 0.  0.
         25    1    4    4    0    0  0.38993916106E+01 -0.43720869529E+02 -0.17172944241E+03  0.21694522161E+03  0.12509000000E+03 0.  0.
         25    1    4    4    0    0 -0.77754229590E+02 -0.27813476298E+02 -0.20117815156E+03  0.25087739326E+03  0.12509000000E+03 0.  0.
<mgrwt>
<rscale>  2 0.44463645E+03</rscale>
<asrwt>0</asrwt>
<pdfrwt beam="1">  1       21 0.11254654E-01 0.44463645E+03</pdfrwt>
<pdfrwt beam="2">  1       21 0.94972999E-01 0.44463645E+03</pdfrwt>
<totfact> 0.56144645E+04</totfact>
</mgrwt>
</event>
<event>
 7    0  0.4737014E-002  0.4536217E+03  0.7546771E-02  0.1026648E+00
         21   -1    0    0  502  501  0.00000000000E+00  0.00000000000E+00  0.63418766279E+03  0.63418766279E+03  0.00000000000E+00 0.  1.
         21   -1    0    0  501  502 -0.00000000000E+00 -0.00000000000E+00 -0.81116605968E+02  0.81116605968E+02  0.00000000000E+00 0.  1.
      99926    2    1    2    0    0  0.00000000000E+00  0.00000000000E+00  0.55307105682E+03  0.71530426875E+03  0.45362165183E+03 0.  0.
      99925    2    3    3    0    0  0.25723389109E+02  0.75330401698E+02  0.47292087238E+03  0.54675776973E+03  0.26259007038E+03 0.  0.
         25    1    3    3    0    0 -0.25723389109E+02 -0.75330401698E+02  0.80150184436E+02  0.16854649902E+03  0.12509000000E+03 0.  0.
         25    1    4    4    0    0 -0.23358514978E+02  0.54117515092E+02  0.24455173954E+03  0.28094018415E+03  0.12509000000E+03 0.  0.
         25    1    4    4    0    0  0.49081904087E+02  0.21212886606E+02  0.22836913284E+03  0.26581758558E+03  0.12509000000E+03 0.  0.
<mgrwt>
<rscale>  2 0.45362165E+03</rscale>
<asrwt>0</asrwt>
<pdfrwt beam="1">  1       21 0.93262889E-01 0.45362165E+03</pdfrwt>
<pdfrwt beam="2">  1       21 0.11928913E-01 0.45362165E+03</pdfrwt>
<totfact> 0.52648468E+04</totfact>
</mgrwt>
</event>
<event>
 7    0  0.4737014E-002  0.4624425E+03  0.7546771E-02  0.1024075E+00
         21   -1    0    0  502  501  0.00000000000E+00  0.00000000000E+00  0.11531010441E+03  0.11531010441E+03  0.00000000000E+00 0.  1.
         21   -1    0    0  501  502 -0.00000000000E+00 -0.00000000000E+00 -0.46364767388E+03  0.46364767388E+03  0.00000000000E+00 0.  1.
      99926    2    1    2    0    0  0.00000000000E+00  0.00000000000E+00 -0.34833756946E+03  0.57895777829E+03  0.46244247939E+03 0.  0.
      99925    2    3    3    0    0  0.64853169268E+02 -0.90545481297E+02 -0.16234978247E+03  0.32867117706E+03  0.26317840529E+03 0.  0.
         25    1    4    4    0    0  0.73797590659E+01 -0.14066317436E+02 -0.52095267163E+02  0.13643220694E+03  0.12509000000E+03 0.  0.
         25    1    3    3    0    0 -0.64853169268E+02  0.90545481297E+02 -0.18598778699E+03  0.25028660123E+03  0.12509000000E+03 0.  0.
         25    1    4    4    0    0  0.57473410202E+02 -0.76479163861E+02 -0.11025451531E+03  0.19223897012E+03  0.12509000000E+03 0.  0.
<mgrwt>
<rscale>  2 0.46244248E+03</rscale>
<asrwt>0</asrwt>
<pdfrwt beam="1">  1       21 0.16957368E-01 0.46244248E+03</pdfrwt>
<pdfrwt beam="2">  1       21 0.68183482E-01 0.46244248E+03</pdfrwt>
<totfact> 0.56588557E+04</totfact>
</mgrwt>
</event>
<event>
 7    0  0.4737014E-002  0.4879190E+03  0.7546771E-02  0.1016981E+00
         21   -1    0    0  502  501  0.00000000000E+00  0.00000000000E+00  0.18126878172E+03  0.18126878172E+03  0.00000000000E+00 0. -1.
         21   -1    0    0  501  502 -0.00000000000E+00 -0.00000000000E+00 -0.32833141921E+03  0.32833141921E+03  0.00000000000E+00 0. -1.
      99926    2    1    2    0    0  0.99920072216E-15  0.00000000000E+00 -0.14706263749E+03  0.50960020092E+03  0.48791899475E+03 0.  0.
      99925    2    3    3    0    0  0.66252812827E+00 -0.14020055112E+03 -0.67074106541E+02  0.30538877455E+03  0.26288159764E+03 0.  0.
         25    1    3    3    0    0 -0.66252812827E+00  0.14020055112E+03 -0.79988530952E+02  0.20421142637E+03  0.12509000000E+03 0.  0.
         25    1    4    4    0    0  0.26877543664E+02 -0.36047179522E+02 -0.25386281862E+02  0.13532838916E+03  0.12509000000E+03 0.  0.
         25    1    4    4    0    0 -0.26215015536E+02 -0.10415337159E+03 -0.41687824679E+02  0.17006038539E+03  0.12509000000E+03 0.  0.
<mgrwt>
<rscale>  2 0.48791899E+03</rscale>
<asrwt>0</asrwt>
<pdfrwt beam="1">  1       21 0.26657174E-01 0.48791899E+03</pdfrwt>
<pdfrwt beam="2">  1       21 0.48284032E-01 0.48791899E+03</pdfrwt>
<totfact> 0.50156597E+04</totfact>
</mgrwt>
</event>
<event>
 7    0  0.4737014E-002  0.4597157E+03  0.7546771E-02  0.1024864E+00
         21   -1    0    0  502  501  0.00000000000E+00  0.00000000000E+00  0.33409534303E+03  0.33409534303E+03  0.00000000000E+00 0. -1.
         21   -1    0    0  501  502 -0.00000000000E+00 -0.00000000000E+00 -0.15814238601E+03  0.15814238601E+03  0.00000000000E+00 0. -1.
      99926    2    1    2    0    0  0.00000000000E+00  0.00000000000E+00  0.17595295702E+03  0.49223772904E+03  0.45971571521E+03 0.  0.
      99925    2    3    3    0    0 -0.58151912390E+02  0.98690185988E+02  0.13773042424E+03  0.31837034327E+03  0.26318930067E+03 0.  0.
         25    1    4    4    0    0  0.50994304935E+01  0.69903445740E+02  0.59072341601E+02  0.15507915901E+03  0.12509000000E+03 0.  0.
         25    1    3    3    0    0  0.58151912390E+02 -0.98690185988E+02  0.38222532776E+02  0.17386738578E+03  0.12509000000E+03 0.  0.
         25    1    4    4    0    0 -0.63251342883E+02  0.28786740248E+02  0.78658082640E+02  0.16329118425E+03  0.12509000000E+03 0.  0.
<mgrwt>
<rscale>  2 0.45971572E+03</rscale>
<asrwt>0</asrwt>
<pdfrwt beam="1">  1       21 0.49131668E-01 0.45971572E+03</pdfrwt>
<pdfrwt beam="2">  1       21 0.23256233E-01 0.45971572E+03</pdfrwt>
<totfact> 0.63412118E+04</totfact>
</mgrwt>
</event>
<event>
 7    0  0.4737014E-002  0.4614621E+03  0.7546771E-02  0.1024358E+00
         21   -1    0    0  502  501  0.00000000000E+00  0.00000000000E+00  0.33610480227E+02  0.33610480227E+02  0.00000000000E+00 0. -1.
         21   -1    0    0  501  502 -0.00000000000E+00 -0.00000000000E+00 -0.15839353257E+04  0.15839353257E+04  0.00000000000E+00 0. -1.
      99926    2    1    2    0    0  0.00000000000E+00  0.00000000000E+00 -0.15503248455E+04  0.16175458059E+04  0.46146214122E+03 0.  0.
      99925    2    3    3    0    0 -0.92477908618E+02  0.67291769190E+02 -0.85540904351E+03  0.90225857292E+03  0.26318350044E+03 0.  0.
         25    1    3    3    0    0  0.92477908618E+02 -0.67291769190E+02 -0.69491580194E+03  0.71528723299E+03  0.12509000000E+03 0.  0.
         25    1    4    4    0    0 -0.44729487611E+02  0.18700454004E+02 -0.29570184759E+03  0.32471144853E+03  0.12509000000E+03 0.  0.
         25    1    4    4    0    0 -0.47748421008E+02  0.48591315185E+02 -0.55970719593E+03  0.57754712439E+03  0.12509000000E+03 0.  0.
<mgrwt>
<rscale>  2 0.46146214E+03</rscale>
<asrwt>0</asrwt>
<pdfrwt beam="1">  1       21 0.49427178E-02 0.46146214E+03</pdfrwt>
<pdfrwt beam="2">  1       21 0.23293166E+00 0.46146214E+03</pdfrwt>
<totfact> 0.20013017E+04</totfact>
</mgrwt>
</event>
<event>
 7    0  0.4737014E-002  0.4337167E+03  0.7546771E-02  0.1032692E+00
         21   -1    0    0  502  501  0.00000000000E+00  0.00000000000E+00  0.18309709054E+03  0.18309709054E+03  0.00000000000E+00 0.  1.
         21   -1    0    0  501  502 -0.00000000000E+00 -0.00000000000E+00 -0.25684480955E+03  0.25684480955E+03  0.00000000000E+00 0.  1.
      99926    2    1    2    0    0  0.00000000000E+00  0.00000000000E+00 -0.73747719010E+02  0.43994190008E+03  0.43371666949E+03 0.  0.
      99925    2    3    3    0    0  0.30196875820E+02  0.84787859921E+02 -0.64833609089E+02  0.28557933352E+03  0.26315646747E+03 0.  0.
         25    1    4    4    0    0  0.15338704510E+02  0.25756060646E+02 -0.69850648158E+02  0.14637373967E+03  0.12509000000E+03 0.  0.
         25    1    3    3    0    0 -0.30196875820E+02 -0.84787859921E+02 -0.89141099211E+01  0.15436256656E+03  0.12509000000E+03 0.  0.
         25    1    4    4    0    0  0.14858171310E+02  0.59031799275E+02  0.50170390684E+01  0.13920559386E+03  0.12509000000E+03 0.  0.
<mgrwt>
<rscale>  2 0.43371667E+03</rscale>
<asrwt>0</asrwt>
<pdfrwt beam="1">  1       21 0.26926043E-01 0.43371667E+03</pdfrwt>
<pdfrwt beam="2">  1       21 0.37771295E-01 0.43371667E+03</pdfrwt>
<totfact> 0.82861887E+04</totfact>
</mgrwt>
</event>
<event>
 7    0  0.4737014E-002  0.4450315E+03  0.7546771E-02  0.1029214E+00
         21   -1    0    0  502  501  0.00000000000E+00  0.00000000000E+00  0.29916438718E+02  0.29916438718E+02  0.00000000000E+00 0. -1.
         21   -1    0    0  501  502 -0.00000000000E+00 -0.00000000000E+00 -0.16550519989E+04  0.16550519989E+04  0.00000000000E+00 0. -1.
      99926    2    1    2    0    0  0.35527136788E-14 -0.14210854715E-13 -0.16251355602E+04  0.16849684376E+04  0.44503151214E+03 0.  0.
      99925    2    3    3    0    0  0.21316258415E+02 -0.64049179202E+02 -0.13291002560E+04  0.13565767665E+04  0.26312801581E+03 0.  0.
         25    1    3    3    0    0 -0.21316258415E+02  0.64049179202E+02 -0.29603530416E+03  0.32839167108E+03  0.12509000000E+03 0.  0.
         25    1    4    4    0    0 -0.10794979273E+02 -0.67283383081E+02 -0.70425411388E+03  0.71851579679E+03  0.12509000000E+03 0.  0.
         25    1    4    4    0    0  0.32111237688E+02  0.32342038795E+01 -0.62484614211E+03  0.63806096971E+03  0.12509000000E+03 0.  0.
<mgrwt>
<rscale>  2 0.44503151E+03</rscale>
<asrwt>0</asrwt>
<pdfrwt beam="1">  1       21 0.43994760E-02 0.44503151E+03</pdfrwt>
<pdfrwt beam="2">  1       21 0.24339002E+00 0.44503151E+03</pdfrwt>
<totfact> 0.21167708E+04</totfact>
</mgrwt>
</event>
<event>
 7    0  0.4737014E-002  0.4595310E+03  0.7546771E-02  0.1024917E+00
         21   -1    0    0  502  501  0.00000000000E+00  0.00000000000E+00  0.74820303521E+03  0.74820303521E+03  0.00000000000E+00 0. -1.
         21   -1    0    0  501  502 -0.00000000000E+00 -0.00000000000E+00 -0.70558624719E+02  0.70558624719E+02  0.00000000000E+00 0. -1.
      99926    2    1    2    0    0  0.00000000000E+00  0.17763568394E-14  0.67764441049E+03  0.81876165993E+03  0.45953096598E+03 0.  0.
      99925    2    3    3    0    0  0.11330437265E+03  0.11224242002E+02  0.38659837535E+03  0.48213253590E+03  0.26463109017E+03 0.  0.
         25    1    3    3    0    0 -0.11330437265E+03 -0.11224242002E+02  0.29104603514E+03  0.33662912402E+03  0.12509000000E+03 0.  0.
         25    1    4    4    0    0  0.21983514845E+02 -0.22839765759E+02  0.18709410029E+03  0.22728097212E+03  0.12509000000E+03 0.  0.
         25    1    4    4    0    0  0.91320857806E+02  0.34064007761E+02  0.19950427506E+03  0.25485156378E+03  0.12509000000E+03 0.  0.
<mgrwt>
<rscale>  2 0.45953097E+03</rscale>
<asrwt>0</asrwt>
<pdfrwt beam="1">  1       21 0.11002985E+00 0.45953097E+03</pdfrwt>
<pdfrwt beam="2">  1       21 0.10376269E-01 0.45953097E+03</pdfrwt>
<totfact> 0.45240658E+04</totfact>
</mgrwt>
</event>
<event>
 7    0  0.4737014E-002  0.4599957E+03  0.7546771E-02  0.1024782E+00
         21   -1    0    0  502  501  0.00000000000E+00  0.00000000000E+00  0.58670571887E+03  0.58670571887E+03  0.00000000000E+00 0.  1.
         21   -1    0    0  501  502 -0.00000000000E+00 -0.00000000000E+00 -0.90162785513E+02  0.90162785513E+02  0.00000000000E+00 0.  1.
      99926    2    1    2    0    0  0.00000000000E+00  0.00000000000E+00  0.49654293336E+03  0.67686850439E+03  0.45999574733E+03 0.  0.
      99925    2    3    3    0    0  0.60956102053E+02  0.43095375824E+02  0.44510071319E+03  0.52238009734E+03  0.26304650429E+03 0.  0.
         25    1    3    3    0    0 -0.60956102053E+02 -0.43095375824E+02  0.51442220167E+02  0.15448840704E+03  0.12509000000E+03 0.  0.
         25    1    4    4    0    0  0.53478286438E+02  0.55289937532E+02  0.22118805113E+03  0.26549682931E+03  0.12509000000E+03 0.  0.
         25    1    4    4    0    0  0.74778156151E+01 -0.12194561708E+02  0.22391266206E+03  0.25688326803E+03  0.12509000000E+03 0.  0.
<mgrwt>
<rscale>  2 0.45999575E+03</rscale>
<asrwt>0</asrwt>
<pdfrwt beam="1">  1       21 0.86280251E-01 0.45999575E+03</pdfrwt>
<pdfrwt beam="2">  1       21 0.13259233E-01 0.45999575E+03</pdfrwt>
<totfact> 0.52095722E+04</totfact>
</mgrwt>
</event>
<event>
 7    0  0.4737014E-002  0.4484949E+03  0.7546771E-02  0.1028172E+00
         21   -1    0    0  502  501  0.00000000000E+00  0.00000000000E+00  0.84509457271E+03  0.84509457271E+03  0.00000000000E+00 0. -1.
         21   -1    0    0  501  502 -0.00000000000E+00 -0.00000000000E+00 -0.59504484673E+02  0.59504484673E+02  0.00000000000E+00 0. -1.
      99926    2    1    2    0    0  0.00000000000E+00  0.00000000000E+00  0.78559008804E+03  0.90459905738E+03  0.44849489205E+03 0.  0.
      99925    2    3    3    0    0 -0.65655105107E+02 -0.70369971239E+02  0.40312707795E+03  0.49085035604E+03  0.26298308951E+03 0.  0.
         25    1    4    4    0    0 -0.14457495674E+02 -0.71633877567E+02  0.20904925768E+03  0.25434136870E+03  0.12509000000E+03 0.  0.
         25    1    4    4    0    0 -0.51197609433E+02  0.12639063274E+01  0.19407782027E+03  0.23650898733E+03  0.12509000000E+03 0.  0.
         25    1    3    3    0    0  0.65655105107E+02  0.70369971239E+02  0.38246301009E+03  0.41374870135E+03  0.12509000000E+03 0.  0.
<mgrwt>
<rscale>  2 0.44849489E+03</rscale>
<asrwt>0</asrwt>
<pdfrwt beam="1">  1       21 0.12427861E+00 0.44849489E+03</pdfrwt>
<pdfrwt beam="2">  1       21 0.87506600E-02 0.44849489E+03</pdfrwt>
<totfact> 0.45297924E+04</totfact>
</mgrwt>
</event>
<event>
 7    0  0.4737014E-002  0.4603580E+03  0.7546771E-02  0.1024677E+00
         21   -1    0    0  502  501  0.00000000000E+00  0.00000000000E+00  0.13383352474E+03  0.13383352474E+03  0.00000000000E+00 0. -1.
         21   -1    0    0  501  502 -0.00000000000E+00 -0.00000000000E+00 -0.39588272528E+03  0.39588272528E+03  0.00000000000E+00 0. -1.
      99926    2    1    2    0    0  0.00000000000E+00  0.00000000000E+00 -0.26204920055E+03  0.52971625002E+03  0.46035803678E+03 0.  0.
      99925    2    3    3    0    0 -0.10848345593E+03 -0.73059521559E+01 -0.11112777787E+03  0.30555822302E+03  0.26304829878E+03 0.  0.
         25    1    3    3    0    0  0.10848345593E+03  0.73059521559E+01 -0.15092142268E+03  0.22415802701E+03  0.12509000000E+03 0.  0.
         25    1    4    4    0    0 -0.95277451262E+02 -0.66375505694E+00 -0.46441511637E+02  0.16395900522E+03  0.12509000000E+03 0.  0.
         25    1    4    4    0    0 -0.13206004669E+02 -0.66421970990E+01 -0.64686266230E+02  0.14159921780E+03  0.12509000000E+03 0.  0.
<mgrwt>
<rscale>  2 0.46035804E+03</rscale>
<asrwt>0</asrwt>
<pdfrwt beam="1">  1       21 0.19681400E-01 0.46035804E+03</pdfrwt>
<pdfrwt beam="2">  1       21 0.58218049E-01 0.46035804E+03</pdfrwt>
<totfact> 0.60610285E+04</totfact>
</mgrwt>
</event>
<event>
 7    0  0.4737014E-002  0.4606364E+03  0.7546771E-02  0.1024597E+00
         21   -1    0    0  502  501  0.00000000000E+00  0.00000000000E+00  0.25641629394E+03  0.25641629394E+03  0.00000000000E+00 0. -1.
         21   -1    0    0  501  502 -0.00000000000E+00 -0.00000000000E+00 -0.20687637752E+03  0.20687637752E+03  0.00000000000E+00 0. -1.
      99926    2    1    2    0    0  0.53290705182E-14  0.00000000000E+00  0.49539916419E+02  0.46329267147E+03  0.46063640338E+03 0.  0.
      99925    2    3    3    0    0  0.86191412641E+01 -0.56577203590E+02  0.13530480158E+03  0.30118655440E+03  0.26292714135E+03 0.  0.
         25    1    4    4    0    0  0.41546505556E+02 -0.43466418241E+02  0.63009245175E+02  0.15242412774E+03  0.12509000000E+03 0.  0.
         25    1    4    4    0    0 -0.32927364292E+02 -0.13110785348E+02  0.72295556407E+02  0.14876242667E+03  0.12509000000E+03 0.  0.
         25    1    3    3    0    0 -0.86191412641E+01  0.56577203590E+02 -0.85764885163E+02  0.16210611706E+03  0.12509000000E+03 0.  0.
<mgrwt>
<rscale>  2 0.46063640E+03</rscale>
<asrwt>0</asrwt>
<pdfrwt beam="1">  1       21 0.37708279E-01 0.46063640E+03</pdfrwt>
<pdfrwt beam="2">  1       21 0.30422996E-01 0.46063640E+03</pdfrwt>
<totfact> 0.64971168E+04</totfact>
</mgrwt>
</event>
<event>
 7    0  0.4737014E-002  0.4558256E+03  0.7546771E-02  0.1025999E+00
         21   -1    0    0  502  501  0.00000000000E+00  0.00000000000E+00  0.14429032242E+03  0.14429032242E+03  0.00000000000E+00 0.  1.
         21   -1    0    0  501  502 -0.00000000000E+00 -0.00000000000E+00 -0.35999814893E+03  0.35999814893E+03  0.00000000000E+00 0.  1.
      99926    2    1    2    0    0  0.00000000000E+00  0.00000000000E+00 -0.21570782651E+03  0.50428847135E+03  0.45582562007E+03 0.  0.
      99925    2    3    3    0    0 -0.70993544159E+02 -0.58204964113E+01 -0.36853203790E+02  0.27470091581E+03  0.26273270262E+03 0.  0.
         25    1    3    3    0    0  0.70993544159E+02  0.58204964113E+01 -0.17885462272E+03  0.22958755554E+03  0.12509000000E+03 0.  0.
         25    1    4    4    0    0 -0.63548811310E+02  0.25737669038E+02 -0.12421443044E+02  0.14318756711E+03  0.12509000000E+03 0.  0.
         25    1    4    4    0    0 -0.74447328489E+01 -0.31558165449E+02 -0.24431760746E+02  0.13151334870E+03  0.12509000000E+03 0.  0.
<mgrwt>
<rscale>  2 0.45582562E+03</rscale>
<asrwt>0</asrwt>
<pdfrwt beam="1">  1       21 0.21219165E-01 0.45582562E+03</pdfrwt>
<pdfrwt beam="2">  1       21 0.52940904E-01 0.45582562E+03</pdfrwt>
<totfact> 0.64546389E+04</totfact>
</mgrwt>
</event>
<event>
 7    0  0.4737014E-002  0.4576310E+03  0.7546771E-02  0.1025471E+00
         21   -1    0    0  502  501  0.00000000000E+00  0.00000000000E+00  0.31773454745E+02  0.31773454745E+02  0.00000000000E+00 0.  1.
         21   -1    0    0  501  502 -0.00000000000E+00 -0.00000000000E+00 -0.16478076723E+04  0.16478076723E+04  0.00000000000E+00 0.  1.
      99926    2    1    2    0    0  0.00000000000E+00  0.00000000000E+00 -0.16160342176E+04  0.16795811271E+04  0.45763104136E+03 0.  0.
      99925    2    3    3    0    0  0.61994690879E+02  0.51639254751E+02 -0.13182533343E+04  0.13466683504E+04  0.26308522995E+03 0.  0.
         25    1    4    4    0    0  0.84134368880E+01  0.20198174681E+02 -0.46359537181E+03  0.48067341204E+03  0.12509000000E+03 0.  0.
         25    1    4    4    0    0  0.53581253991E+02  0.31441080070E+02 -0.85465796251E+03  0.86599493837E+03  0.12509000000E+03 0.  0.
         25    1    3    3    0    0 -0.61994690879E+02 -0.51639254751E+02 -0.29778088326E+03  0.33291277666E+03  0.12509000000E+03 0.  0.
<mgrwt>
<rscale>  2 0.45763104E+03</rscale>
<asrwt>0</asrwt>
<pdfrwt beam="1">  1       21 0.46725673E-02 0.45763104E+03</pdfrwt>
<pdfrwt beam="2">  1       21 0.24232463E+00 0.45763104E+03</pdfrwt>
<totfact> 0.19292690E+04</totfact>
</mgrwt>
</event>
<event>
 7    0  0.4737014E-002  0.4530847E+03  0.7546771E-02  0.1026806E+00
         21   -1    0    0  502  501  0.00000000000E+00  0.00000000000E+00  0.73825461752E+03  0.73825461752E+03  0.00000000000E+00 0.  1.
         21   -1    0    0  501  502 -0.00000000000E+00 -0.00000000000E+00 -0.69517261435E+02  0.69517261435E+02  0.00000000000E+00 0.  1.
      99926    2    1    2    0    0  0.00000000000E+00 -0.71054273576E-14  0.66873735609E+03  0.80777187896E+03  0.45308471284E+03 0.  0.
      99925    2    3    3    0    0  0.94824937818E+02 -0.57711505171E+02  0.41103511516E+03  0.50055804506E+03  0.26322253687E+03 0.  0.
         25    1    4    4    0    0  0.62502056933E+02 -0.51332955534E+02  0.16296051928E+03  0.22078319318E+03  0.12509000000E+03 0.  0.
         25    1    4    4    0    0  0.32322880885E+02 -0.63785496369E+01  0.24807459588E+03  0.27977485188E+03  0.12509000000E+03 0.  0.
         25    1    3    3    0    0 -0.94824937818E+02  0.57711505171E+02  0.25770224093E+03  0.30721383390E+03  0.12509000000E+03 0.  0.
<mgrwt>
<rscale>  2 0.45308471E+03</rscale>
<asrwt>0</asrwt>
<pdfrwt beam="1">  1       21 0.10856685E+00 0.45308471E+03</pdfrwt>
<pdfrwt beam="2">  1       21 0.10223127E-01 0.45308471E+03</pdfrwt>
<totfact> 0.48110217E+04</totfact>
</mgrwt>
</event>
<event>
 7    0  0.4737014E-002  0.4372230E+03  0.7546771E-02  0.1031602E+00
         21   -1    0    0  502  501  0.00000000000E+00  0.00000000000E+00  0.11278361426E+03  0.11278361426E+03  0.00000000000E+00 0. -1.
         21   -1    0    0  501  502 -0.00000000000E+00 -0.00000000000E+00 -0.42374048696E+03  0.42374048696E+03  0.00000000000E+00 0. -1.
      99926    2    1    2    0    0  0.00000000000E+00  0.44408920985E-15 -0.31095687270E+03  0.53652410123E+03  0.43722298032E+03 0.  0.
      99925    2    3    3    0    0  0.77415111962E+02 -0.31230632877E+01 -0.12950611927E+03  0.30291173618E+03  0.26264202234E+03 0.  0.
         25    1    4    4    0    0  0.47088608430E+02  0.24565567698E+02 -0.33498435487E+02  0.13996591528E+03  0.12509000000E+03 0.  0.
         25    1    3    3    0    0 -0.77415111962E+02  0.31230632877E+01 -0.18145075343E+03  0.23361236505E+03  0.12509000000E+03 0.  0.
         25    1    4    4    0    0  0.30326503532E+02 -0.27688630985E+02 -0.96007683786E+02  0.16294582090E+03  0.12509000000E+03 0.  0.
<mgrwt>
<rscale>  2 0.43722298E+03</rscale>
<asrwt>0</asrwt>
<pdfrwt beam="1">  1       21 0.16585825E-01 0.43722298E+03</pdfrwt>
<pdfrwt beam="2">  1       21 0.62314778E-01 0.43722298E+03</pdfrwt>
<totfact> 0.72431336E+04</totfact>
</mgrwt>
</event>
<event>
 7    0  0.4737014E-002  0.4498890E+03  0.7546771E-02  0.1027755E+00
         21   -1    0    0  502  501  0.00000000000E+00  0.00000000000E+00  0.17132508762E+04  0.17132508762E+04  0.00000000000E+00 0.  1.
         21   -1    0    0  501  502 -0.00000000000E+00 -0.00000000000E+00 -0.29534517031E+02  0.29534517031E+02  0.00000000000E+00 0.  1.
      99926    2    1    2    0    0  0.00000000000E+00 -0.71054273576E-14  0.16837163591E+04  0.17427853932E+04  0.44988904045E+03 0.  0.
      99925    2    3    3    0    0  0.69686373336E+02  0.55273269515E+02  0.13085747656E+04  0.13374583052E+04  0.26175461042E+03 0.  0.
         25    1    4    4    0    0  0.39643163733E+02  0.66638155495E+02  0.67620517290E+03  0.69203552521E+03  0.12509000000E+03 0.  0.
         25    1    4    4    0    0  0.30043209603E+02 -0.11364885980E+02  0.63236959268E+03  0.64542277998E+03  0.12509000000E+03 0.  0.
         25    1    3    3    0    0 -0.69686373336E+02 -0.55273269515E+02  0.37514159355E+03  0.40532708799E+03  0.12509000000E+03 0.  0.
<mgrwt>
<rscale>  2 0.44988904E+03</rscale>
<asrwt>0</asrwt>
<pdfrwt beam="1">  1       21 0.25194859E+00 0.44988904E+03</pdfrwt>
<pdfrwt beam="2">  1       21 0.43433125E-02 0.44988904E+03</pdfrwt>
<totfact> 0.19133204E+04</totfact>
</mgrwt>
</event>
<event>
 7    0  0.4737014E-002  0.4549838E+03  0.7546771E-02  0.1026246E+00
         21   -1    0    0  502  501  0.00000000000E+00  0.00000000000E+00  0.28764094763E+03  0.28764094763E+03  0.00000000000E+00 0.  1.
         21   -1    0    0  501  502 -0.00000000000E+00 -0.00000000000E+00 -0.17992071482E+03  0.17992071482E+03  0.00000000000E+00 0.  1.
      99926    2    1    2    0    0 -0.35527136788E-14  0.00000000000E+00  0.10772023280E+03  0.46756166245E+03  0.45498380151E+03 0.  0.
      99925    2    3    3    0    0 -0.16356852648E+02 -0.11201324316E+03  0.67087586388E+02  0.29403058936E+03  0.26294244610E+03 0.  0.
         25    1    4    4    0    0  0.12020671916E+02 -0.69815334978E+02  0.67924658450E+02  0.15899668197E+03  0.12509000000E+03 0.  0.
         25    1    3    3    0    0  0.16356852648E+02  0.11201324316E+03  0.40632646416E+02  0.17353107309E+03  0.12509000000E+03 0.  0.
         25    1    4    4    0    0 -0.28377524564E+02 -0.42197908184E+02 -0.83707206205E+00  0.13503390739E+03  0.12509000000E+03 0.  0.
<mgrwt>
<rscale>  2 0.45498380E+03</rscale>
<asrwt>0</asrwt>
<pdfrwt beam="1">  1       21 0.42300140E-01 0.45498380E+03</pdfrwt>
<pdfrwt beam="2">  1       21 0.26458929E-01 0.45498380E+03</pdfrwt>
<totfact> 0.67626356E+04</totfact>
</mgrwt>
</event>
<event>
 7    0  0.4737014E-002  0.4418694E+03  0.7546771E-02  0.1030175E+00
         21   -1    0    0  502  501  0.00000000000E+00  0.00000000000E+00  0.16892870365E+03  0.16892870365E+03  0.00000000000E+00 0.  1.
         21   -1    0    0  501  502 -0.00000000000E+00 -0.00000000000E+00 -0.28895117433E+03  0.28895117433E+03  0.00000000000E+00 0.  1.
      99926    2    1    2    0    0  0.00000000000E+00 -0.66613381478E-15 -0.12002247067E+03  0.45787987798E+03  0.44186942550E+03 0.  0.
      99925    2    3    3    0    0 -0.90617559542E+02 -0.19038266434E+01 -0.31961996278E+02  0.28006727465E+03  0.26306072012E+03 0.  0.
         25    1    3    3    0    0  0.90617559542E+02  0.19038266434E+01 -0.88060474395E+02  0.17781260333E+03  0.12509000000E+03 0.  0.
         25    1    4    4    0    0 -0.82145149070E+02 -0.10245379343E+02 -0.36329098311E+02  0.15433763247E+03  0.12509000000E+03 0.  0.
         25    1    4    4    0    0 -0.84724104715E+01  0.83415526997E+01  0.43671020337E+01  0.12572964217E+03  0.12509000000E+03 0.  0.
<mgrwt>
<rscale>  2 0.44186943E+03</rscale>
<asrwt>0</asrwt>
<pdfrwt beam="1">  1       21 0.24842457E-01 0.44186943E+03</pdfrwt>
<pdfrwt beam="2">  1       21 0.42492819E-01 0.44186943E+03</pdfrwt>
<totfact> 0.75956421E+04</totfact>
</mgrwt>
</event>
<event>
 7    0  0.4737014E-002  0.4575666E+03  0.7546771E-02  0.1025489E+00
         21   -1    0    0  502  501  0.00000000000E+00  0.00000000000E+00  0.34297126520E+03  0.34297126520E+03  0.00000000000E+00 0.  1.
         21   -1    0    0  501  502 -0.00000000000E+00 -0.00000000000E+00 -0.15261274853E+03  0.15261274853E+03  0.00000000000E+00 0.  1.
      99926    2    1    2    0    0  0.71054273576E-14  0.00000000000E+00  0.19035851667E+03  0.49558401374E+03  0.45756655232E+03 0.  0.
      99925    2    3    3    0    0  0.56398097009E+02 -0.10103242376E+03  0.11723456378E+03  0.31015770335E+03  0.26280327625E+03 0.  0.
         25    1    3    3    0    0 -0.56398097009E+02  0.10103242376E+03  0.73123952891E+02  0.18542631038E+03  0.12509000000E+03 0.  0.
         25    1    4    4    0    0 -0.37513289243E+01 -0.61529555132E+02  0.81363954475E+02  0.16145451313E+03  0.12509000000E+03 0.  0.
         25    1    4    4    0    0  0.60149425933E+02 -0.39502868624E+02  0.35870609304E+02  0.14870319022E+03  0.12509000000E+03 0.  0.
<mgrwt>
<rscale>  2 0.45756655E+03</rscale>
<asrwt>0</asrwt>
<pdfrwt beam="1">  1       21 0.50436951E-01 0.45756655E+03</pdfrwt>
<pdfrwt beam="2">  1       21 0.22443051E-01 0.45756655E+03</pdfrwt>
<totfact> 0.64262667E+04</totfact>
</mgrwt>
</event>
<event>
 7    0  0.4737014E-002  0.4551933E+03  0.7546771E-02  0.1026185E+00
         21   -1    0    0  502  501  0.00000000000E+00  0.00000000000E+00  0.96754826073E+02  0.96754826073E+02  0.00000000000E+00 0. -1.
         21   -1    0    0  501  502 -0.00000000000E+00 -0.00000000000E+00 -0.53537628026E+03  0.53537628026E+03  0.00000000000E+00 0. -1.
      99926    2    1    2    0    0 -0.14210854715E-13  0.00000000000E+00 -0.43862145419E+03  0.63213110634E+03  0.45519331665E+03 0.  0.
      99925    2    3    3    0    0  0.91606805996E+02  0.66410351493E+02 -0.26707195864E+03  0.39155080953E+03  0.26302559506E+03 0.  0.
         25    1    4    4    0    0  0.88412544013E+02  0.31362274644E+02 -0.14842443639E+03  0.21558685403E+03  0.12509000000E+03 0.  0.
         25    1    4    4    0    0  0.31942619830E+01  0.35048076848E+02 -0.11864752225E+03  0.17596395550E+03  0.12509000000E+03 0.  0.
         25    1    3    3    0    0 -0.91606805996E+02 -0.66410351493E+02 -0.17154949555E+03  0.24058029681E+03  0.12509000000E+03 0.  0.
<mgrwt>
<rscale>  2 0.45519332E+03</rscale>
<asrwt>0</asrwt>
<pdfrwt beam="1">  1       21 0.14228651E-01 0.45519332E+03</pdfrwt>
<pdfrwt beam="2">  1       21 0.78731805E-01 0.45519332E+03</pdfrwt>
<totfact> 0.56656339E+04</totfact>
</mgrwt>
</event>
<event>
 7    0  0.4737014E-002  0.4544650E+03  0.7546771E-02  0.1026399E+00
         21   -1    0    0  502  501  0.00000000000E+00  0.00000000000E+00  0.37203043561E+02  0.37203043561E+02  0.00000000000E+00 0.  1.
         21   -1    0    0  501  502 -0.00000000000E+00 -0.00000000000E+00 -0.13879133550E+04  0.13879133550E+04  0.00000000000E+00 0.  1.
      99926    2    1    2    0    0  0.00000000000E+00  0.00000000000E+00 -0.13507103115E+04  0.14251163986E+04  0.45446496457E+03 0.  0.
      99925    2    3    3    0    0 -0.54482615375E+02  0.86380954531E+02 -0.99934256909E+03  0.10384164850E+04  0.26304600595E+03 0.  0.
         25    1    3    3    0    0  0.54482615375E+02 -0.86380954531E+02 -0.35136774237E+03  0.38669991358E+03  0.12509000000E+03 0.  0.
         25    1    4    4    0    0 -0.60137955181E+02  0.20804835280E+02 -0.52818418716E+03  0.54651208448E+03  0.12509000000E+03 0.  0.
         25    1    4    4    0    0  0.56553398059E+01  0.65576119251E+02 -0.47115838194E+03  0.49190440052E+03  0.12509000000E+03 0.  0.
<mgrwt>
<rscale>  2 0.45446496E+03</rscale>
<asrwt>0</asrwt>
<pdfrwt beam="1">  1       21 0.54710350E-02 0.45446496E+03</pdfrwt>
<pdfrwt beam="2">  1       21 0.20410494E+00 0.45446496E+03</pdfrwt>
<totfact> 0.25777328E+04</totfact>
</mgrwt>
</event>
<event>
 7    0  0.4737014E-002  0.4553547E+03  0.7546771E-02  0.1026137E+00
         21   -1    0    0  502  501  0.00000000000E+00  0.00000000000E+00  0.21818773769E+03  0.21818773769E+03  0.00000000000E+00 0.  1.
         21   -1    0    0  501  502 -0.00000000000E+00 -0.00000000000E+00 -0.23757970485E+03  0.23757970485E+03  0.00000000000E+00 0.  1.
      99926    2    1    2    0    0  0.00000000000E+00  0.00000000000E+00 -0.19391967157E+02  0.45576744254E+03  0.45535471150E+03 0.  0.
      99925    2    3    3    0    0  0.59143708051E+02  0.40749867870E+02  0.75877938278E+02  0.28290219758E+03  0.26290238101E+03 0.  0.
         25    1    3    3    0    0 -0.59143708051E+02 -0.40749867870E+02 -0.95269905436E+02  0.17286524496E+03  0.12509000000E+03 0.  0.
         25    1    4    4    0    0  0.32295096307E+02  0.43000287074E+02  0.41764392240E+01  0.13622389173E+03  0.12509000000E+03 0.  0.
         25    1    4    4    0    0  0.26848611745E+02 -0.22504192040E+01  0.71701499054E+02  0.14667830585E+03  0.12509000000E+03 0.  0.
<mgrwt>
<rscale>  2 0.45535471E+03</rscale>
<asrwt>0</asrwt>
<pdfrwt beam="1">  1       21 0.32086432E-01 0.45535471E+03</pdfrwt>
<pdfrwt beam="2">  1       21 0.34938192E-01 0.45535471E+03</pdfrwt>
<totfact> 0.68296131E+04</totfact>
</mgrwt>
</event>
<event>
 7    0  0.4737014E-002  0.4717357E+03  0.7546771E-02  0.1021431E+00
         21   -1    0    0  502  501  0.00000000000E+00  0.00000000000E+00  0.12278064230E+03  0.12278064230E+03  0.00000000000E+00 0. -1.
         21   -1    0    0  501  502 -0.00000000000E+00 -0.00000000000E+00 -0.45311409764E+03  0.45311409764E+03  0.00000000000E+00 0. -1.
      99926    2    1    2    0    0  0.00000000000E+00  0.00000000000E+00 -0.33033345534E+03  0.57589473995E+03  0.47173568848E+03 0.  0.
      99925    2    3    3    0    0 -0.85416294351E+02 -0.74066577036E+02 -0.13081501861E+03  0.31467277328E+03  0.26291554533E+03 0.  0.
         25    1    4    4    0    0 -0.72579731852E+02 -0.97430274088E+01 -0.66232521255E+02  0.15936435935E+03  0.12509000000E+03 0.  0.
         25    1    3    3    0    0  0.85416294351E+02  0.74066577036E+02 -0.19951843673E+03  0.26122196667E+03  0.12509000000E+03 0.  0.
         25    1    4    4    0    0 -0.12836562499E+02 -0.64323549627E+02 -0.64582497354E+02  0.15530841393E+03  0.12509000000E+03 0.  0.
<mgrwt>
<rscale>  2 0.47173569E+03</rscale>
<asrwt>0</asrwt>
<pdfrwt beam="1">  1       21 0.18055977E-01 0.47173569E+03</pdfrwt>
<pdfrwt beam="2">  1       21 0.66634427E-01 0.47173569E+03</pdfrwt>
<totfact> 0.52839864E+04</totfact>
</mgrwt>
</event>
<event>
 7    0  0.4737014E-002  0.4516323E+03  0.7546771E-02  0.1027236E+00
         21   -1    0    0  502  501  0.00000000000E+00  0.00000000000E+00  0.52304512951E+02  0.52304512951E+02  0.00000000000E+00 0. -1.
         21   -1    0    0  501  502 -0.00000000000E+00 -0.00000000000E+00 -0.97492434600E+03  0.97492434600E+03  0.00000000000E+00 0. -1.
      99926    2    1    2    0    0 -0.14210854715E-13 -0.22204460493E-15 -0.92261983305E+03  0.10272288590E+04  0.45163234198E+03 0.  0.
      99925    2    3    3    0    0  0.80395808261E+02  0.19271508841E+01 -0.41028059152E+03  0.49374389533E+03  0.26265123358E+03 0.  0.
         25    1    4    4    0    0  0.67419633650E+02  0.27590927162E+02 -0.24369784196E+03  0.28344807733E+03  0.12509000000E+03 0.  0.
         25    1    3    3    0    0 -0.80395808261E+02 -0.19271508841E+01 -0.51233924153E+03  0.53348496362E+03  0.12509000000E+03 0.  0.
         25    1    4    4    0    0  0.12976174611E+02 -0.25663776278E+02 -0.16658274956E+03  0.21029581800E+03  0.12509000000E+03 0.  0.
<mgrwt>
<rscale>  2 0.45163234E+03</rscale>
<asrwt>0</asrwt>
<pdfrwt beam="1">  1       21 0.76918411E-02 0.45163234E+03</pdfrwt>
<pdfrwt beam="2">  1       21 0.14337121E+00 0.45163234E+03</pdfrwt>
<totfact> 0.39143256E+04</totfact>
</mgrwt>
</event>
<event>
 7    0  0.4737014E-002  0.4573269E+03  0.7546771E-02  0.1025559E+00
         21   -1    0    0  502  501  0.00000000000E+00  0.00000000000E+00  0.58776584129E+03  0.58776584129E+03  0.00000000000E+00 0. -1.
         21   -1    0    0  501  502 -0.00000000000E+00 -0.00000000000E+00 -0.88958861028E+02  0.88958861028E+02  0.00000000000E+00 0. -1.
      99926    2    1    2    0    0  0.00000000000E+00  0.00000000000E+00  0.49880698026E+03  0.67672470232E+03  0.45732692811E+03 0.  0.
      99925    2    3    3    0    0  0.37593369515E+02 -0.10802221269E+03  0.33483817611E+03  0.44089566106E+03  0.26304052900E+03 0.  0.
         25    1    4    4    0    0  0.21249916984E+02 -0.10440933708E+02  0.15189720905E+03  0.19819395118E+03  0.12509000000E+03 0.  0.
         25    1    4    4    0    0  0.16343452531E+02 -0.97581278981E+02  0.18294096706E+03  0.24270170988E+03  0.12509000000E+03 0.  0.
         25    1    3    3    0    0 -0.37593369515E+02  0.10802221269E+03  0.16396880415E+03  0.23582904125E+03  0.12509000000E+03 0.  0.
<mgrwt>
<rscale>  2 0.45732693E+03</rscale>
<asrwt>0</asrwt>
<pdfrwt beam="1">  1       21 0.86436151E-01 0.45732693E+03</pdfrwt>
<pdfrwt beam="2">  1       21 0.13082186E-01 0.45732693E+03</pdfrwt>
<totfact> 0.53203042E+04</totfact>
</mgrwt>
</event>
<event>
 7    0  0.4737014E-002  0.4560940E+03  0.7546771E-02  0.1025920E+00
         21   -1    0    0  502  501  0.00000000000E+00  0.00000000000E+00  0.69072204180E+02  0.69072204180E+02  0.00000000000E+00 0.  1.
         21   -1    0    0  501  502 -0.00000000000E+00 -0.00000000000E+00 -0.75291413537E+03  0.75291413537E+03  0.00000000000E+00 0.  1.
      99926    2    1    2    0    0  0.14210854715E-13  0.35527136788E-14 -0.68384193119E+03  0.82198633955E+03  0.45609402052E+03 0.  0.
      99925    2    3    3    0    0 -0.89480706631E+02 -0.13106290280E+02 -0.30409373024E+03  0.41206588882E+03  0.26295765486E+03 0.  0.
         25    1    4    4    0    0 -0.54373029854E+02  0.24169702309E+02 -0.11739758615E+03  0.18157726240E+03  0.12509000000E+03 0.  0.
         25    1    3    3    0    0  0.89480706631E+02  0.13106290280E+02 -0.37974820095E+03  0.40992045073E+03  0.12509000000E+03 0.  0.
         25    1    4    4    0    0 -0.35107676777E+02 -0.37275992589E+02 -0.18669614409E+03  0.23048862642E+03  0.12509000000E+03 0.  0.
<mgrwt>
<rscale>  2 0.45609402E+03</rscale>
<asrwt>0</asrwt>
<pdfrwt beam="1">  1       21 0.10157678E-01 0.45609402E+03</pdfrwt>
<pdfrwt beam="2">  1       21 0.11072266E+00 0.45609402E+03</pdfrwt>
<totfact> 0.46320769E+04</totfact>
</mgrwt>
</event>
<event>
 7    0  0.4737014E-002  0.4536892E+03  0.7546771E-02  0.1026628E+00
         21   -1    0    0  502  501  0.00000000000E+00  0.00000000000E+00  0.31441886559E+03  0.31441886559E+03  0.00000000000E+00 0. -1.
         21   -1    0    0  501  502 -0.00000000000E+00 -0.00000000000E+00 -0.16366217522E+03  0.16366217522E+03  0.00000000000E+00 0. -1.
      99926    2    1    2    0    0  0.00000000000E+00  0.00000000000E+00  0.15075669036E+03  0.47808104081E+03  0.45368921289E+03 0.  0.
      99925    2    3    3    0    0  0.10837328800E+02  0.10093374292E+03  0.45218192226E+02  0.28549092984E+03  0.26297398722E+03 0.  0.
         25    1    4    4    0    0  0.41799280950E+02  0.32098895569E+02  0.19060144722E+02  0.13707047896E+03  0.12509000000E+03 0.  0.
         25    1    3    3    0    0 -0.10837328800E+02 -0.10093374292E+03  0.10553849814E+03  0.19259011097E+03  0.12509000000E+03 0.  0.
         25    1    4    4    0    0 -0.30961952150E+02  0.68834847351E+02  0.26158047504E+02  0.14842045088E+03  0.12509000000E+03 0.  0.
<mgrwt>
<rscale>  2 0.45368921E+03</rscale>
<asrwt>0</asrwt>
<pdfrwt beam="1">  1       21 0.46238068E-01 0.45368921E+03</pdfrwt>
<pdfrwt beam="2">  1       21 0.24067967E-01 0.45368921E+03</pdfrwt>
<totfact> 0.67539996E+04</totfact>
</mgrwt>
</event>
<event>
 7    0  0.4737014E-002  0.4627474E+03  0.7546771E-02  0.1023987E+00
         21   -1    0    0  502  501  0.00000000000E+00  0.00000000000E+00  0.12247063935E+03  0.12247063935E+03  0.00000000000E+00 0. -1.
         21   -1    0    0  501  502 -0.00000000000E+00 -0.00000000000E+00 -0.43711526344E+03  0.43711526344E+03  0.00000000000E+00 0. -1.
      99926    2    1    2    0    0 -0.35527136788E-14 -0.14210854715E-13 -0.31464462409E+03  0.55958590279E+03  0.46274738588E+03 0.  0.
      99925    2    3    3    0    0 -0.95897855942E+01 -0.11979791310E+03 -0.19917307988E+03  0.35119998774E+03  0.26311216557E+03 0.  0.
         25    1    4    4    0    0  0.33337729079E+02 -0.66494199207E+02 -0.11614782341E+03  0.18620071883E+03  0.12509000000E+03 0.  0.
         25    1    4    4    0    0 -0.42927514674E+02 -0.53303713891E+02 -0.83025256470E+02  0.16499926892E+03  0.12509000000E+03 0.  0.
         25    1    3    3    0    0  0.95897855942E+01  0.11979791310E+03 -0.11547154421E+03  0.20838591505E+03  0.12509000000E+03 0.  0.
<mgrwt>
<rscale>  2 0.46274739E+03</rscale>
<asrwt>0</asrwt>
<pdfrwt beam="1">  1       21 0.18010388E-01 0.46274739E+03</pdfrwt>
<pdfrwt beam="2">  1       21 0.64281656E-01 0.46274739E+03</pdfrwt>
<totfact> 0.57624079E+04</totfact>
</mgrwt>
</event>
<event>
 7    0  0.4737014E-002  0.4525588E+03  0.7546771E-02  0.1026962E+00
         21   -1    0    0  502  501  0.00000000000E+00  0.00000000000E+00  0.36035233116E+03  0.36035233116E+03  0.00000000000E+00 0. -1.
         21   -1    0    0  501  502 -0.00000000000E+00 -0.00000000000E+00 -0.14208972103E+03  0.14208972103E+03  0.00000000000E+00 0. -1.
      99926    2    1    2    0    0 -0.88817841970E-15  0.14210854715E-13  0.21826261013E+03  0.50244205219E+03  0.45255877941E+03 0.  0.
      99925    2    3    3    0    0 -0.61225049452E+01  0.10460437636E+03  0.97400269812E+02  0.29937857928E+03  0.26298509569E+03 0.  0.
         25    1    4    4    0    0 -0.46244877316E+01  0.94364220201E+02  0.65337552471E+02  0.16983078580E+03  0.12509000000E+03 0.  0.
         25    1    3    3    0    0  0.61225049452E+01 -0.10460437636E+03  0.12086234032E+03  0.20306347290E+03  0.12509000000E+03 0.  0.
         25    1    4    4    0    0 -0.14980172136E+01  0.10240156157E+02  0.32062717342E+02  0.12954779349E+03  0.12509000000E+03 0.  0.
<mgrwt>
<rscale>  2 0.45255878E+03</rscale>
<asrwt>0</asrwt>
<pdfrwt beam="1">  1       21 0.52992990E-01 0.45255878E+03</pdfrwt>
<pdfrwt beam="2">  1       21 0.20895547E-01 0.45255878E+03</pdfrwt>
<totfact> 0.66376329E+04</totfact>
</mgrwt>
</event>
<event>
 7    0  0.4737014E-002  0.4506902E+03  0.7546771E-02  0.1027516E+00
         21   -1    0    0  502  501  0.00000000000E+00  0.00000000000E+00  0.54569152198E+03  0.54569152198E+03  0.00000000000E+00 0.  1.
         21   -1    0    0  501  502 -0.00000000000E+00 -0.00000000000E+00 -0.93057013259E+02  0.93057013259E+02  0.00000000000E+00 0.  1.
      99926    2    1    2    0    0  0.00000000000E+00 -0.17763568394E-14  0.45263450872E+03  0.63874853524E+03  0.45069024039E+03 0.  0.
      99925    2    3    3    0    0  0.96166793628E+02 -0.15710670530E+02  0.21553430457E+03  0.35351373324E+03  0.26272047080E+03 0.  0.
         25    1    3    3    0    0 -0.96166793628E+02  0.15710670530E+02  0.23710020415E+03  0.28523480200E+03  0.12509000000E+03 0.  0.
         25    1    4    4    0    0  0.42163710541E+02 -0.14857420951E+02  0.57212906325E+02  0.14463521768E+03  0.12509000000E+03 0.  0.
         25    1    4    4    0    0  0.54003083087E+02 -0.85324957822E+00  0.15832139825E+03  0.20887851555E+03  0.12509000000E+03 0.  0.
<mgrwt>
<rscale>  2 0.45069024E+03</rscale>
<asrwt>0</asrwt>
<pdfrwt beam="1">  1       21 0.80248752E-01 0.45069024E+03</pdfrwt>
<pdfrwt beam="2">  1       21 0.13684855E-01 0.45069024E+03</pdfrwt>
<totfact> 0.58312478E+04</totfact>
</mgrwt>
</event>
<event>
 7    0  0.4737014E-002  0.4574295E+03  0.7546771E-02  0.1025529E+00
         21   -1    0    0  502  501  0.00000000000E+00  0.00000000000E+00  0.12606890073E+03  0.12606890073E+03  0.00000000000E+00 0. -1.
         21   -1    0    0  501  502 -0.00000000000E+00 -0.00000000000E+00 -0.41493521024E+03  0.41493521024E+03  0.00000000000E+00 0. -1.
      99926    2    1    2    0    0  0.00000000000E+00 -0.35527136788E-14 -0.28886630951E+03  0.54100411096E+03  0.45742945173E+03 0.  0.
      99925    2    3    3    0    0  0.10740358237E+03  0.14006567523E+02 -0.13444536080E+03  0.31467459247E+03  0.26308331507E+03 0.  0.
         25    1    4    4    0    0  0.63872120775E+02 -0.30270047875E+02 -0.53877611804E+02  0.15344780469E+03  0.12509000000E+03 0.  0.
         25    1    3    3    0    0 -0.10740358237E+03 -0.14006567523E+02 -0.15442094871E+03  0.22632951849E+03  0.12509000000E+03 0.  0.
         25    1    4    4    0    0  0.43531461596E+02  0.44276615398E+02 -0.80567748992E+02  0.16122678778E+03  0.12509000000E+03 0.  0.
<mgrwt>
<rscale>  2 0.45742945E+03</rscale>
<asrwt>0</asrwt>
<pdfrwt beam="1">  1       21 0.18539544E-01 0.45742945E+03</pdfrwt>
<pdfrwt beam="2">  1       21 0.61019884E-01 0.45742945E+03</pdfrwt>
<totfact> 0.61278242E+04</totfact>
</mgrwt>
</event>
<event>
 7    0  0.4737014E-002  0.4538079E+03  0.7546771E-02  0.1026593E+00
         21   -1    0    0  502  501  0.00000000000E+00  0.00000000000E+00  0.62924334593E+03  0.62924334593E+03  0.00000000000E+00 0.  1.
         21   -1    0    0  501  502 -0.00000000000E+00 -0.00000000000E+00 -0.81821121503E+02  0.81821121503E+02  0.00000000000E+00 0.  1.
      99926    2    1    2    0    0  0.00000000000E+00  0.22204460493E-15  0.54742222443E+03  0.71106446744E+03  0.45380787240E+03 0.  0.
      99925    2    3    3    0    0 -0.93531005819E+02 -0.87021634224E+00  0.24834074676E+03  0.37365367225E+03  0.26304967963E+03 0.  0.
         25    1    4    4    0    0 -0.83967706020E+02 -0.20878750486E+02  0.13866079371E+03  0.20581744748E+03  0.12509000000E+03 0.  0.
         25    1    4    4    0    0 -0.95632997989E+01  0.20008534144E+02  0.10967995305E+03  0.16783622476E+03  0.12509000000E+03 0.  0.
         25    1    3    3    0    0  0.93531005819E+02  0.87021634224E+00  0.29908147767E+03  0.33741079519E+03  0.12509000000E+03 0.  0.
<mgrwt>
<rscale>  2 0.45380787E+03</rscale>
<asrwt>0</asrwt>
<pdfrwt beam="1">  1       21 0.92535784E-01 0.45380787E+03</pdfrwt>
<pdfrwt beam="2">  1       21 0.12032518E-01 0.45380787E+03</pdfrwt>
<totfact> 0.52799825E+04</totfact>
</mgrwt>
</event>
<event>
 7    0  0.4737014E-002  0.4558826E+03  0.7546771E-02  0.1025982E+00
         21   -1    0    0  502  501  0.00000000000E+00  0.00000000000E+00  0.57188424698E+03  0.57188424698E+03  0.00000000000E+00 0. -1.
         21   -1    0    0  501  502 -0.00000000000E+00 -0.00000000000E+00 -0.90852708156E+02  0.90852708156E+02  0.00000000000E+00 0. -1.
      99926    2    1    2    0    0 -0.17763568394E-14  0.00000000000E+00  0.48103153882E+03  0.66273695513E+03  0.45588258396E+03 0.  0.
      99925    2    3    3    0    0 -0.13682069243E+02  0.10731111504E+03  0.25245371967E+03  0.38060542209E+03  0.26348573456E+03 0.  0.
         25    1    4    4    0    0 -0.18669344696E+02  0.48917986713E+02  0.72577183562E+02  0.15380659781E+03  0.12509000000E+03 0.  0.
         25    1    4    4    0    0  0.49872754532E+01  0.58393128330E+02  0.17987653611E+03  0.22679882428E+03  0.12509000000E+03 0.  0.
         25    1    3    3    0    0  0.13682069243E+02 -0.10731111504E+03  0.22857781915E+03  0.28213153304E+03  0.12509000000E+03 0.  0.
<mgrwt>
<rscale>  2 0.45588258E+03</rscale>
<asrwt>0</asrwt>
<pdfrwt beam="1">  1       21 0.84100623E-01 0.45588258E+03</pdfrwt>
<pdfrwt beam="2">  1       21 0.13360693E-01 0.45588258E+03</pdfrwt>
<totfact> 0.54591994E+04</totfact>
</mgrwt>
</event>
<event>
 7    0  0.4737014E-002  0.4548760E+03  0.7546771E-02  0.1026278E+00
         21   -1    0    0  502  501  0.00000000000E+00  0.00000000000E+00  0.47842540433E+03  0.47842540433E+03  0.00000000000E+00 0. -1.
         21   -1    0    0  501  502 -0.00000000000E+00 -0.00000000000E+00 -0.10812142023E+03  0.10812142023E+03  0.00000000000E+00 0. -1.
      99926    2    1    2    0    0 -0.17763568394E-14  0.00000000000E+00  0.37030398410E+03  0.58654682457E+03  0.45487595756E+03 0.  0.
      99925    2    3    3    0    0  0.11081971381E+02  0.76085260773E+02  0.33991392559E+03  0.43660403297E+03  0.26300157375E+03 0.  0.
         25    1    4    4    0    0  0.40834968787E+02  0.52514329696E+02  0.20032000772E+03  0.24535864177E+03  0.12509000000E+03 0.  0.
         25    1    3    3    0    0 -0.11081971381E+02 -0.76085260773E+02  0.30390058512E+02  0.14994279160E+03  0.12509000000E+03 0.  0.
         25    1    4    4    0    0 -0.29752997406E+02  0.23570931077E+02  0.13959391787E+03  0.19124539119E+03  0.12509000000E+03 0.  0.
<mgrwt>
<rscale>  2 0.45487596E+03</rscale>
<asrwt>0</asrwt>
<pdfrwt beam="1">  1       21 0.70356677E-01 0.45487596E+03</pdfrwt>
<pdfrwt beam="2">  1       21 0.15900209E-01 0.45487596E+03</pdfrwt>
<totfact> 0.59572467E+04</totfact>
</mgrwt>
</event>
<event>
 7    0  0.4737014E-002  0.4483598E+03  0.7546771E-02  0.1028212E+00
         21   -1    0    0  502  501  0.00000000000E+00  0.00000000000E+00  0.23533368058E+03  0.23533368058E+03  0.00000000000E+00 0. -1.
         21   -1    0    0  501  502 -0.00000000000E+00 -0.00000000000E+00 -0.21355479880E+03  0.21355479880E+03  0.00000000000E+00 0. -1.
      99926    2    1    2    0    0  0.00000000000E+00 -0.14210854715E-13  0.21778881780E+02  0.44888847938E+03  0.44835984123E+03 0.  0.
      99925    2    3    3    0    0 -0.32847905537E+01  0.10182306655E+03 -0.18533266172E+02  0.28260166660E+03  0.26294770065E+03 0.  0.
         25    1    4    4    0    0  0.17013223608E+01  0.87196803233E+02  0.11847172640E+02  0.15295110523E+03  0.12509000000E+03 0.  0.
         25    1    4    4    0    0 -0.49861129145E+01  0.14626263317E+02 -0.30380438812E+02  0.12965056137E+03  0.12509000000E+03 0.  0.
         25    1    3    3    0    0  0.32847905537E+01 -0.10182306655E+03  0.40312147952E+02  0.16628681278E+03  0.12509000000E+03 0.  0.
<mgrwt>
<rscale>  2 0.44835984E+03</rscale>
<asrwt>0</asrwt>
<pdfrwt beam="1">  1       21 0.34607894E-01 0.44835984E+03</pdfrwt>
<pdfrwt beam="2">  1       21 0.31405117E-01 0.44835984E+03</pdfrwt>
<totfact> 0.72775860E+04</totfact>
</mgrwt>
</event>
<event>
 7    0  0.4737014E-002  0.4418388E+03  0.7546771E-02  0.1030184E+00
         21   -1    0    0  502  501  0.00000000000E+00  0.00000000000E+00  0.23607320087E+03  0.23607320087E+03  0.00000000000E+00 0. -1.
         21   -1    0    0  501  502 -0.00000000000E+00 -0.00000000000E+00 -0.20673835144E+03  0.20673835144E+03  0.00000000000E+00 0. -1.
      99926    2    1    2    0    0  0.00000000000E+00 -0.71054273576E-14  0.29334849437E+02  0.44281155231E+03  0.44183881390E+03 0.  0.
      99925    2    3    3    0    0 -0.85794857228E+02  0.44878107739E+02 -0.71159068482E+01  0.28048174046E+03  0.26314362718E+03 0.  0.
         25    1    3    3    0    0  0.85794857228E+02 -0.44878107739E+02  0.36450756285E+02  0.16232981185E+03  0.12509000000E+03 0.  0.
         25    1    4    4    0    0 -0.83518323651E+01  0.14695630827E+01 -0.18191565089E+02  0.12668999116E+03  0.12509000000E+03 0.  0.
         25    1    4    4    0    0 -0.77443024863E+02  0.43408544656E+02  0.11075658240E+02  0.15379174931E+03  0.12509000000E+03 0.  0.
<mgrwt>
<rscale>  2 0.44183881E+03</rscale>
<asrwt>0</asrwt>
<pdfrwt beam="1">  1       21 0.34716647E-01 0.44183881E+03</pdfrwt>
<pdfrwt beam="2">  1       21 0.30402699E-01 0.44183881E+03</pdfrwt>
<totfact> 0.77246668E+04</totfact>
</mgrwt>
</event>
<event>
 7    0  0.4737014E-002  0.4427047E+03  0.7546771E-02  0.1029920E+00
         21   -1    0    0  502  501  0.00000000000E+00  0.00000000000E+00  0.89780932824E+03  0.89780932824E+03  0.00000000000E+00 0.  1.
         21   -1    0    0  501  502 -0.00000000000E+00 -0.00000000000E+00 -0.54573795450E+02  0.54573795450E+02  0.00000000000E+00 0.  1.
      99926    2    1    2    0    0  0.71054273576E-14 -0.44408920985E-15  0.84323553279E+03  0.95238312369E+03  0.44270469902E+03 0.  0.
      99925    2    3    3    0    0 -0.56557720025E+02  0.31248889117E+01  0.71819170683E+03  0.76666288479E+03  0.26222911840E+03 0.  0.
         25    1    3    3    0    0  0.56557720025E+02 -0.31248889117E+01  0.12504382596E+03  0.18572023890E+03  0.12509000000E+03 0.  0.
         25    1    4    4    0    0 -0.31710979357E+01 -0.41279676921E+00  0.43236288524E+03  0.45010598629E+03  0.12509000000E+03 0.  0.
         25    1    4    4    0    0 -0.53386622090E+02  0.35376856809E+01  0.28582882159E+03  0.31655689850E+03  0.12509000000E+03 0.  0.
<mgrwt>
<rscale>  2 0.44270470E+03</rscale>
<asrwt>0</asrwt>
<pdfrwt beam="1">  1       21 0.13203078E+00 0.44270470E+03</pdfrwt>
<pdfrwt beam="2">  1       21 0.80255587E-02 0.44270470E+03</pdfrwt>
<totfact> 0.45239832E+04</totfact>
</mgrwt>
</event>
<event>
 7    0  0.4737014E-002  0.4796000E+03  0.7546771E-02  0.1019245E+00
         21   -1    0    0  502  501  0.00000000000E+00  0.00000000000E+00  0.15109668735E+03  0.15109668735E+03  0.00000000000E+00 0. -1.
         21   -1    0    0  501  502 -0.00000000000E+00 -0.00000000000E+00 -0.38057781642E+03  0.38057781642E+03  0.00000000000E+00 0. -1.
      99926    2    1    2    0    0  0.00000000000E+00  0.00000000000E+00 -0.22948112907E+03  0.53167450377E+03  0.47960003061E+03 0.  0.
      99925    2    3    3    0    0 -0.21964533218E+02 -0.13111874848E+03 -0.16712073583E+03  0.33877325010E+03  0.26298936807E+03 0.  0.
         25    1    3    3    0    0  0.21964533218E+02  0.13111874848E+03 -0.62360393237E+02  0.19290125367E+03  0.12509000000E+03 0.  0.
         25    1    4    4    0    0  0.20018542887E+01 -0.55673000814E+02 -0.37412673535E+02  0.14195318482E+03  0.12509000000E+03 0.  0.
         25    1    4    4    0    0 -0.23966387506E+02 -0.75445747670E+02 -0.12970806230E+03  0.19682006528E+03  0.12509000000E+03 0.  0.
<mgrwt>
<rscale>  2 0.47960003E+03</rscale>
<asrwt>0</asrwt>
<pdfrwt beam="1">  1       21 0.22220102E-01 0.47960003E+03</pdfrwt>
<pdfrwt beam="2">  1       21 0.55967324E-01 0.47960003E+03</pdfrwt>
<totfact> 0.52151348E+04</totfact>
</mgrwt>
</event>
<event>
 7    0  0.4737014E-002  0.4544145E+03  0.7546771E-02  0.1026414E+00
         21   -1    0    0  502  501  0.00000000000E+00  0.00000000000E+00  0.30761811497E+03  0.30761811497E+03  0.00000000000E+00 0.  1.
         21   -1    0    0  501  502 -0.00000000000E+00 -0.00000000000E+00 -0.16781562042E+03  0.16781562042E+03  0.00000000000E+00 0.  1.
      99926    2    1    2    0    0  0.14210854715E-13  0.00000000000E+00  0.13980249454E+03  0.47543373539E+03  0.45441445759E+03 0.  0.
      99925    2    3    3    0    0 -0.91182689721E+02 -0.63453360438E+02  0.10466888300E+03  0.30448786496E+03  0.26347044044E+03 0.  0.
         25    1    4    4    0    0 -0.74491071873E+02 -0.65202514267E+02  0.52804034009E+02  0.16803589427E+03  0.12509000000E+03 0.  0.
         25    1    3    3    0    0  0.91182689721E+02  0.63453360438E+02  0.35133611548E+02  0.17094587043E+03  0.12509000000E+03 0.  0.
         25    1    4    4    0    0 -0.16691617848E+02  0.17491538291E+01  0.51864848986E+02  0.13645197069E+03  0.12509000000E+03 0.  0.
<mgrwt>
<rscale>  2 0.45441446E+03</rscale>
<asrwt>0</asrwt>
<pdfrwt beam="1">  1       21 0.45237958E-01 0.45441446E+03</pdfrwt>
<pdfrwt beam="2">  1       21 0.24678768E-01 0.45441446E+03</pdfrwt>
<totfact> 0.67346433E+04</totfact>
</mgrwt>
</event>
<event>
 7    0  0.4737014E-002  0.4537208E+03  0.7546771E-02  0.1026618E+00
         21   -1    0    0  502  501  0.00000000000E+00  0.00000000000E+00  0.27217720724E+03  0.27217720724E+03  0.00000000000E+00 0. -1.
         21   -1    0    0  501  502 -0.00000000000E+00 -0.00000000000E+00 -0.18908870826E+03  0.18908870826E+03  0.00000000000E+00 0. -1.
      99926    2    1    2    0    0  0.00000000000E+00  0.00000000000E+00  0.83088498974E+02  0.46126591550E+03  0.45372077993E+03 0.  0.
      99925    2    3    3    0    0  0.70661801069E+02  0.83946996518E+02  0.74047993443E+02  0.29462430247E+03  0.26321129519E+03 0.  0.
         25    1    3    3    0    0 -0.70661801069E+02 -0.83946996518E+02  0.90405055314E+01  0.16664161304E+03  0.12509000000E+03 0.  0.
         25    1    4    4    0    0  0.14354733233E+02  0.34458695166E+01  0.27915153846E+02  0.12901432594E+03  0.12509000000E+03 0.  0.
         25    1    4    4    0    0  0.56307067836E+02  0.80501127001E+02  0.46132839597E+02  0.16560997653E+03  0.12509000000E+03 0.  0.
<mgrwt>
<rscale>  2 0.45372078E+03</rscale>
<asrwt>0</asrwt>
<pdfrwt beam="1">  1       21 0.40026060E-01 0.45372078E+03</pdfrwt>
<pdfrwt beam="2">  1       21 0.27807163E-01 0.45372078E+03</pdfrwt>
<totfact> 0.68785037E+04</totfact>
</mgrwt>
</event>
<event>
 7    0  0.4737014E-002  0.4471138E+03  0.7546771E-02  0.1028586E+00
         21   -1    0    0  502  501  0.00000000000E+00  0.00000000000E+00  0.17681105407E+03  0.17681105407E+03  0.00000000000E+00 0. -1.
         21   -1    0    0  501  502 -0.00000000000E+00 -0.00000000000E+00 -0.28266160916E+03  0.28266160916E+03  0.00000000000E+00 0. -1.
      99926    2    1    2    0    0  0.00000000000E+00  0.00000000000E+00 -0.10585055508E+03  0.45947266323E+03  0.44711384260E+03 0.  0.
      99925    2    3    3    0    0 -0.23850683301E+02 -0.91686681432E+02 -0.11500790260E+03  0.30228911524E+03  0.26301442714E+03 0.  0.
         25    1    3    3    0    0  0.23850683301E+02  0.91686681432E+02  0.91573475156E+01  0.15718354799E+03  0.12509000000E+03 0.  0.
         25    1    4    4    0    0 -0.38282156719E+02 -0.52741212962E+02 -0.26477662326E+02  0.14351213806E+03  0.12509000000E+03 0.  0.
         25    1    4    4    0    0  0.14431473418E+02 -0.38945468470E+02 -0.88530240273E+02  0.15877697718E+03  0.12509000000E+03 0.  0.
<mgrwt>
<rscale>  2 0.44711384E+03</rscale>
<asrwt>0</asrwt>
<pdfrwt beam="1">  1       21 0.26001626E-01 0.44711384E+03</pdfrwt>
<pdfrwt beam="2">  1       21 0.41567883E-01 0.44711384E+03</pdfrwt>
<totfact> 0.72667271E+04</totfact>
</mgrwt>
</event>
<event>
 7    0  0.4737014E-002  0.4613149E+03  0.7546771E-02  0.1024401E+00
         21   -1    0    0  502  501  0.00000000000E+00  0.00000000000E+00  0.51238879938E+03  0.51238879938E+03  0.00000000000E+00 0. -1.
         21   -1    0    0  501  502 -0.00000000000E+00 -0.00000000000E+00 -0.10383300800E+03  0.10383300800E+03  0.00000000000E+00 0. -1.
      99926    2    1    2    0    0  0.00000000000E+00  0.14210854715E-13  0.40855579138E+03  0.61622180738E+03  0.46131494797E+03 0.  0.
      99925    2    3    3    0    0  0.18734439790E+01  0.72209255724E+02  0.38211165098E+03  0.46937328997E+03  0.26283889574E+03 0.  0.
         25    1    4    4    0    0  0.21293660358E+02  0.23977130140E+02  0.24311466108E+03  0.27528270791E+03  0.12509000000E+03 0.  0.
         25    1    4    4    0    0 -0.19420216379E+02  0.48232125584E+02  0.13899698991E+03  0.19409058206E+03  0.12509000000E+03 0.  0.
         25    1    3    3    0    0 -0.18734439790E+01 -0.72209255724E+02  0.26444140395E+02  0.14684851741E+03  0.12509000000E+03 0.  0.
<mgrwt>
<rscale>  2 0.46131495E+03</rscale>
<asrwt>0</asrwt>
<pdfrwt beam="1">  1       21 0.75351293E-01 0.46131495E+03</pdfrwt>
<pdfrwt beam="2">  1       21 0.15269560E-01 0.46131495E+03</pdfrwt>
<totfact> 0.54900937E+04</totfact>
</mgrwt>
</event>
<event>
 7    0  0.4737014E-002  0.4543792E+03  0.7546771E-02  0.1026424E+00
         21   -1    0    0  502  501  0.00000000000E+00  0.00000000000E+00  0.16588809073E+03  0.16588809073E+03  0.00000000000E+00 0. -1.
         21   -1    0    0  501  502 -0.00000000000E+00 -0.00000000000E+00 -0.31114424361E+03  0.31114424361E+03  0.00000000000E+00 0. -1.
      99926    2    1    2    0    0  0.88817841970E-15  0.00000000000E+00 -0.14525615288E+03  0.47703233434E+03  0.45437924475E+03 0.  0.
      99925    2    3    3    0    0 -0.68691537235E+01 -0.11232329487E+03 -0.93357852766E+02  0.30095096253E+03  0.26304388480E+03 0.  0.
         25    1    4    4    0    0  0.17215996587E+02 -0.84454631181E+02 -0.25784372698E+02  0.15408217691E+03  0.12509000000E+03 0.  0.
         25    1    3    3    0    0  0.68691537235E+01  0.11232329487E+03 -0.51898300110E+02  0.17608137181E+03  0.12509000000E+03 0.  0.
         25    1    4    4    0    0 -0.24085150310E+02 -0.27868663693E+02 -0.67573480068E+02  0.14686878562E+03  0.12509000000E+03 0.  0.
<mgrwt>
<rscale>  2 0.45437924E+03</rscale>
<asrwt>0</asrwt>
<pdfrwt beam="1">  1       21 0.24395308E-01 0.45437924E+03</pdfrwt>
<pdfrwt beam="2">  1       21 0.45756506E-01 0.45437924E+03</pdfrwt>
<totfact> 0.67247462E+04</totfact>
</mgrwt>
</event>
<event>
 7    0  0.4737014E-002  0.4503044E+03  0.7546771E-02  0.1027631E+00
         21   -1    0    0  502  501  0.00000000000E+00  0.00000000000E+00  0.10824141109E+03  0.10824141109E+03  0.00000000000E+00 0. -1.
         21   -1    0    0  501  502 -0.00000000000E+00 -0.00000000000E+00 -0.46833746286E+03  0.46833746286E+03  0.00000000000E+00 0. -1.
      99926    2    1    2    0    0  0.14210854715E-13  0.00000000000E+00 -0.36009605178E+03  0.57657887395E+03  0.45030437637E+03 0.  0.
      99925    2    3    3    0    0  0.90366828942E+02 -0.24627183872E+02 -0.16031778119E+03  0.32294226883E+03  0.26422955185E+03 0.  0.
         25    1    4    4    0    0  0.59454945204E+02 -0.18065469524E+02 -0.12910152400E+03  0.19019979837E+03  0.12509000000E+03 0.  0.
         25    1    4    4    0    0  0.30911883738E+02 -0.65617143484E+01 -0.31216257186E+02  0.13274247046E+03  0.12509000000E+03 0.  0.
         25    1    3    3    0    0 -0.90366828942E+02  0.24627183872E+02 -0.19977827058E+03  0.25363660512E+03  0.12509000000E+03 0.  0.
<mgrwt>
<rscale>  2 0.45030438E+03</rscale>
<asrwt>0</asrwt>
<pdfrwt beam="1">  1       21 0.15917855E-01 0.45030438E+03</pdfrwt>
<pdfrwt beam="2">  1       21 0.68873155E-01 0.45030438E+03</pdfrwt>
<totfact> 0.62429177E+04</totfact>
</mgrwt>
</event>
<event>
 7    0  0.4737014E-002  0.4567454E+03  0.7546771E-02  0.1025729E+00
         21   -1    0    0  502  501  0.00000000000E+00  0.00000000000E+00  0.26359921939E+03  0.26359921939E+03  0.00000000000E+00 0. -1.
         21   -1    0    0  501  502 -0.00000000000E+00 -0.00000000000E+00 -0.19785373591E+03  0.19785373591E+03  0.00000000000E+00 0. -1.
      99926    2    1    2    0    0  0.14210854715E-13  0.00000000000E+00  0.65745483476E+02  0.46145295530E+03  0.45674540103E+03 0.  0.
      99925    2    3    3    0    0  0.76008192025E+02  0.59457079776E+02 -0.21153840811E+02  0.28114380342E+03  0.26321467214E+03 0.  0.
         25    1    4    4    0    0  0.16333635697E+01  0.59796127376E+01 -0.12303722789E+02  0.12584638787E+03  0.12509000000E+03 0.  0.
         25    1    3    3    0    0 -0.76008192025E+02 -0.59457079776E+02  0.86899324287E+02  0.18030915188E+03  0.12509000000E+03 0.  0.
         25    1    4    4    0    0  0.74374828456E+02  0.53477467039E+02 -0.88501180221E+01  0.15529741555E+03  0.12509000000E+03 0.  0.
<mgrwt>
<rscale>  2 0.45674540E+03</rscale>
<asrwt>0</asrwt>
<pdfrwt beam="1">  1       21 0.38764591E-01 0.45674540E+03</pdfrwt>
<pdfrwt beam="2">  1       21 0.29096138E-01 0.45674540E+03</pdfrwt>
<totfact> 0.67135476E+04</totfact>
</mgrwt>
</event>
<event>
 7    0  0.4737014E-002  0.4548809E+03  0.7546771E-02  0.1026276E+00
         21   -1    0    0  502  501  0.00000000000E+00  0.00000000000E+00  0.11831472876E+04  0.11831472876E+04  0.00000000000E+00 0. -1.
         21   -1    0    0  501  502 -0.00000000000E+00 -0.00000000000E+00 -0.43721652737E+02  0.43721652737E+02  0.00000000000E+00 0. -1.
      99926    2    1    2    0    0  0.00000000000E+00  0.00000000000E+00  0.11394256349E+04  0.12268689404E+04  0.45488088483E+03 0.  0.
      99925    2    3    3    0    0  0.41840434454E+02 -0.93942270972E+02  0.59051975708E+03  0.65457448554E+03  0.26301787275E+03 0.  0.
         25    1    4    4    0    0  0.19563691857E+02 -0.66125712658E+02  0.22406579807E+03  0.26572229465E+03  0.12509000000E+03 0.  0.
         25    1    4    4    0    0  0.22276742596E+02 -0.27816558313E+02  0.36645395902E+03  0.38885219088E+03  0.12509000000E+03 0.  0.
         25    1    3    3    0    0 -0.41840434454E+02  0.93942270972E+02  0.54890587782E+03  0.57229445483E+03  0.12509000000E+03 0.  0.
<mgrwt>
<rscale>  2 0.45488088E+03</rscale>
<asrwt>0</asrwt>
<pdfrwt beam="1">  1       21 0.17399223E+00 0.45488088E+03</pdfrwt>
<pdfrwt beam="2">  1       21 0.64296555E-02 0.45488088E+03</pdfrwt>
<totfact> 0.31343775E+04</totfact>
</mgrwt>
</event>
<event>
 6    0  0.4737014E-002  0.4639435E+03  0.7546771E-02  0.1023644E+00
         21   -1    0    0  502  501  0.00000000000E+00  0.00000000000E+00  0.18280409522E+03  0.18280409522E+03  0.00000000000E+00 0.  1.
         21   -1    0    0  501  502 -0.00000000000E+00 -0.00000000000E+00 -0.29436372900E+03  0.29436372900E+03  0.00000000000E+00 0.  1.
      99926    2    1    2    0    0  0.71054273576E-14  0.00000000000E+00 -0.11155963378E+03  0.47716782422E+03  0.46394351012E+03 0.  0.
         25    1    3    3    0    0  0.20776547347E+02 -0.59827170314E+01 -0.77805125903E+02  0.14889124736E+03  0.12509000000E+03 0.  0.
         25    1    3    3    0    0  0.38852811321E+02  0.83828895841E+02 -0.60935240351E+02  0.16702525660E+03  0.12509000000E+03 0.  0.
         25    1    3    3    0    0 -0.59629358668E+02 -0.77846178810E+02  0.27180732471E+02  0.16125132027E+03  0.12509000000E+03 0.  0.
<mgrwt>
<rscale>  2 0.46394351E+03</rscale>
<asrwt>0</asrwt>
<pdfrwt beam="1">  1       21 0.26882955E-01 0.46394351E+03</pdfrwt>
<pdfrwt beam="2">  1       21 0.43288784E-01 0.46394351E+03</pdfrwt>
<totfact> 0.62362775E+04</totfact>
</mgrwt>
</event>
<event>
 7    0  0.4737014E-002  0.4533971E+03  0.7546771E-02  0.1026714E+00
         21   -1    0    0  502  501  0.00000000000E+00  0.00000000000E+00  0.24324128999E+03  0.24324128999E+03  0.00000000000E+00 0.  1.
         21   -1    0    0  501  502 -0.00000000000E+00 -0.00000000000E+00 -0.21128088920E+03  0.21128088920E+03  0.00000000000E+00 0.  1.
      99926    2    1    2    0    0  0.00000000000E+00 -0.14210854715E-13  0.31960400790E+02  0.45452217918E+03  0.45339711529E+03 0.  0.
      99925    2    3    3    0    0 -0.62422483693E+02  0.91964098337E+02  0.26116094349E+02  0.28708375506E+03  0.26340286670E+03 0.  0.
         25    1    3    3    0    0  0.62422483693E+02 -0.91964098337E+02  0.58443064415E+01  0.16743842412E+03  0.12509000000E+03 0.  0.
         25    1    4    4    0    0 -0.13433090937E+02  0.59014896345E+02 -0.21871431297E+02  0.14067364192E+03  0.12509000000E+03 0.  0.
         25    1    4    4    0    0 -0.48989392756E+02  0.32949201992E+02  0.47987525645E+02  0.14641011315E+03  0.12509000000E+03 0.  0.
<mgrwt>
<rscale>  2 0.45339712E+03</rscale>
<asrwt>0</asrwt>
<pdfrwt beam="1">  1       21 0.35770778E-01 0.45339712E+03</pdfrwt>
<pdfrwt beam="2">  1       21 0.31070719E-01 0.45339712E+03</pdfrwt>
<totfact> 0.69464996E+04</totfact>
</mgrwt>
</event>
<event>
 7    0  0.4737014E-002  0.4436001E+03  0.7546771E-02  0.1029648E+00
         21   -1    0    0  502  501  0.00000000000E+00  0.00000000000E+00  0.18267961053E+03  0.18267961053E+03  0.00000000000E+00 0.  1.
         21   -1    0    0  501  502 -0.00000000000E+00 -0.00000000000E+00 -0.26929799420E+03  0.26929799420E+03  0.00000000000E+00 0.  1.
      99926    2    1    2    0    0 -0.14210854715E-13  0.00000000000E+00 -0.86618383678E+02  0.45197760473E+03  0.44360005725E+03 0.  0.
      99925    2    3    3    0    0  0.89875142558E+02  0.30234616469E+02 -0.93714547485E+02  0.29484855928E+03  0.26298589928E+03 0.  0.
         25    1    3    3    0    0 -0.89875142558E+02 -0.30234616469E+02  0.70961638074E+01  0.15712904545E+03  0.12509000000E+03 0.  0.
         25    1    4    4    0    0  0.15291050260E+02 -0.55458085798E+01 -0.65910243779E+02  0.14232442006E+03  0.12509000000E+03 0.  0.
         25    1    4    4    0    0  0.74584092298E+02  0.35780425049E+02 -0.27804303707E+02  0.15252413922E+03  0.12509000000E+03 0.  0.
<mgrwt>
<rscale>  2 0.44360006E+03</rscale>
<asrwt>0</asrwt>
<pdfrwt beam="1">  1       21 0.26864649E-01 0.44360006E+03</pdfrwt>
<pdfrwt beam="2">  1       21 0.39602646E-01 0.44360006E+03</pdfrwt>
<totfact> 0.75390429E+04</totfact>
</mgrwt>
</event>
<event>
 6    0  0.4737014E-002  0.4394953E+03  0.7546771E-02  0.1030902E+00
         21   -1    0    0  502  501  0.00000000000E+00  0.00000000000E+00  0.86786490306E+02  0.86786490306E+02  0.00000000000E+00 0.  1.
         21   -1    0    0  501  502 -0.00000000000E+00 -0.00000000000E+00 -0.55641187530E+03  0.55641187530E+03  0.00000000000E+00 0.  1.
      99926    2    1    2    0    0  0.35527136788E-14  0.00000000000E+00 -0.46962538499E+03  0.64319836560E+03  0.43949531884E+03 0.  0.
         25    1    3    3    0    0 -0.63532255723E+01  0.62448440184E+02 -0.21962874946E+03  0.26043130927E+03  0.12509000000E+03 0.  0.
         25    1    3    3    0    0 -0.24748170583E+02  0.29127564091E+02 -0.12852841824E+03  0.18337925000E+03  0.12509000000E+03 0.  0.
         25    1    3    3    0    0  0.31101396155E+02 -0.91576004275E+02 -0.12146821729E+03  0.19938780633E+03  0.12509000000E+03 0.  0.
<mgrwt>
<rscale>  2 0.43949532E+03</rscale>
<asrwt>0</asrwt>
<pdfrwt beam="1">  1       21 0.12762719E-01 0.43949532E+03</pdfrwt>
<pdfrwt beam="2">  1       21 0.81825276E-01 0.43949532E+03</pdfrwt>
<totfact> 0.63514452E+04</totfact>
</mgrwt>
</event>
<event>
 7    0  0.4737014E-002  0.4437468E+03  0.7546771E-02  0.1029603E+00
         21   -1    0    0  502  501  0.00000000000E+00  0.00000000000E+00  0.19983124280E+03  0.19983124280E+03  0.00000000000E+00 0. -1.
         21   -1    0    0  501  502 -0.00000000000E+00 -0.00000000000E+00 -0.24634691795E+03  0.24634691795E+03  0.00000000000E+00 0. -1.
      99926    2    1    2    0    0  0.00000000000E+00 -0.44408920985E-15 -0.46515675143E+02  0.44617816075E+03  0.44374682320E+03 0.  0.
      99925    2    3    3    0    0  0.37172119476E+02  0.33301744521E+01 -0.12530176146E+03  0.29370648461E+03  0.26300211245E+03 0.  0.
         25    1    3    3    0    0 -0.37172119476E+02 -0.33301744521E+01  0.78786086313E+02  0.15247167614E+03  0.12509000000E+03 0.  0.
         25    1    4    4    0    0  0.52873499101E+02 -0.20301065026E+02 -0.67778496387E+02  0.15313122745E+03  0.12509000000E+03 0.  0.
         25    1    4    4    0    0 -0.15701379625E+02  0.23631239478E+02 -0.57523265070E+02  0.14057525716E+03  0.12509000000E+03 0.  0.
<mgrwt>
<rscale>  2 0.44374682E+03</rscale>
<asrwt>0</asrwt>
<pdfrwt beam="1">  1       21 0.29386948E-01 0.44374682E+03</pdfrwt>
<pdfrwt beam="2">  1       21 0.36227488E-01 0.44374682E+03</pdfrwt>
<totfact> 0.75775168E+04</totfact>
</mgrwt>
</event>
<event>
 7    0  0.4737014E-002  0.4151142E+03  0.7546771E-02  0.1038668E+00
         21   -1    0    0  502  501  0.00000000000E+00  0.00000000000E+00  0.79947476864E+02  0.79947476864E+02  0.00000000000E+00 0. -1.
         21   -1    0    0  501  502 -0.00000000000E+00 -0.00000000000E+00 -0.53885306190E+03  0.53885306190E+03  0.00000000000E+00 0. -1.
      99926    2    1    2    0    0  0.00000000000E+00  0.00000000000E+00 -0.45890558503E+03  0.61880053876E+03  0.41511416598E+03 0.  0.
      99925    2    3    3    0    0 -0.33964160870E+02 -0.46831416364E+02 -0.24717159780E+03  0.36616337754E+03  0.26388458558E+03 0.  0.
         25    1    3    3    0    0  0.33964160870E+02  0.46831416364E+02 -0.21173398723E+03  0.25263716122E+03  0.12509000000E+03 0.  0.
         25    1    4    4    0    0  0.36149620649E+01  0.44197876223E+01 -0.83129096947E+02  0.15030155466E+03  0.12509000000E+03 0.  0.
         25    1    4    4    0    0 -0.37579122935E+02 -0.51251203986E+02 -0.16404250085E+03  0.21586182288E+03  0.12509000000E+03 0.  0.
<mgrwt>
<rscale>  2 0.41511417E+03</rscale>
<asrwt>0</asrwt>
<pdfrwt beam="1">  1       21 0.11756981E-01 0.41511417E+03</pdfrwt>
<pdfrwt beam="2">  1       21 0.79243101E-01 0.41511417E+03</pdfrwt>
<totfact> 0.79859570E+04</totfact>
</mgrwt>
</event>
<event>
 7    0  0.4737014E-002  0.4606585E+03  0.7546771E-02  0.1024590E+00
         21   -1    0    0  502  501  0.00000000000E+00  0.00000000000E+00  0.45098762203E+02  0.45098762203E+02  0.00000000000E+00 0. -1.
         21   -1    0    0  501  502 -0.00000000000E+00 -0.00000000000E+00 -0.11763420288E+04  0.11763420288E+04  0.00000000000E+00 0. -1.
      99926    2    1    2    0    0  0.00000000000E+00  0.00000000000E+00 -0.11312432666E+04  0.12214407910E+04  0.46065852613E+03 0.  0.
      99925    2    3    3    0    0 -0.64396720766E+02 -0.29669684811E+02 -0.95964411872E+03  0.99756358471E+03  0.26303810199E+03 0.  0.
         25    1    4    4    0    0 -0.63800078402E+02  0.10782621007E+02 -0.51128693742E+03  0.53032872390E+03  0.12509000000E+03 0.  0.
         25    1    3    3    0    0  0.64396720766E+02  0.29669684811E+02 -0.17159914783E+03  0.22387720625E+03  0.12509000000E+03 0.  0.
         25    1    4    4    0    0 -0.59664236348E+00 -0.40452305818E+02 -0.44835718131E+03  0.46723486081E+03  0.12509000000E+03 0.  0.
<mgrwt>
<rscale>  2 0.46065853E+03</rscale>
<asrwt>0</asrwt>
<pdfrwt beam="1">  1       21 0.66321715E-02 0.46065853E+03</pdfrwt>
<pdfrwt beam="2">  1       21 0.17299146E+00 0.46065853E+03</pdfrwt>
<totfact> 0.30133591E+04</totfact>
</mgrwt>
</event>
<event>
 7    0  0.4737014E-002  0.4846092E+03  0.7546771E-02  0.1017876E+00
         21   -1    0    0  502  501  0.00000000000E+00  0.00000000000E+00  0.16249616380E+03  0.16249616380E+03  0.00000000000E+00 0.  1.
         21   -1    0    0  501  502 -0.00000000000E+00 -0.00000000000E+00 -0.36131017895E+03  0.36131017895E+03  0.00000000000E+00 0.  1.
      99926    2    1    2    0    0  0.00000000000E+00  0.00000000000E+00 -0.19881401516E+03  0.52380634275E+03  0.48460919521E+03 0.  0.
      99925    2    3    3    0    0 -0.33532862640E+02  0.13290461863E+03 -0.14776311857E+03  0.33134389791E+03  0.26299572039E+03 0.  0.
         25    1    4    4    0    0 -0.22799348807E+02  0.55559560721E+02 -0.11515755948E+03  0.18032040012E+03  0.12509000000E+03 0.  0.
         25    1    3    3    0    0  0.33532862640E+02 -0.13290461863E+03 -0.51050896588E+02  0.19246244484E+03  0.12509000000E+03 0.  0.
         25    1    4    4    0    0 -0.10733513833E+02  0.77345057910E+02 -0.32605559085E+02  0.15102349779E+03  0.12509000000E+03 0.  0.
<mgrwt>
<rscale>  2 0.48460920E+03</rscale>
<asrwt>0</asrwt>
<pdfrwt beam="1">  1       21 0.23896495E-01 0.48460920E+03</pdfrwt>
<pdfrwt beam="2">  1       21 0.53133849E-01 0.48460920E+03</pdfrwt>
<totfact> 0.50640279E+04</totfact>
</mgrwt>
</event>
<event>
 7    0  0.4737014E-002  0.4613104E+03  0.7546771E-02  0.1024402E+00
         21   -1    0    0  502  501  0.00000000000E+00  0.00000000000E+00  0.19052290263E+03  0.19052290263E+03  0.00000000000E+00 0. -1.
         21   -1    0    0  501  502 -0.00000000000E+00 -0.00000000000E+00 -0.27924110053E+03  0.27924110053E+03  0.00000000000E+00 0. -1.
      99926    2    1    2    0    0  0.71054273576E-14  0.00000000000E+00 -0.88718197903E+02  0.46976400316E+03  0.46131041612E+03 0.  0.
      99925    2    3    3    0    0  0.36566932151E+02  0.85601276186E+02 -0.13074497452E+03  0.30827568450E+03  0.26320131132E+03 0.  0.
         25    1    4    4    0    0 -0.19692946967E+02  0.29473062662E+02 -0.48371158277E+02  0.13872184628E+03  0.12509000000E+03 0.  0.
         25    1    4    4    0    0  0.56259879118E+02  0.56128213524E+02 -0.82373816239E+02  0.16955383822E+03  0.12509000000E+03 0.  0.
         25    1    3    3    0    0 -0.36566932151E+02 -0.85601276186E+02  0.42026776613E+02  0.16148831866E+03  0.12509000000E+03 0.  0.
<mgrwt>
<rscale>  2 0.46131042E+03</rscale>
<asrwt>0</asrwt>
<pdfrwt beam="1">  1       21 0.28018074E-01 0.46131042E+03</pdfrwt>
<pdfrwt beam="2">  1       21 0.41064868E-01 0.46131042E+03</pdfrwt>
<totfact> 0.64177739E+04</totfact>
</mgrwt>
</event>
<event>
 7    0  0.4737014E-002  0.4569983E+03  0.7546771E-02  0.1025655E+00
         21   -1    0    0  502  501  0.00000000000E+00  0.00000000000E+00  0.77192928381E+02  0.77192928381E+02  0.00000000000E+00 0.  1.
         21   -1    0    0  501  502 -0.00000000000E+00 -0.00000000000E+00 -0.67638129755E+03  0.67638129755E+03  0.00000000000E+00 0.  1.
      99926    2    1    2    0    0  0.00000000000E+00  0.00000000000E+00 -0.59918836917E+03  0.75357422593E+03  0.45699826284E+03 0.  0.
      99925    2    3    3    0    0  0.68644005785E+02  0.91841098393E+02 -0.36078799228E+03  0.46094983411E+03  0.26298286506E+03 0.  0.
         25    1    4    4    0    0  0.54572832929E+02  0.11296331840E+02 -0.18622683093E+03  0.23115739630E+03  0.12509000000E+03 0.  0.
         25    1    4    4    0    0  0.14071172855E+02  0.80544766553E+02 -0.17456116134E+03  0.22979243781E+03  0.12509000000E+03 0.  0.
         25    1    3    3    0    0 -0.68644005785E+02 -0.91841098393E+02 -0.23840037690E+03  0.29262439182E+03  0.12509000000E+03 0.  0.
<mgrwt>
<rscale>  2 0.45699826E+03</rscale>
<asrwt>0</asrwt>
<pdfrwt beam="1">  1       21 0.11351901E-01 0.45699826E+03</pdfrwt>
<pdfrwt beam="2">  1       21 0.99467841E-01 0.45699826E+03</pdfrwt>
<totfact> 0.49309959E+04</totfact>
</mgrwt>
</event>
<event>
 7    0  0.4737014E-002  0.4602568E+03  0.7546771E-02  0.1024707E+00
         21   -1    0    0  502  501  0.00000000000E+00  0.00000000000E+00  0.21925856913E+03  0.21925856913E+03  0.00000000000E+00 0. -1.
         21   -1    0    0  501  502 -0.00000000000E+00 -0.00000000000E+00 -0.24153707355E+03  0.24153707355E+03  0.00000000000E+00 0. -1.
      99926    2    1    2    0    0  0.44408920985E-15  0.14210854715E-13 -0.22278504415E+02  0.46079564268E+03  0.46025676807E+03 0.  0.
      99925    2    3    3    0    0 -0.29530596132E+01  0.80411521624E+02  0.72422826498E+02  0.28447042172E+03  0.26306581242E+03 0.  0.
         25    1    4    4    0    0 -0.23897033932E+02  0.50579029168E+01  0.29432467703E+02  0.13080683800E+03  0.12509000000E+03 0.  0.
         25    1    4    4    0    0  0.20943974319E+02  0.75353618707E+02  0.42990358796E+02  0.15366358372E+03  0.12509000000E+03 0.  0.
         25    1    3    3    0    0  0.29530596132E+01 -0.80411521624E+02 -0.94701330913E+02  0.17632522096E+03  0.12509000000E+03 0.  0.
<mgrwt>
<rscale>  2 0.46025677E+03</rscale>
<asrwt>0</asrwt>
<pdfrwt beam="1">  1       21 0.32243907E-01 0.46025677E+03</pdfrwt>
<pdfrwt beam="2">  1       21 0.35520158E-01 0.46025677E+03</pdfrwt>
<totfact> 0.65339460E+04</totfact>
</mgrwt>
</event>
<event>
 7    0  0.4737014E-002  0.4511165E+03  0.7546771E-02  0.1027390E+00
         21   -1    0    0  502  501  0.00000000000E+00  0.00000000000E+00  0.77913030220E+02  0.77913030220E+02  0.00000000000E+00 0.  1.
         21   -1    0    0  501  502 -0.00000000000E+00 -0.00000000000E+00 -0.65299135546E+03  0.65299135546E+03  0.00000000000E+00 0.  1.
      99926    2    1    2    0    0 -0.14210854715E-13  0.00000000000E+00 -0.57507832524E+03  0.73090438568E+03  0.45111654907E+03 0.  0.
      99925    2    3    3    0    0 -0.10270840991E+03  0.32302961807E+02 -0.33138832176E+03  0.43658343042E+03  0.26304823343E+03 0.  0.
         25    1    4    4    0    0 -0.31047477099E+02  0.52034956886E+00 -0.10464804577E+03  0.16602089682E+03  0.12509000000E+03 0.  0.
         25    1    4    4    0    0 -0.71660932811E+02  0.31782612238E+02 -0.22674027599E+03  0.27056253360E+03  0.12509000000E+03 0.  0.
         25    1    3    3    0    0  0.10270840991E+03 -0.32302961807E+02 -0.24369000348E+03  0.29432095526E+03  0.12509000000E+03 0.  0.
<mgrwt>
<rscale>  2 0.45111655E+03</rscale>
<asrwt>0</asrwt>
<pdfrwt beam="1">  1       21 0.11457798E-01 0.45111655E+03</pdfrwt>
<pdfrwt beam="2">  1       21 0.96028143E-01 0.45111655E+03</pdfrwt>
<totfact> 0.52852539E+04</totfact>
</mgrwt>
</event>
<event>
 7    0  0.4737014E-002  0.4568478E+03  0.7546771E-02  0.1025699E+00
         21   -1    0    0  502  501  0.00000000000E+00  0.00000000000E+00  0.24311137407E+03  0.24311137407E+03  0.00000000000E+00 0. -1.
         21   -1    0    0  501  502 -0.00000000000E+00 -0.00000000000E+00 -0.21462375673E+03  0.21462375673E+03  0.00000000000E+00 0. -1.
      99926    2    1    2    0    0  0.00000000000E+00  0.00000000000E+00  0.28487617337E+02  0.45773513080E+03  0.45684779263E+03 0.  0.
      99925    2    3    3    0    0 -0.33005881557E+01  0.78076885431E+02 -0.67114242745E+02  0.28196790498E+03  0.26247796849E+03 0.  0.
         25    1    4    4    0    0  0.32490617604E+02  0.26984526020E+02 -0.15383602502E+02  0.13292090958E+03  0.12509000000E+03 0.  0.
         25    1    3    3    0    0  0.33005881557E+01 -0.78076885431E+02  0.95601860082E+02  0.17576722582E+03  0.12509000000E+03 0.  0.
         25    1    4    4    0    0 -0.35791205760E+02  0.51092359411E+02 -0.51730640244E+02  0.14904699541E+03  0.12509000000E+03 0.  0.
<mgrwt>
<rscale>  2 0.45684779E+03</rscale>
<asrwt>0</asrwt>
<pdfrwt beam="1">  1       21 0.35751673E-01 0.45684779E+03</pdfrwt>
<pdfrwt beam="2">  1       21 0.31562317E-01 0.45684779E+03</pdfrwt>
<totfact> 0.67347511E+04</totfact>
</mgrwt>
</event>
<event>
 7    0  0.4737014E-002  0.4567184E+03  0.7546771E-02  0.1025737E+00
         21   -1    0    0  502  501  0.00000000000E+00  0.00000000000E+00  0.59806921050E+03  0.59806921050E+03  0.00000000000E+00 0. -1.
         21   -1    0    0  501  502 -0.00000000000E+00 -0.00000000000E+00 -0.87193800760E+02  0.87193800760E+02  0.00000000000E+00 0. -1.
      99926    2    1    2    0    0  0.00000000000E+00 -0.71054273576E-14  0.51087540974E+03  0.68526301126E+03  0.45671841470E+03 0.  0.
      99925    2    3    3    0    0  0.10375900639E+03 -0.49097241187E+02  0.31710156726E+03  0.42763482835E+03  0.26294804042E+03 0.  0.
         25    1    3    3    0    0 -0.10375900639E+03  0.49097241187E+02  0.19377384248E+03  0.25762818291E+03  0.12509000000E+03 0.  0.
         25    1    4    4    0    0  0.62327569887E+02 -0.62838372328E+02  0.15057135205E+03  0.21483162515E+03  0.12509000000E+03 0.  0.
         25    1    4    4    0    0  0.41431436508E+02  0.13741131141E+02  0.16653021522E+03  0.21280320321E+03  0.12509000000E+03 0.  0.
<mgrwt>
<rscale>  2 0.45671841E+03</rscale>
<asrwt>0</asrwt>
<pdfrwt beam="1">  1       21 0.87951352E-01 0.45671841E+03</pdfrwt>
<pdfrwt beam="2">  1       21 0.12822618E-01 0.45671841E+03</pdfrwt>
<totfact> 0.52990070E+04</totfact>
</mgrwt>
</event>
<event>
 7    0  0.4737014E-002  0.4762429E+03  0.7546771E-02  0.1020173E+00
         21   -1    0    0  502  501  0.00000000000E+00  0.00000000000E+00  0.58448712423E+03  0.58448712423E+03  0.00000000000E+00 0. -1.
         21   -1    0    0  501  502 -0.00000000000E+00 -0.00000000000E+00 -0.97011229040E+02  0.97011229040E+02  0.00000000000E+00 0. -1.
      99926    2    1    2    0    0  0.00000000000E+00  0.00000000000E+00  0.48747589519E+03  0.68149835327E+03  0.47624285519E+03 0.  0.
      99925    2    3    3    0    0 -0.57128064006E+02 -0.84174122431E+02  0.42184809343E+03  0.50741959222E+03  0.26300176816E+03 0.  0.
         25    1    4    4    0    0 -0.30492082732E+02 -0.45984917128E+01  0.22855202480E+03  0.26236320126E+03  0.12509000000E+03 0.  0.
         25    1    3    3    0    0  0.57128064006E+02  0.84174122431E+02  0.65627801756E+02  0.17407876105E+03  0.12509000000E+03 0.  0.
         25    1    4    4    0    0 -0.26635981274E+02 -0.79575630718E+02  0.19329606863E+03  0.24505639096E+03  0.12509000000E+03 0.  0.
<mgrwt>
<rscale>  2 0.47624286E+03</rscale>
<asrwt>0</asrwt>
<pdfrwt beam="1">  1       21 0.85953987E-01 0.47624286E+03</pdfrwt>
<pdfrwt beam="2">  1       21 0.14266358E-01 0.47624286E+03</pdfrwt>
<totfact> 0.45762914E+04</totfact>
</mgrwt>
</event>
<event>
 7    0  0.4737014E-002  0.4539758E+03  0.7546771E-02  0.1026543E+00
         21   -1    0    0  502  501  0.00000000000E+00  0.00000000000E+00  0.63056731177E+03  0.63056731177E+03  0.00000000000E+00 0. -1.
         21   -1    0    0  501  502 -0.00000000000E+00 -0.00000000000E+00 -0.81709752976E+02  0.81709752976E+02  0.00000000000E+00 0. -1.
      99926    2    1    2    0    0  0.11102230246E-14  0.00000000000E+00  0.54885755880E+03  0.71227706475E+03  0.45397576710E+03 0.  0.
      99925    2    3    3    0    0 -0.11365126462E+01  0.79009017001E+02  0.47081333244E+03  0.54499847737E+03  0.26289623409E+03 0.  0.
         25    1    4    4    0    0 -0.16534451384E+02  0.43621276484E+02  0.16431578452E+03  0.21171534896E+03  0.12509000000E+03 0.  0.
         25    1    4    4    0    0  0.15397938738E+02  0.35387740517E+02  0.30649754792E+03  0.33328312841E+03  0.12509000000E+03 0.  0.
         25    1    3    3    0    0  0.11365126462E+01 -0.79009017001E+02  0.78044226356E+02  0.16727858738E+03  0.12509000000E+03 0.  0.
<mgrwt>
<rscale>  2 0.45397577E+03</rscale>
<asrwt>0</asrwt>
<pdfrwt beam="1">  1       21 0.92730484E-01 0.45397577E+03</pdfrwt>
<pdfrwt beam="2">  1       21 0.12016140E-01 0.45397577E+03</pdfrwt>
<totfact> 0.52664555E+04</totfact>
</mgrwt>
</event>
<event>
 7    0  0.4737014E-002  0.4540253E+03  0.7546771E-02  0.1026528E+00
         21   -1    0    0  502  501  0.00000000000E+00  0.00000000000E+00  0.54828342606E+02  0.54828342606E+02  0.00000000000E+00 0.  1.
         21   -1    0    0  501  502 -0.00000000000E+00 -0.00000000000E+00 -0.93992894035E+03  0.93992894035E+03  0.00000000000E+00 0.  1.
      99926    2    1    2    0    0  0.00000000000E+00  0.00000000000E+00 -0.88510059775E+03  0.99475728296E+03  0.45402531192E+03 0.  0.
      99925    2    3    3    0    0  0.71314820221E+02  0.64976995295E+02 -0.68322912597E+03  0.73842271112E+03  0.26297955857E+03 0.  0.
         25    1    4    4    0    0  0.45120625614E+02  0.87133188886E+01 -0.25080801821E+03  0.28401401881E+03  0.12509000000E+03 0.  0.
         25    1    3    3    0    0 -0.71314820221E+02 -0.64976995295E+02 -0.20187147178E+03  0.25633457184E+03  0.12509000000E+03 0.  0.
         25    1    4    4    0    0  0.26194194606E+02  0.56263676407E+02 -0.43242110776E+03  0.45440869231E+03  0.12509000000E+03 0.  0.
<mgrwt>
<rscale>  2 0.45402531E+03</rscale>
<asrwt>0</asrwt>
<pdfrwt beam="1">  1       21 0.80629919E-02 0.45402531E+03</pdfrwt>
<pdfrwt beam="2">  1       21 0.13822484E+00 0.45402531E+03</pdfrwt>
<totfact> 0.39672475E+04</totfact>
</mgrwt>
</event>
<event>
 7    0  0.4737014E-002  0.4450742E+03  0.7546771E-02  0.1029201E+00
         21   -1    0    0  502  501  0.00000000000E+00  0.00000000000E+00  0.34239387968E+02  0.34239387968E+02  0.00000000000E+00 0.  1.
         21   -1    0    0  501  502 -0.00000000000E+00 -0.00000000000E+00 -0.14463680765E+04  0.14463680765E+04  0.00000000000E+00 0.  1.
      99926    2    1    2    0    0  0.35527136788E-14 -0.35527136788E-14 -0.14121286885E+04  0.14806074645E+04  0.44507418580E+03 0.  0.
      99925    2    3    3    0    0 -0.25756727096E+02  0.28657796739E+02 -0.57755824501E+03  0.63583529896E+03  0.26311275668E+03 0.  0.
         25    1    3    3    0    0  0.25756727096E+02 -0.28657796739E+02 -0.83457044354E+03  0.84477216552E+03  0.12509000000E+03 0.  0.
         25    1    4    4    0    0 -0.60887094581E+01  0.30643076536E+02 -0.37897566219E+03  0.40030754571E+03  0.12509000000E+03 0.  0.
         25    1    4    4    0    0 -0.19668017638E+02 -0.19852797969E+01 -0.19858258282E+03  0.23552775325E+03  0.12509000000E+03 0.  0.
<mgrwt>
<rscale>  2 0.44507419E+03</rscale>
<asrwt>0</asrwt>
<pdfrwt beam="1">  1       21 0.50352029E-02 0.44507419E+03</pdfrwt>
<pdfrwt beam="2">  1       21 0.21270124E+00 0.44507419E+03</pdfrwt>
<totfact> 0.26222765E+04</totfact>
</mgrwt>
</event>
<event>
 7    0  0.4737014E-002  0.4519118E+03  0.7546771E-02  0.1027153E+00
         21   -1    0    0  502  501  0.00000000000E+00  0.00000000000E+00  0.58427014241E+02  0.58427014241E+02  0.00000000000E+00 0.  1.
         21   -1    0    0  501  502 -0.00000000000E+00 -0.00000000000E+00 -0.87384347846E+03  0.87384347846E+03  0.00000000000E+00 0.  1.
      99926    2    1    2    0    0  0.14210854715E-13  0.00000000000E+00 -0.81541646422E+03  0.93227049270E+03  0.45191178502E+03 0.  0.
      99925    2    3    3    0    0 -0.95881828052E+02 -0.96292210083E+01 -0.62491104075E+03  0.68483187139E+03  0.26304911398E+03 0.  0.
         25    1    4    4    0    0 -0.19420178427E+02 -0.14176240362E+02 -0.22058057559E+03  0.25471829057E+03  0.12509000000E+03 0.  0.
         25    1    4    4    0    0 -0.76461649626E+02  0.45470193535E+01 -0.40433046516E+03  0.43011358082E+03  0.12509000000E+03 0.  0.
         25    1    3    3    0    0  0.95881828052E+02  0.96292210083E+01 -0.19050542346E+03  0.24743862131E+03  0.12509000000E+03 0.  0.
<mgrwt>
<rscale>  2 0.45191179E+03</rscale>
<asrwt>0</asrwt>
<pdfrwt beam="1">  1       21 0.85922088E-02 0.45191179E+03</pdfrwt>
<pdfrwt beam="2">  1       21 0.12850638E+00 0.45191179E+03</pdfrwt>
<totfact> 0.42893921E+04</totfact>
</mgrwt>
</event>
<event>
 7    0  0.4737014E-002  0.4598594E+03  0.7546771E-02  0.1024822E+00
         21   -1    0    0  502  501  0.00000000000E+00  0.00000000000E+00  0.24181473622E+03  0.24181473622E+03  0.00000000000E+00 0.  1.
         21   -1    0    0  501  502 -0.00000000000E+00 -0.00000000000E+00 -0.21862883496E+03  0.21862883496E+03  0.00000000000E+00 0.  1.
      99926    2    1    2    0    0  0.00000000000E+00  0.00000000000E+00  0.23185901265E+02  0.46044357118E+03  0.45985943094E+03 0.  0.
      99925    2    3    3    0    0 -0.43160056773E+02  0.74695083599E+02 -0.65684698443E+02  0.28441051290E+03  0.26293100659E+03 0.  0.
         25    1    3    3    0    0  0.43160056773E+02 -0.74695083599E+02  0.88870599708E+02  0.17603305828E+03  0.12509000000E+03 0.  0.
         25    1    4    4    0    0  0.73476769482E+01  0.38391264754E+02 -0.61191622702E+02  0.14463678770E+03  0.12509000000E+03 0.  0.
         25    1    4    4    0    0 -0.50507733721E+02  0.36303818845E+02 -0.44930757408E+01  0.13977372521E+03  0.12509000000E+03 0.  0.
<mgrwt>
<rscale>  2 0.45985943E+03</rscale>
<asrwt>0</asrwt>
<pdfrwt beam="1">  1       21 0.35560991E-01 0.45985943E+03</pdfrwt>
<pdfrwt beam="2">  1       21 0.32151299E-01 0.45985943E+03</pdfrwt>
<totfact> 0.65569432E+04</totfact>
</mgrwt>
</event>
<event>
 7    0  0.4737014E-002  0.4571713E+03  0.7546771E-02  0.1025605E+00
         21   -1    0    0  502  501  0.00000000000E+00  0.00000000000E+00  0.10568977284E+04  0.10568977284E+04  0.00000000000E+00 0.  1.
         21   -1    0    0  501  502 -0.00000000000E+00 -0.00000000000E+00 -0.49438464273E+02  0.49438464273E+02  0.00000000000E+00 0.  1.
      99926    2    1    2    0    0  0.48849813084E-14  0.00000000000E+00  0.10074592642E+04  0.11063361927E+04  0.45717130526E+03 0.  0.
      99925    2    3    3    0    0 -0.85314164677E+00 -0.20388879345E+02  0.35827356979E+03  0.44489382324E+03  0.26297172642E+03 0.  0.
         25    1    3    3    0    0  0.85314164677E+00  0.20388879345E+02  0.64918569438E+03  0.66144236948E+03  0.12509000000E+03 0.  0.
         25    1    4    4    0    0  0.31293987128E+02 -0.32766048790E+02  0.20045418399E+03  0.24058743850E+03  0.12509000000E+03 0.  0.
         25    1    4    4    0    0 -0.32147128775E+02  0.12377169445E+02  0.15781938580E+03  0.20430638474E+03  0.12509000000E+03 0.  0.
<mgrwt>
<rscale>  2 0.45717131E+03</rscale>
<asrwt>0</asrwt>
<pdfrwt beam="1">  1       21 0.15542612E+00 0.45717131E+03</pdfrwt>
<pdfrwt beam="2">  1       21 0.72703631E-02 0.45717131E+03</pdfrwt>
<totfact> 0.34683024E+04</totfact>
</mgrwt>
</event>
<event>
 7    0  0.4737014E-002  0.4472851E+03  0.7546771E-02  0.1028535E+00
         21   -1    0    0  502  501  0.00000000000E+00  0.00000000000E+00  0.49438278349E+03  0.49438278349E+03  0.00000000000E+00 0.  1.
         21   -1    0    0  501  502 -0.00000000000E+00 -0.00000000000E+00 -0.10116854448E+03  0.10116854448E+03  0.00000000000E+00 0.  1.
      99926    2    1    2    0    0  0.00000000000E+00  0.00000000000E+00  0.39321423900E+03  0.59555132797E+03  0.44728508413E+03 0.  0.
      99925    2    3    3    0    0 -0.64257888091E+02  0.83417268458E+02  0.27073622246E+03  0.39125769249E+03  0.26210105479E+03 0.  0.
         25    1    4    4    0    0 -0.38420232229E+02  0.38585676062E+01  0.14296383806E+03  0.19384831669E+03  0.12509000000E+03 0.  0.
         25    1    3    3    0    0  0.64257888091E+02 -0.83417268458E+02  0.12247801655E+03  0.20429363548E+03  0.12509000000E+03 0.  0.
         25    1    4    4    0    0 -0.25837655862E+02  0.79558700852E+02  0.12777238439E+03  0.19740937580E+03  0.12509000000E+03 0.  0.
<mgrwt>
<rscale>  2 0.44728508E+03</rscale>
<asrwt>0</asrwt>
<pdfrwt beam="1">  1       21 0.72703350E-01 0.44728508E+03</pdfrwt>
<pdfrwt beam="2">  1       21 0.14877727E-01 0.44728508E+03</pdfrwt>
<totfact> 0.62688083E+04</totfact>
</mgrwt>
</event>
<event>
 7    0  0.4737014E-002  0.4635939E+03  0.7546771E-02  0.1023744E+00
         21   -1    0    0  502  501  0.00000000000E+00  0.00000000000E+00  0.36297179798E+03  0.36297179798E+03  0.00000000000E+00 0. -1.
         21   -1    0    0  501  502 -0.00000000000E+00 -0.00000000000E+00 -0.14802752273E+03  0.14802752273E+03  0.00000000000E+00 0. -1.
      99926    2    1    2    0    0  0.17763568394E-14 -0.14210854715E-13  0.21494427525E+03  0.51099932070E+03  0.46359385705E+03 0.  0.
      99925    2    3    3    0    0  0.13170533764E+02 -0.11732652661E+03  0.16348339062E+03  0.33145905349E+03  0.26305761408E+03 0.  0.
         25    1    3    3    0    0 -0.13170533764E+02  0.11732652661E+03  0.51460884632E+02  0.17954026722E+03  0.12509000000E+03 0.  0.
         25    1    4    4    0    0  0.30104040760E+02 -0.42628210487E+02  0.44709861264E+02  0.14272314947E+03  0.12509000000E+03 0.  0.
         25    1    4    4    0    0 -0.16933506997E+02 -0.74698316121E+02  0.11877352935E+03  0.18873590402E+03  0.12509000000E+03 0.  0.
<mgrwt>
<rscale>  2 0.46359386E+03</rscale>
<asrwt>0</asrwt>
<pdfrwt beam="1">  1       21 0.53378205E-01 0.46359386E+03</pdfrwt>
<pdfrwt beam="2">  1       21 0.21768753E-01 0.46359386E+03</pdfrwt>
<totfact> 0.60286353E+04</totfact>
</mgrwt>
</event>
<event>
 7    0  0.4737014E-002  0.4583214E+03  0.7546771E-02  0.1025269E+00
         21   -1    0    0  502  501  0.00000000000E+00  0.00000000000E+00  0.13104337429E+03  0.13104337429E+03  0.00000000000E+00 0. -1.
         21   -1    0    0  501  502 -0.00000000000E+00 -0.00000000000E+00 -0.40074236067E+03  0.40074236067E+03  0.00000000000E+00 0. -1.
      99926    2    1    2    0    0  0.14210854715E-13  0.71054273576E-14 -0.26969898638E+03  0.53178573496E+03  0.45832142068E+03 0.  0.
      99925    2    3    3    0    0  0.10665277575E+03  0.43558860079E+02 -0.18692513425E+03  0.34265295736E+03  0.26305485075E+03 0.  0.
         25    1    4    4    0    0  0.31968565342E+02 -0.12392693145E+02 -0.10180300373E+03  0.16488458898E+03  0.12509000000E+03 0.  0.
         25    1    4    4    0    0  0.74684210410E+02  0.55951553224E+02 -0.85122130513E+02  0.17776836838E+03  0.12509000000E+03 0.  0.
         25    1    3    3    0    0 -0.10665277575E+03 -0.43558860079E+02 -0.82773852135E+02  0.18913277760E+03  0.12509000000E+03 0.  0.
<mgrwt>
<rscale>  2 0.45832142E+03</rscale>
<asrwt>0</asrwt>
<pdfrwt beam="1">  1       21 0.19271085E-01 0.45832142E+03</pdfrwt>
<pdfrwt beam="2">  1       21 0.58932700E-01 0.45832142E+03</pdfrwt>
<totfact> 0.61452032E+04</totfact>
</mgrwt>
</event>
<event>
 7    0  0.4737014E-002  0.4635518E+03  0.7546771E-02  0.1023756E+00
         21   -1    0    0  502  501  0.00000000000E+00  0.00000000000E+00  0.12200441966E+04  0.12200441966E+04  0.00000000000E+00 0.  1.
         21   -1    0    0  501  502 -0.00000000000E+00 -0.00000000000E+00 -0.44031241455E+02  0.44031241455E+02  0.00000000000E+00 0.  1.
      99926    2    1    2    0    0  0.00000000000E+00  0.00000000000E+00  0.11760129551E+04  0.12640754380E+04  0.46355176887E+03 0.  0.
      99925    2    3    3    0    0  0.11198861531E+03 -0.74784024604E+01  0.85773460244E+03  0.90415045370E+03  0.26302474834E+03 0.  0.
         25    1    4    4    0    0  0.22369476449E+02 -0.36705892021E+01  0.30626801929E+03  0.33160439449E+03  0.12509000000E+03 0.  0.
         25    1    3    3    0    0 -0.11198861531E+03  0.74784024604E+01  0.31827835268E+03  0.35992498433E+03  0.12509000000E+03 0.  0.
         25    1    4    4    0    0  0.89619138856E+02 -0.38078132583E+01  0.55146658315E+03  0.57254605921E+03  0.12509000000E+03 0.  0.
<mgrwt>
<rscale>  2 0.46355177E+03</rscale>
<asrwt>0</asrwt>
<pdfrwt beam="1">  1       21 0.17941824E+00 0.46355177E+03</pdfrwt>
<pdfrwt beam="2">  1       21 0.64751834E-02 0.46355177E+03</pdfrwt>
<totfact> 0.28248483E+04</totfact>
</mgrwt>
</event>
<event>
 7    0  0.4737014E-002  0.4643555E+03  0.7546771E-02  0.1023526E+00
         21   -1    0    0  502  501  0.00000000000E+00  0.00000000000E+00  0.13062509588E+03  0.13062509588E+03  0.00000000000E+00 0. -1.
         21   -1    0    0  501  502 -0.00000000000E+00 -0.00000000000E+00 -0.41268102436E+03  0.41268102436E+03  0.00000000000E+00 0. -1.
      99926    2    1    2    0    0  0.00000000000E+00  0.35527136788E-14 -0.28205592848E+03  0.54330612024E+03  0.46435546029E+03 0.  0.
      99925    2    3    3    0    0 -0.67940312620E+02 -0.26103792504E+02 -0.29014718048E+03  0.39835692045E+03  0.26306948828E+03 0.  0.
         25    1    4    4    0    0 -0.42435887393E+02 -0.53245215622E+02 -0.15352693948E+03  0.20941319627E+03  0.12509000000E+03 0.  0.
         25    1    3    3    0    0  0.67940312620E+02  0.26103792504E+02  0.80912519950E+01  0.14494919979E+03  0.12509000000E+03 0.  0.
         25    1    4    4    0    0 -0.25504425227E+02  0.27141423118E+02 -0.13662024100E+03  0.18894372418E+03  0.12509000000E+03 0.  0.
<mgrwt>
<rscale>  2 0.46435546E+03</rscale>
<asrwt>0</asrwt>
<pdfrwt beam="1">  1       21 0.19209573E-01 0.46435546E+03</pdfrwt>
<pdfrwt beam="2">  1       21 0.60688385E-01 0.46435546E+03</pdfrwt>
<totfact> 0.57901407E+04</totfact>
</mgrwt>
</event>
<event>
 7    0  0.4737014E-002  0.4561911E+03  0.7546771E-02  0.1025892E+00
         21   -1    0    0  502  501  0.00000000000E+00  0.00000000000E+00  0.69710308886E+02  0.69710308886E+02  0.00000000000E+00 0.  1.
         21   -1    0    0  501  502 -0.00000000000E+00 -0.00000000000E+00 -0.74633994357E+03  0.74633994357E+03  0.00000000000E+00 0.  1.
      99926    2    1    2    0    0  0.00000000000E+00 -0.71054273576E-14 -0.67662963468E+03  0.81605025246E+03  0.45619113538E+03 0.  0.
      99925    2    3    3    0    0  0.10162044869E+03  0.37331005442E+02 -0.35826824033E+03  0.45727204092E+03  0.26271899021E+03 0.  0.
         25    1    4    4    0    0  0.14729387517E+02  0.35921645248E+02 -0.14799636584E+03  0.19763034143E+03  0.12509000000E+03 0.  0.
         25    1    3    3    0    0 -0.10162044869E+03 -0.37331005442E+02 -0.31836139436E+03  0.35877821154E+03  0.12509000000E+03 0.  0.
         25    1    4    4    0    0  0.86891061176E+02  0.14093601944E+01 -0.21027187449E+03  0.25964169948E+03  0.12509000000E+03 0.  0.
<mgrwt>
<rscale>  2 0.45619114E+03</rscale>
<asrwt>0</asrwt>
<pdfrwt beam="1">  1       21 0.10251517E-01 0.45619114E+03</pdfrwt>
<pdfrwt beam="2">  1       21 0.10975587E+00 0.45619114E+03</pdfrwt>
<totfact> 0.46561539E+04</totfact>
</mgrwt>
</event>
<event>
 7    0  0.4737014E-002  0.4514940E+03  0.7546771E-02  0.1027277E+00
         21   -1    0    0  502  501  0.00000000000E+00  0.00000000000E+00  0.54489209970E+03  0.54489209970E+03  0.00000000000E+00 0. -1.
         21   -1    0    0  501  502 -0.00000000000E+00 -0.00000000000E+00 -0.93526252801E+02  0.93526252801E+02  0.00000000000E+00 0. -1.
      99926    2    1    2    0    0  0.35527136788E-14  0.00000000000E+00  0.45136584690E+03  0.63841835250E+03  0.45149403658E+03 0.  0.
      99925    2    3    3    0    0 -0.25997376962E+02  0.91574477908E+02  0.36343512150E+03  0.45830430757E+03  0.26248047962E+03 0.  0.
         25    1    4    4    0    0 -0.40114170621E+02  0.28660288082E+02  0.21644795398E+03  0.25480930846E+03  0.12509000000E+03 0.  0.
         25    1    3    3    0    0  0.25997376962E+02 -0.91574477908E+02  0.87930725395E+02  0.18011404493E+03  0.12509000000E+03 0.  0.
         25    1    4    4    0    0  0.14116793659E+02  0.62914189826E+02  0.14698716752E+03  0.20349499911E+03  0.12509000000E+03 0.  0.
<mgrwt>
<rscale>  2 0.45149404E+03</rscale>
<asrwt>0</asrwt>
<pdfrwt beam="1">  1       21 0.80131190E-01 0.45149404E+03</pdfrwt>
<pdfrwt beam="2">  1       21 0.13753861E-01 0.45149404E+03</pdfrwt>
<totfact> 0.57960782E+04</totfact>
</mgrwt>
</event>
<event>
 7    0  0.4737014E-002  0.4562880E+03  0.7546771E-02  0.1025863E+00
         21   -1    0    0  502  501  0.00000000000E+00  0.00000000000E+00  0.33635518475E+03  0.33635518475E+03  0.00000000000E+00 0.  1.
         21   -1    0    0  501  502 -0.00000000000E+00 -0.00000000000E+00 -0.15474618426E+03  0.15474618426E+03  0.00000000000E+00 0.  1.
      99926    2    1    2    0    0 -0.14210854715E-13  0.71054273576E-14  0.18160900048E+03  0.49110136901E+03  0.45628798536E+03 0.  0.
      99925    2    3    3    0    0  0.10835941533E+03 -0.33280152108E+02  0.96851358534E+02  0.30220801978E+03  0.26286911221E+03 0.  0.
         25    1    4    4    0    0  0.17362762612E+02  0.34266410818E+01  0.30698698119E+02  0.13001202083E+03  0.12509000000E+03 0.  0.
         25    1    3    3    0    0 -0.10835941533E+03  0.33280152108E+02  0.84757641949E+02  0.18889334923E+03  0.12509000000E+03 0.  0.
         25    1    4    4    0    0  0.90996652718E+02 -0.36706793190E+02  0.66152660414E+02  0.17219599894E+03  0.12509000000E+03 0.  0.
<mgrwt>
<rscale>  2 0.45628799E+03</rscale>
<asrwt>0</asrwt>
<pdfrwt beam="1">  1       21 0.49463998E-01 0.45628799E+03</pdfrwt>
<pdfrwt beam="2">  1       21 0.22756792E-01 0.45628799E+03</pdfrwt>
<totfact> 0.65230912E+04</totfact>
</mgrwt>
</event>
<event>
 7    0  0.4737014E-002  0.4505594E+03  0.7546771E-02  0.1027555E+00
         21   -1    0    0  502  501  0.00000000000E+00  0.00000000000E+00  0.20715610063E+03  0.20715610063E+03  0.00000000000E+00 0. -1.
         21   -1    0    0  501  502 -0.00000000000E+00 -0.00000000000E+00 -0.24498890278E+03  0.24498890278E+03  0.00000000000E+00 0. -1.
      99926    2    1    2    0    0  0.00000000000E+00  0.00000000000E+00 -0.37832802151E+02  0.45214500341E+03  0.45055941139E+03 0.  0.
      99925    2    3    3    0    0 -0.41168146172E+02 -0.87577376300E+02  0.26125109835E+02  0.28154976401E+03  0.26310289841E+03 0.  0.
         25    1    4    4    0    0 -0.22187734725E+02 -0.92261072362E+01 -0.11956297785E+02  0.12793700709E+03  0.12509000000E+03 0.  0.
         25    1    3    3    0    0  0.41168146172E+02  0.87577376300E+02 -0.63957911985E+02  0.17059523940E+03  0.12509000000E+03 0.  0.
         25    1    4    4    0    0 -0.18980411447E+02 -0.78351269064E+02  0.38081407620E+02  0.15361275692E+03  0.12509000000E+03 0.  0.
<mgrwt>
<rscale>  2 0.45055941E+03</rscale>
<asrwt>0</asrwt>
<pdfrwt beam="1">  1       21 0.30464133E-01 0.45055941E+03</pdfrwt>
<pdfrwt beam="2">  1       21 0.36027780E-01 0.45055941E+03</pdfrwt>
<totfact> 0.71246483E+04</totfact>
</mgrwt>
</event>
<event>
 7    0  0.4737014E-002  0.4447009E+03  0.7546771E-02  0.1029314E+00
         21   -1    0    0  502  501  0.00000000000E+00  0.00000000000E+00  0.44206246455E+03  0.44206246455E+03  0.00000000000E+00 0. -1.
         21   -1    0    0  501  502 -0.00000000000E+00 -0.00000000000E+00 -0.11183876969E+03  0.11183876969E+03  0.00000000000E+00 0. -1.
      99926    2    1    2    0    0  0.00000000000E+00 -0.11102230246E-14  0.33022369486E+03  0.55390123424E+03  0.44470089796E+03 0.  0.
      99925    2    3    3    0    0  0.76589374007E+02 -0.10808252974E+01  0.29605982851E+03  0.40329652562E+03  0.26292501807E+03 0.  0.
         25    1    4    4    0    0  0.14936374887E+02  0.26745273995E+02  0.16989132451E+03  0.21318765259E+03  0.12509000000E+03 0.  0.
         25    1    3    3    0    0 -0.76589374007E+02  0.10808252974E+01  0.34163866351E+02  0.15060470862E+03  0.12509000000E+03 0.  0.
         25    1    4    4    0    0  0.61652999120E+02 -0.27826099293E+02  0.12616850400E+03  0.19010887303E+03  0.12509000000E+03 0.  0.
<mgrwt>
<rscale>  2 0.44470090E+03</rscale>
<asrwt>0</asrwt>
<pdfrwt beam="1">  1       21 0.65009185E-01 0.44470090E+03</pdfrwt>
<pdfrwt beam="2">  1       21 0.16446878E-01 0.44470090E+03</pdfrwt>
<totfact> 0.66895490E+04</totfact>
</mgrwt>
</event>
<event>
 7    0  0.4737014E-002  0.4526725E+03  0.7546771E-02  0.1026928E+00
         21   -1    0    0  502  501  0.00000000000E+00  0.00000000000E+00  0.86343458276E+02  0.86343458276E+02  0.00000000000E+00 0. -1.
         21   -1    0    0  501  502 -0.00000000000E+00 -0.00000000000E+00 -0.59330606986E+03  0.59330606986E+03  0.00000000000E+00 0. -1.
      99926    2    1    2    0    0  0.00000000000E+00  0.35527136788E-14 -0.50696261158E+03  0.67964952813E+03  0.45267249922E+03 0.  0.
      99925    2    3    3    0    0  0.10826129401E+03 -0.22029337717E+02 -0.33683721232E+03  0.44133050020E+03  0.26288306013E+03 0.  0.
         25    1    3    3    0    0 -0.10826129401E+03  0.22029337717E+02 -0.17012539926E+03  0.23831902793E+03  0.12509000000E+03 0.  0.
         25    1    4    4    0    0  0.56403686459E+02 -0.51512898060E+02 -0.17339043578E+03  0.22703899628E+03  0.12509000000E+03 0.  0.
         25    1    4    4    0    0  0.51857607548E+02  0.29483560343E+02 -0.16344677654E+03  0.21429150392E+03  0.12509000000E+03 0.  0.
<mgrwt>
<rscale>  2 0.45267250E+03</rscale>
<asrwt>0</asrwt>
<pdfrwt beam="1">  1       21 0.12697568E-01 0.45267250E+03</pdfrwt>
<pdfrwt beam="2">  1       21 0.87250891E-01 0.45267250E+03</pdfrwt>
<totfact> 0.55023803E+04</totfact>
</mgrwt>
</event>
<event>
 7    0  0.4737014E-002  0.4544337E+03  0.7546771E-02  0.1026408E+00
         21   -1    0    0  502  501  0.00000000000E+00  0.00000000000E+00  0.73800350827E+02  0.73800350827E+02  0.00000000000E+00 0. -1.
         21   -1    0    0  501  502 -0.00000000000E+00 -0.00000000000E+00 -0.69955636977E+03  0.69955636977E+03  0.00000000000E+00 0. -1.
      99926    2    1    2    0    0 -0.14210854715E-13 -0.71054273576E-14 -0.62575601895E+03  0.77335672060E+03  0.45443373780E+03 0.  0.
      99925    2    3    3    0    0  0.96864463360E+02 -0.39400958374E+02 -0.32207881658E+03  0.42867931908E+03  0.26286124616E+03 0.  0.
         25    1    4    4    0    0  0.84389278225E+02 -0.41041152467E+02 -0.16242030405E+03  0.22546349980E+03  0.12509000000E+03 0.  0.
         25    1    4    4    0    0  0.12475185135E+02  0.16401940929E+01 -0.15965851253E+03  0.20321581928E+03  0.12509000000E+03 0.  0.
         25    1    3    3    0    0 -0.96864463360E+02  0.39400958374E+02 -0.30367720237E+03  0.34467740152E+03  0.12509000000E+03 0.  0.
<mgrwt>
<rscale>  2 0.45443374E+03</rscale>
<asrwt>0</asrwt>
<pdfrwt beam="1">  1       21 0.10852992E-01 0.45443374E+03</pdfrwt>
<pdfrwt beam="2">  1       21 0.10287594E+00 0.45443374E+03</pdfrwt>
<totfact> 0.49299283E+04</totfact>
</mgrwt>
</event>
<event>
 7    0  0.4737014E-002  0.3964581E+03  0.7546771E-02  0.1045013E+00
         21   -1    0    0  502  501  0.00000000000E+00  0.00000000000E+00  0.69553165645E+03  0.69553165645E+03  0.00000000000E+00 0. -1.
         21   -1    0    0  501  502 -0.00000000000E+00 -0.00000000000E+00 -0.56496009575E+02  0.56496009575E+02  0.00000000000E+00 0. -1.
      99926    2    1    2    0    0 -0.26645352591E-14 -0.35527136788E-14  0.63903564687E+03  0.75202766602E+03  0.39645813460E+03 0.  0.
      99925    2    3    3    0    0 -0.75735531618E+01 -0.30645752387E+02  0.40054989978E+03  0.48088290669E+03  0.26421889956E+03 0.  0.
         25    1    4    4    0    0 -0.29290134902E+02 -0.34405739217E+02  0.15358156506E+03  0.20316611952E+03  0.12509000000E+03 0.  0.
         25    1    3    3    0    0  0.75735531618E+01  0.30645752387E+02  0.23848574710E+03  0.27114475934E+03  0.12509000000E+03 0.  0.
         25    1    4    4    0    0  0.21716581741E+02  0.37599868302E+01  0.24696833471E+03  0.27771678717E+03  0.12509000000E+03 0.  0.
<mgrwt>
<rscale>  2 0.39645813E+03</rscale>
<asrwt>0</asrwt>
<pdfrwt beam="1">  1       21 0.10228406E+00 0.39645813E+03</pdfrwt>
<pdfrwt beam="2">  1       21 0.83082371E-02 0.39645813E+03</pdfrwt>
<totfact> 0.81769494E+04</totfact>
</mgrwt>
</event>
<event>
 7    0  0.4737014E-002  0.4509913E+03  0.7546771E-02  0.1027427E+00
         21   -1    0    0  502  501  0.00000000000E+00  0.00000000000E+00  0.46848187240E+02  0.46848187240E+02  0.00000000000E+00 0. -1.
         21   -1    0    0  501  502 -0.00000000000E+00 -0.00000000000E+00 -0.10853845595E+04  0.10853845595E+04  0.00000000000E+00 0. -1.
      99926    2    1    2    0    0  0.00000000000E+00 -0.17763568394E-14 -0.10385363723E+04  0.11322327468E+04  0.45099134835E+03 0.  0.
      99925    2    3    3    0    0  0.71587710895E+02  0.15990516101E+02 -0.45256055921E+03  0.52858081182E+03  0.26307055691E+03 0.  0.
         25    1    4    4    0    0  0.63547578666E+02  0.74126805357E+01 -0.29748724776E+03  0.32899758854E+03  0.12509000000E+03 0.  0.
         25    1    3    3    0    0 -0.71587710895E+02 -0.15990516101E+02 -0.58597581309E+03  0.60365193496E+03  0.12509000000E+03 0.  0.
         25    1    4    4    0    0  0.80401322289E+01  0.85778355652E+01 -0.15507331145E+03  0.19958322328E+03  0.12509000000E+03 0.  0.
<mgrwt>
<rscale>  2 0.45099135E+03</rscale>
<asrwt>0</asrwt>
<pdfrwt beam="1">  1       21 0.68894395E-02 0.45099135E+03</pdfrwt>
<pdfrwt beam="2">  1       21 0.15961537E+00 0.45099135E+03</pdfrwt>
<totfact> 0.35476827E+04</totfact>
</mgrwt>
</event>
<event>
 7    0  0.4737014E-002  0.4486716E+03  0.7546771E-02  0.1028119E+00
         21   -1    0    0  502  501  0.00000000000E+00  0.00000000000E+00  0.21399824656E+03  0.21399824656E+03  0.00000000000E+00 0.  1.
         21   -1    0    0  501  502 -0.00000000000E+00 -0.00000000000E+00 -0.23517268996E+03  0.23517268996E+03  0.00000000000E+00 0.  1.
      99926    2    1    2    0    0  0.00000000000E+00 -0.88817841970E-15 -0.21174443403E+02  0.44917093652E+03  0.44867156491E+03 0.  0.
      99925    2    3    3    0    0  0.82078492888E+02  0.40274384269E+01  0.55511731078E+02  0.28100025919E+03  0.26291917793E+03 0.  0.
         25    1    4    4    0    0  0.80173957127E+02  0.82022399773E+01  0.44636216002E+02  0.15535456228E+03  0.12509000000E+03 0.  0.
         25    1    4    4    0    0  0.19045357609E+01 -0.41748015504E+01  0.10875515076E+02  0.12564569691E+03  0.12509000000E+03 0.  0.
         25    1    3    3    0    0 -0.82078492888E+02 -0.40274384269E+01 -0.76686174481E+02  0.16817067732E+03  0.12509000000E+03 0.  0.
<mgrwt>
<rscale>  2 0.44867156E+03</rscale>
<asrwt>0</asrwt>
<pdfrwt beam="1">  1       21 0.31470330E-01 0.44867156E+03</pdfrwt>
<pdfrwt beam="2">  1       21 0.34584219E-01 0.44867156E+03</pdfrwt>
<totfact> 0.72570700E+04</totfact>
</mgrwt>
</event>
<event>
 7    0  0.4737014E-002  0.4530504E+03  0.7546771E-02  0.1026816E+00
         21   -1    0    0  502  501  0.00000000000E+00  0.00000000000E+00  0.74967103654E+02  0.74967103654E+02  0.00000000000E+00 0. -1.
         21   -1    0    0  501  502 -0.00000000000E+00 -0.00000000000E+00 -0.68448236919E+03  0.68448236919E+03  0.00000000000E+00 0. -1.
      99926    2    1    2    0    0  0.00000000000E+00  0.00000000000E+00 -0.60951526553E+03  0.75944947284E+03  0.45305037566E+03 0.  0.
      99925    2    3    3    0    0  0.97039051685E+02  0.31921729506E+02 -0.31069450555E+03  0.41977767675E+03  0.26314757789E+03 0.  0.
         25    1    3    3    0    0 -0.97039051685E+02 -0.31921729506E+02 -0.29882075998E+03  0.33967179609E+03  0.12509000000E+03 0.  0.
         25    1    4    4    0    0  0.44897247414E+02 -0.34251693980E+01 -0.20491358006E+03  0.24426333741E+03  0.12509000000E+03 0.  0.
         25    1    4    4    0    0  0.52141804270E+02  0.35346898904E+02 -0.10578092550E+03  0.17551433934E+03  0.12509000000E+03 0.  0.
<mgrwt>
<rscale>  2 0.45305038E+03</rscale>
<asrwt>0</asrwt>
<pdfrwt beam="1">  1       21 0.11024574E-01 0.45305038E+03</pdfrwt>
<pdfrwt beam="2">  1       21 0.10065917E+00 0.45305038E+03</pdfrwt>
<totfact> 0.50557709E+04</totfact>
</mgrwt>
</event>
<event>
 7    0  0.5135974E-002  0.4190621E+03  0.7546771E-02  0.1037372E+00
         21   -1    0    0  502  501  0.00000000000E+00  0.00000000000E+00  0.28946599014E+03  0.28946599014E+03  0.00000000000E+00 0. -1.
         21   -1    0    0  501  502 -0.00000000000E+00 -0.00000000000E+00 -0.15166987311E+03  0.15166987311E+03  0.00000000000E+00 0. -1.
      99926    2    1    2    0    0  0.00000000000E+00  0.00000000000E+00  0.13779611703E+03  0.44113586326E+03  0.41906214334E+03 0.  0.
      99925    2    3    3    0    0  0.68917445137E+02 -0.13194460516E+02  0.11606149769E+03  0.29607170569E+03  0.26318145001E+03 0.  0.
         25    1    3    3    0    0 -0.68917445137E+02  0.13194460516E+02  0.21734619338E+02  0.14506415757E+03  0.12509000000E+03 0.  0.
         25    1    4    4    0    0  0.68365843847E+02 -0.28188684901E+02  0.49026139613E+02  0.15336088493E+03  0.12509000000E+03 0.  0.
         25    1    4    4    0    0  0.55160129020E+00  0.14994224385E+02  0.67035358081E+02  0.14271082076E+03  0.12509000000E+03 0.  0.
<mgrwt>
<rscale>  2 0.41906214E+03</rscale>
<asrwt>0</asrwt>
<pdfrwt beam="1">  1       21 0.42568528E-01 0.41906214E+03</pdfrwt>
<pdfrwt beam="2">  1       21 0.22304393E-01 0.41906214E+03</pdfrwt>
<totfact> 0.93621909E+04</totfact>
</mgrwt>
</event>
<event>
 7    0  0.4737014E-002  0.4612209E+03  0.7546771E-02  0.1024428E+00
         21   -1    0    0  502  501  0.00000000000E+00  0.00000000000E+00  0.14263008285E+03  0.14263008285E+03  0.00000000000E+00 0. -1.
         21   -1    0    0  501  502 -0.00000000000E+00 -0.00000000000E+00 -0.37286093649E+03  0.37286093649E+03  0.00000000000E+00 0. -1.
      99926    2    1    2    0    0  0.00000000000E+00  0.00000000000E+00 -0.23023085365E+03  0.51549101934E+03  0.46122092867E+03 0.  0.
      99925    2    3    3    0    0  0.99725773277E+02 -0.27254457271E+02 -0.78563502524E+02  0.29336824069E+03  0.26306779624E+03 0.  0.
         25    1    4    4    0    0  0.24270787135E+02 -0.26480948179E+02 -0.68152770020E+02  0.14691024432E+03  0.12509000000E+03 0.  0.
         25    1    3    3    0    0 -0.99725773277E+02  0.27254457271E+02 -0.15166735112E+03  0.22212277865E+03  0.12509000000E+03 0.  0.
         25    1    4    4    0    0  0.75454986142E+02 -0.77350909219E+00 -0.10410732504E+02  0.14645799637E+03  0.12509000000E+03 0.  0.
<mgrwt>
<rscale>  2 0.46122093E+03</rscale>
<asrwt>0</asrwt>
<pdfrwt beam="1">  1       21 0.20975012E-01 0.46122093E+03</pdfrwt>
<pdfrwt beam="2">  1       21 0.54832490E-01 0.46122093E+03</pdfrwt>
<totfact> 0.61121831E+04</totfact>
</mgrwt>
</event>
<event>
 7    0  0.4737014E-002  0.4542770E+03  0.7546771E-02  0.1026454E+00
         21   -1    0    0  502  501  0.00000000000E+00  0.00000000000E+00  0.92325988862E+03  0.92325988862E+03  0.00000000000E+00 0. -1.
         21   -1    0    0  501  502 -0.00000000000E+00 -0.00000000000E+00 -0.55880147098E+02  0.55880147098E+02  0.00000000000E+00 0. -1.
      99926    2    1    2    0    0  0.00000000000E+00 -0.71054273576E-14  0.86737974152E+03  0.97914003572E+03  0.45427700090E+03 0.  0.
      99925    2    3    3    0    0  0.29638181148E+02  0.55233830623E+02  0.74748213565E+03  0.79487896598E+03  0.26300918162E+03 0.  0.
         25    1    4    4    0    0  0.20314487626E+02  0.68810450205E+02  0.39984867687E+03  0.42505767722E+03  0.12509000000E+03 0.  0.
         25    1    4    4    0    0  0.93236935218E+01 -0.13576619583E+02  0.34763345878E+03  0.36982128876E+03  0.12509000000E+03 0.  0.
         25    1    3    3    0    0 -0.29638181148E+02 -0.55233830623E+02  0.11989760587E+03  0.18426106974E+03  0.12509000000E+03 0.  0.
<mgrwt>
<rscale>  2 0.45427700E+03</rscale>
<asrwt>0</asrwt>
<pdfrwt beam="1">  1       21 0.13577350E+00 0.45427700E+03</pdfrwt>
<pdfrwt beam="2">  1       21 0.82176693E-02 0.45427700E+03</pdfrwt>
<totfact> 0.40209487E+04</totfact>
</mgrwt>
</event>
<event>
 7    0  0.4737014E-002  0.4551012E+03  0.7546771E-02  0.1026212E+00
         21   -1    0    0  502  501  0.00000000000E+00  0.00000000000E+00  0.47128842985E+02  0.47128842985E+02  0.00000000000E+00 0. -1.
         21   -1    0    0  501  502 -0.00000000000E+00 -0.00000000000E+00 -0.10986748253E+04  0.10986748253E+04  0.00000000000E+00 0. -1.
      99926    2    1    2    0    0  0.00000000000E+00  0.00000000000E+00 -0.10515459824E+04  0.11458036683E+04  0.45510119022E+03 0.  0.
      99925    2    3    3    0    0 -0.54708384154E+02 -0.92525565391E+02 -0.57231455020E+03  0.63898588923E+03  0.26306849813E+03 0.  0.
         25    1    3    3    0    0  0.54708384154E+02  0.92525565391E+02 -0.47923143216E+03  0.50681777911E+03  0.12509000000E+03 0.  0.
         25    1    4    4    0    0 -0.62063481153E+02 -0.32482558851E+02 -0.32710835727E+03  0.35714755748E+03  0.12509000000E+03 0.  0.
         25    1    4    4    0    0  0.73550969992E+01 -0.60043006540E+02 -0.24520619293E+03  0.28183833174E+03  0.12509000000E+03 0.  0.
<mgrwt>
<rscale>  2 0.45510119E+03</rscale>
<asrwt>0</asrwt>
<pdfrwt beam="1">  1       21 0.69307125E-02 0.45510119E+03</pdfrwt>
<pdfrwt beam="2">  1       21 0.16156982E+00 0.45510119E+03</pdfrwt>
<totfact> 0.33896042E+04</totfact>
</mgrwt>
</event>
<event>
 7    0  0.4737014E-002  0.4504148E+03  0.7546771E-02  0.1027598E+00
         21   -1    0    0  502  501  0.00000000000E+00  0.00000000000E+00  0.12107579996E+03  0.12107579996E+03  0.00000000000E+00 0. -1.
         21   -1    0    0  501  502 -0.00000000000E+00 -0.00000000000E+00 -0.41889776520E+03  0.41889776520E+03  0.00000000000E+00 0. -1.
      99926    2    1    2    0    0  0.00000000000E+00  0.00000000000E+00 -0.29782196524E+03  0.53997356517E+03  0.45041484001E+03 0.  0.
      99925    2    3    3    0    0  0.92110871963E+02 -0.55094486481E+02 -0.21260115762E+03  0.35442058264E+03  0.26247834577E+03 0.  0.
         25    1    4    4    0    0  0.33367443827E+02 -0.35110543780E+02 -0.58135336479E+02  0.14619631336E+03  0.12509000000E+03 0.  0.
         25    1    4    4    0    0  0.58743428135E+02 -0.19983942701E+02 -0.15446582115E+03  0.20822426928E+03  0.12509000000E+03 0.  0.
         25    1    3    3    0    0 -0.92110871963E+02  0.55094486481E+02 -0.85220807613E+02  0.18555298253E+03  0.12509000000E+03 0.  0.
<mgrwt>
<rscale>  2 0.45041484E+03</rscale>
<asrwt>0</asrwt>
<pdfrwt beam="1">  1       21 0.17805264E-01 0.45041484E+03</pdfrwt>
<pdfrwt beam="2">  1       21 0.61602614E-01 0.45041484E+03</pdfrwt>
<totfact> 0.64855490E+04</totfact>
</mgrwt>
</event>
<event>
 7    0  0.4737014E-002  0.4553652E+03  0.7546771E-02  0.1026134E+00
         21   -1    0    0  502  501  0.00000000000E+00  0.00000000000E+00  0.31673975707E+02  0.31673975707E+02  0.00000000000E+00 0.  1.
         21   -1    0    0  501  502 -0.00000000000E+00 -0.00000000000E+00 -0.16366548127E+04  0.16366548127E+04  0.00000000000E+00 0.  1.
      99926    2    1    2    0    0  0.17763568394E-14  0.00000000000E+00 -0.16049808370E+04  0.16683287884E+04  0.45536519312E+03 0.  0.
      99925    2    3    3    0    0  0.12528104586E+02  0.23437986740E+02 -0.14138894831E+04  0.14383946538E+04  0.26303881277E+03 0.  0.
         25    1    4    4    0    0 -0.12464235527E+02  0.64837288660E-01 -0.88253143805E+03  0.89143962701E+03  0.12509000000E+03 0.  0.
         25    1    4    4    0    0  0.24992340113E+02  0.23373149451E+02 -0.53135804502E+03  0.54695502675E+03  0.12509000000E+03 0.  0.
         25    1    3    3    0    0 -0.12528104586E+02 -0.23437986740E+02 -0.19109135391E+03  0.22993413463E+03  0.12509000000E+03 0.  0.
<mgrwt>
<rscale>  2 0.45536519E+03</rscale>
<asrwt>0</asrwt>
<pdfrwt beam="1">  1       21 0.46579378E-02 0.45536519E+03</pdfrwt>
<pdfrwt beam="2">  1       21 0.24068452E+00 0.45536519E+03</pdfrwt>
<totfact> 0.19872475E+04</totfact>
</mgrwt>
</event>
<event>
 7    0  0.4737014E-002  0.4586109E+03  0.7546771E-02  0.1025185E+00
         21   -1    0    0  502  501  0.00000000000E+00  0.00000000000E+00  0.41561348897E+03  0.41561348897E+03  0.00000000000E+00 0.  1.
         21   -1    0    0  501  502 -0.00000000000E+00 -0.00000000000E+00 -0.12651417278E+03  0.12651417278E+03  0.00000000000E+00 0.  1.
      99926    2    1    2    0    0  0.00000000000E+00  0.88817841970E-15  0.28909931619E+03  0.54212766175E+03  0.45861093207E+03 0.  0.
      99925    2    3    3    0    0  0.84987587999E+02 -0.67061362987E+01  0.27471374442E+03  0.39006742647E+03  0.26347123835E+03 0.  0.
         25    1    3    3    0    0 -0.84987587999E+02  0.67061362987E+01  0.14385571769E+02  0.15206023528E+03  0.12509000000E+03 0.  0.
         25    1    4    4    0    0  0.78574540057E+01  0.20713476962E+02  0.13654767472E+03  0.18650352083E+03  0.12509000000E+03 0.  0.
         25    1    4    4    0    0  0.77130133994E+02 -0.27419613260E+02  0.13816606970E+03  0.20356390563E+03  0.12509000000E+03 0.  0.
<mgrwt>
<rscale>  2 0.45861093E+03</rscale>
<asrwt>0</asrwt>
<pdfrwt beam="1">  1       21 0.61119630E-01 0.45861093E+03</pdfrwt>
<pdfrwt beam="2">  1       21 0.18605026E-01 0.45861093E+03</pdfrwt>
<totfact> 0.60638312E+04</totfact>
</mgrwt>
</event>
<event>
 7    0  0.4737014E-002  0.4649320E+03  0.7546771E-02  0.1023360E+00
         21   -1    0    0  502  501  0.00000000000E+00  0.00000000000E+00  0.17523216061E+03  0.17523216061E+03  0.00000000000E+00 0. -1.
         21   -1    0    0  501  502 -0.00000000000E+00 -0.00000000000E+00 -0.30839336351E+03  0.30839336351E+03  0.00000000000E+00 0. -1.
      99926    2    1    2    0    0  0.00000000000E+00  0.00000000000E+00 -0.13316120290E+03  0.48362552412E+03  0.46493197527E+03 0.  0.
      99925    2    3    3    0    0  0.36832900790E+02  0.12356937739E+02  0.37473695855E+02  0.26851361542E+03  0.26303217920E+03 0.  0.
         25    1    3    3    0    0 -0.36832900790E+02 -0.12356937739E+02 -0.17063489876E+03  0.21511190870E+03  0.12509000000E+03 0.  0.
         25    1    4    4    0    0  0.58548865958E+02  0.14772954916E+02  0.19494736420E+02  0.14026319100E+03  0.12509000000E+03 0.  0.
         25    1    4    4    0    0 -0.21715965168E+02 -0.24160171770E+01  0.17978959435E+02  0.12825042442E+03  0.12509000000E+03 0.  0.
<mgrwt>
<rscale>  2 0.46493198E+03</rscale>
<asrwt>0</asrwt>
<pdfrwt beam="1">  1       21 0.25769436E-01 0.46493198E+03</pdfrwt>
<pdfrwt beam="2">  1       21 0.45351965E-01 0.46493198E+03</pdfrwt>
<totfact> 0.61448534E+04</totfact>
</mgrwt>
</event>
<event>
 7    0  0.4737014E-002  0.4497269E+03  0.7546771E-02  0.1027804E+00
         21   -1    0    0  502  501  0.00000000000E+00  0.00000000000E+00  0.14972582868E+03  0.14972582868E+03  0.00000000000E+00 0. -1.
         21   -1    0    0  501  502 -0.00000000000E+00 -0.00000000000E+00 -0.33770777271E+03  0.33770777271E+03  0.00000000000E+00 0. -1.
      99926    2    1    2    0    0  0.00000000000E+00  0.71054273576E-14 -0.18798194403E+03  0.48743360139E+03  0.44972692212E+03 0.  0.
      99925    2    3    3    0    0  0.59297311002E+02  0.49534996337E+02 -0.36841676879E+02  0.27657636199E+03  0.26299674504E+03 0.  0.
         25    1    3    3    0    0 -0.59297311002E+02 -0.49534996337E+02 -0.15114026715E+03  0.21085723940E+03  0.12509000000E+03 0.  0.
         25    1    4    4    0    0  0.11272506068E+02  0.29046994893E+02 -0.54350180385E+02  0.13990084887E+03  0.12509000000E+03 0.  0.
         25    1    4    4    0    0  0.48024804934E+02  0.20488001444E+02  0.17508503506E+02  0.13667551312E+03  0.12509000000E+03 0.  0.
<mgrwt>
<rscale>  2 0.44972692E+03</rscale>
<asrwt>0</asrwt>
<pdfrwt beam="1">  1       21 0.22018505E-01 0.44972692E+03</pdfrwt>
<pdfrwt beam="2">  1       21 0.49662906E-01 0.44972692E+03</pdfrwt>
<totfact> 0.69006618E+04</totfact>
</mgrwt>
</event>
<event>
 7    0  0.4737014E-002  0.4512256E+03  0.7546771E-02  0.1027357E+00
         21   -1    0    0  502  501  0.00000000000E+00  0.00000000000E+00  0.15595544027E+04  0.15595544027E+04  0.00000000000E+00 0. -1.
         21   -1    0    0  501  502 -0.00000000000E+00 -0.00000000000E+00 -0.32638259069E+02  0.32638259069E+02  0.00000000000E+00 0. -1.
      99926    2    1    2    0    0 -0.14210854715E-13 -0.14210854715E-13  0.15269161436E+04  0.15921926617E+04  0.45122562262E+03 0.  0.
      99925    2    3    3    0    0  0.73284707874E+02  0.78855231428E+02  0.89383733007E+03  0.93795639848E+03  0.26311259353E+03 0.  0.
         25    1    4    4    0    0 -0.47154620661E+01  0.43827878224E+02  0.40290912423E+03  0.42417730843E+03  0.12509000000E+03 0.  0.
         25    1    4    4    0    0  0.78000169940E+02  0.35027353204E+02  0.49092820584E+03  0.51377909005E+03  0.12509000000E+03 0.  0.
         25    1    3    3    0    0 -0.73284707874E+02 -0.78855231428E+02  0.63307881353E+03  0.65423626327E+03  0.12509000000E+03 0.  0.
<mgrwt>
<rscale>  2 0.45122562E+03</rscale>
<asrwt>0</asrwt>
<pdfrwt beam="1">  1       21 0.22934619E+00 0.45122562E+03</pdfrwt>
<pdfrwt beam="2">  1       21 0.47997450E-02 0.45122562E+03</pdfrwt>
<totfact> 0.22251839E+04</totfact>
</mgrwt>
</event>
<event>
 7    0  0.4737014E-002  0.4590124E+03  0.7546771E-02  0.1025068E+00
         21   -1    0    0  502  501  0.00000000000E+00  0.00000000000E+00  0.19957327298E+03  0.19957327298E+03  0.00000000000E+00 0.  1.
         21   -1    0    0  501  502 -0.00000000000E+00 -0.00000000000E+00 -0.26392858543E+03  0.26392858543E+03  0.00000000000E+00 0.  1.
      99926    2    1    2    0    0  0.22204460493E-14  0.00000000000E+00 -0.64355312451E+02  0.46350185842E+03  0.45901238166E+03 0.  0.
      99925    2    3    3    0    0 -0.28080251384E+01 -0.98963394285E+02  0.22325262628E+02  0.28194561752E+03  0.26304614704E+03 0.  0.
         25    1    4    4    0    0  0.29412946191E+02 -0.21065252078E+02  0.10327368086E+02  0.13062552921E+03  0.12509000000E+03 0.  0.
         25    1    3    3    0    0  0.28080251384E+01  0.98963394285E+02 -0.86680575079E+02  0.18155624090E+03  0.12509000000E+03 0.  0.
         25    1    4    4    0    0 -0.32220971329E+02 -0.77898142207E+02  0.11997894542E+02  0.15132008831E+03  0.12509000000E+03 0.  0.
<mgrwt>
<rscale>  2 0.45901238E+03</rscale>
<asrwt>0</asrwt>
<pdfrwt beam="1">  1       21 0.29349011E-01 0.45901238E+03</pdfrwt>
<pdfrwt beam="2">  1       21 0.38813027E-01 0.45901238E+03</pdfrwt>
<totfact> 0.65795470E+04</totfact>
</mgrwt>
</event>
<event>
 7    0  0.4737014E-002  0.4524213E+03  0.7546771E-02  0.1027002E+00
         21   -1    0    0  502  501  0.00000000000E+00  0.00000000000E+00  0.36249869478E+02  0.36249869478E+02  0.00000000000E+00 0.  1.
         21   -1    0    0  501  502 -0.00000000000E+00 -0.00000000000E+00 -0.14116261077E+04  0.14116261077E+04  0.00000000000E+00 0.  1.
      99926    2    1    2    0    0  0.00000000000E+00  0.71054273576E-14 -0.13753762382E+04  0.14478759771E+04  0.45242131760E+03 0.  0.
      99925    2    3    3    0    0  0.77156523615E+02 -0.39444914562E+02 -0.10882864336E+04  0.11229496864E+04  0.26294411231E+03 0.  0.
         25    1    4    4    0    0  0.19671967608E+02 -0.54093079927E+02 -0.50237535872E+03  0.52090455628E+03  0.12509000000E+03 0.  0.
         25    1    4    4    0    0  0.57484556007E+02  0.14648165365E+02 -0.58591107488E+03  0.60204513012E+03  0.12509000000E+03 0.  0.
         25    1    3    3    0    0 -0.77156523615E+02  0.39444914562E+02 -0.28708980459E+03  0.32492629075E+03  0.12509000000E+03 0.  0.
<mgrwt>
<rscale>  2 0.45242132E+03</rscale>
<asrwt>0</asrwt>
<pdfrwt beam="1">  1       21 0.53308637E-02 0.45242132E+03</pdfrwt>
<pdfrwt beam="2">  1       21 0.20759205E+00 0.45242132E+03</pdfrwt>
<totfact> 0.25592576E+04</totfact>
</mgrwt>
</event>
<event>
 7    0  0.4737014E-002  0.4535230E+03  0.7546771E-02  0.1026677E+00
         21   -1    0    0  502  501  0.00000000000E+00  0.00000000000E+00  0.56431545362E+03  0.56431545362E+03  0.00000000000E+00 0.  1.
         21   -1    0    0  501  502 -0.00000000000E+00 -0.00000000000E+00 -0.91120616975E+02  0.91120616975E+02  0.00000000000E+00 0.  1.
      99926    2    1    2    0    0  0.71054273576E-14 -0.22204460493E-14  0.47319483665E+03  0.65543607060E+03  0.45352297539E+03 0.  0.
      99925    2    3    3    0    0 -0.59807212887E+02  0.25065060172E+01  0.16151580048E+03  0.31429897943E+03  0.26289410298E+03 0.  0.
         25    1    3    3    0    0  0.59807212887E+02 -0.25065060172E+01  0.31167903616E+03  0.34113709117E+03  0.12509000000E+03 0.  0.
         25    1    4    4    0    0 -0.72548689665E+01  0.27703165467E+02  0.53413624472E+02  0.13899863985E+03  0.12509000000E+03 0.  0.
         25    1    4    4    0    0 -0.52552343921E+02 -0.25196659450E+02  0.10810217601E+03  0.17530033958E+03  0.12509000000E+03 0.  0.
<mgrwt>
<rscale>  2 0.45352298E+03</rscale>
<asrwt>0</asrwt>
<pdfrwt beam="1">  1       21 0.82987565E-01 0.45352298E+03</pdfrwt>
<pdfrwt beam="2">  1       21 0.13400091E-01 0.45352298E+03</pdfrwt>
<totfact> 0.56039413E+04</totfact>
</mgrwt>
</event>
<event>
 7    0  0.4737014E-002  0.4551048E+03  0.7546771E-02  0.1026211E+00
         21   -1    0    0  502  501  0.00000000000E+00  0.00000000000E+00  0.75026971602E+03  0.75026971602E+03  0.00000000000E+00 0. -1.
         21   -1    0    0  501  502 -0.00000000000E+00 -0.00000000000E+00 -0.69015309763E+02  0.69015309763E+02  0.00000000000E+00 0. -1.
      99926    2    1    2    0    0  0.00000000000E+00 -0.35527136788E-14  0.68125440625E+03  0.81928502578E+03  0.45510480928E+03 0.  0.
      99925    2    3    3    0    0  0.39779329414E+02  0.20409480287E+02  0.24408920567E+03  0.36238256066E+03  0.26408831479E+03 0.  0.
         25    1    4    4    0    0  0.14621679845E+02  0.33967074815E+02  0.76176469128E+02  0.15105601028E+03  0.12509000000E+03 0.  0.
         25    1    3    3    0    0 -0.39779329414E+02 -0.20409480287E+02  0.43716520058E+03  0.45690246512E+03  0.12509000000E+03 0.  0.
         25    1    4    4    0    0  0.25157649568E+02 -0.13557594528E+02  0.16791273654E+03  0.21132655038E+03  0.12509000000E+03 0.  0.
<mgrwt>
<rscale>  2 0.45510481E+03</rscale>
<asrwt>0</asrwt>
<pdfrwt beam="1">  1       21 0.11033378E+00 0.45510481E+03</pdfrwt>
<pdfrwt beam="2">  1       21 0.10149311E-01 0.45510481E+03</pdfrwt>
<totfact> 0.46807622E+04</totfact>
</mgrwt>
</event>
<event>
 7    0  0.4737014E-002  0.4509513E+03  0.7546771E-02  0.1027439E+00
         21   -1    0    0  502  501  0.00000000000E+00  0.00000000000E+00  0.58558075873E+02  0.58558075873E+02  0.00000000000E+00 0.  1.
         21   -1    0    0  501  502 -0.00000000000E+00 -0.00000000000E+00 -0.86818556820E+03  0.86818556820E+03  0.00000000000E+00 0.  1.
      99926    2    1    2    0    0  0.00000000000E+00  0.00000000000E+00 -0.80962749233E+03  0.92674364407E+03  0.45095133384E+03 0.  0.
      99925    2    3    3    0    0 -0.43026596804E+02 -0.97541509751E+02 -0.46120118237E+03  0.54149822136E+03  0.26296037525E+03 0.  0.
         25    1    4    4    0    0 -0.45017073326E+02 -0.81632012685E+02 -0.28357466671E+03  0.32365478845E+03  0.12509000000E+03 0.  0.
         25    1    4    4    0    0  0.19904765225E+01 -0.15909497066E+02 -0.17762651566E+03  0.21784343291E+03  0.12509000000E+03 0.  0.
         25    1    3    3    0    0  0.43026596804E+02  0.97541509751E+02 -0.34842630995E+03  0.38524542272E+03  0.12509000000E+03 0.  0.
<mgrwt>
<rscale>  2 0.45095133E+03</rscale>
<asrwt>0</asrwt>
<pdfrwt beam="1">  1       21 0.86114819E-02 0.45095133E+03</pdfrwt>
<pdfrwt beam="2">  1       21 0.12767435E+00 0.45095133E+03</pdfrwt>
<totfact> 0.43457144E+04</totfact>
</mgrwt>
</event>
<event>
 7    0  0.4737014E-002  0.4413068E+03  0.7546771E-02  0.1030347E+00
         21   -1    0    0  502  501  0.00000000000E+00  0.00000000000E+00  0.19516067267E+03  0.19516067267E+03  0.00000000000E+00 0. -1.
         21   -1    0    0  501  502 -0.00000000000E+00 -0.00000000000E+00 -0.24947606856E+03  0.24947606856E+03  0.00000000000E+00 0. -1.
      99926    2    1    2    0    0  0.00000000000E+00  0.00000000000E+00 -0.54315395885E+02  0.44463674123E+03  0.44130677473E+03 0.  0.
      99925    2    3    3    0    0 -0.94337891522E+02 -0.27022055957E+02 -0.52669116346E+02  0.28563973616E+03  0.26303268575E+03 0.  0.
         25    1    4    4    0    0 -0.77102458372E+02 -0.29546083947E+02 -0.29631794404E+01  0.14991347070E+03  0.12509000000E+03 0.  0.
         25    1    4    4    0    0 -0.17235433150E+02  0.25240279900E+01 -0.49705936905E+02  0.13572626546E+03  0.12509000000E+03 0.  0.
         25    1    3    3    0    0  0.94337891522E+02  0.27022055957E+02 -0.16462795398E+01  0.15899700507E+03  0.12509000000E+03 0.  0.
<mgrwt>
<rscale>  2 0.44130677E+03</rscale>
<asrwt>0</asrwt>
<pdfrwt beam="1">  1       21 0.28700099E-01 0.44130677E+03</pdfrwt>
<pdfrwt beam="2">  1       21 0.36687657E-01 0.44130677E+03</pdfrwt>
<totfact> 0.77431421E+04</totfact>
</mgrwt>
</event>
<event>
 7    0  0.4737014E-002  0.4440065E+03  0.7546771E-02  0.1029525E+00
         21   -1    0    0  502  501  0.00000000000E+00  0.00000000000E+00  0.10502881871E+03  0.10502881871E+03  0.00000000000E+00 0.  1.
         21   -1    0    0  501  502 -0.00000000000E+00 -0.00000000000E+00 -0.46925631426E+03  0.46925631426E+03  0.00000000000E+00 0.  1.
      99926    2    1    2    0    0  0.14210854715E-13  0.00000000000E+00 -0.36422749555E+03  0.57428513296E+03  0.44400647003E+03 0.  0.
      99925    2    3    3    0    0  0.74505543894E+02  0.63087858521E+02 -0.27181734657E+03  0.39065970526E+03  0.26305737294E+03 0.  0.
         25    1    4    4    0    0  0.59072134568E+02  0.19106145294E+01 -0.11099905547E+03  0.17737380287E+03  0.12509000000E+03 0.  0.
         25    1    4    4    0    0  0.15433409326E+02  0.61177243992E+02 -0.16081829110E+03  0.21328590239E+03  0.12509000000E+03 0.  0.
         25    1    3    3    0    0 -0.74505543894E+02 -0.63087858521E+02 -0.92410148985E+02  0.18362542770E+03  0.12509000000E+03 0.  0.
<mgrwt>
<rscale>  2 0.44400647E+03</rscale>
<asrwt>0</asrwt>
<pdfrwt beam="1">  1       21 0.15445415E-01 0.44400647E+03</pdfrwt>
<pdfrwt beam="2">  1       21 0.69008281E-01 0.44400647E+03</pdfrwt>
<totfact> 0.65827684E+04</totfact>
</mgrwt>
</event>
<event>
 7    0  0.4737014E-002  0.4484576E+03  0.7546771E-02  0.1028183E+00
         21   -1    0    0  502  501  0.00000000000E+00  0.00000000000E+00  0.10555915281E+03  0.10555915281E+03  0.00000000000E+00 0.  1.
         21   -1    0    0  501  502 -0.00000000000E+00 -0.00000000000E+00 -0.47630701612E+03  0.47630701612E+03  0.00000000000E+00 0.  1.
      99926    2    1    2    0    0 -0.71054273576E-14  0.00000000000E+00 -0.37074786331E+03  0.58186616893E+03  0.44845764615E+03 0.  0.
      99925    2    3    3    0    0 -0.37275809959E+02 -0.77188076441E+02 -0.15178420421E+03  0.31552038379E+03  0.26299654520E+03 0.  0.
         25    1    4    4    0    0 -0.76146941821E+01 -0.16349375450E+02 -0.10928023966E+03  0.16707772001E+03  0.12509000000E+03 0.  0.
         25    1    3    3    0    0  0.37275809959E+02  0.77188076441E+02 -0.21896365910E+03  0.26634578513E+03  0.12509000000E+03 0.  0.
         25    1    4    4    0    0 -0.29661115777E+02 -0.60838700991E+02 -0.42503964557E+02  0.14844266378E+03  0.12509000000E+03 0.  0.
<mgrwt>
<rscale>  2 0.44845765E+03</rscale>
<asrwt>0</asrwt>
<pdfrwt beam="1">  1       21 0.15523405E-01 0.44845765E+03</pdfrwt>
<pdfrwt beam="2">  1       21 0.70045149E-01 0.44845765E+03</pdfrwt>
<totfact> 0.63004358E+04</totfact>
</mgrwt>
</event>
<event>
 6    0  0.4737014E-002  0.4602104E+03  0.7546771E-02  0.1024720E+00
         21   -1    0    0  502  501  0.00000000000E+00  0.00000000000E+00  0.81919678071E+03  0.81919678071E+03  0.00000000000E+00 0. -1.
         21   -1    0    0  501  502 -0.00000000000E+00 -0.00000000000E+00 -0.64634541287E+02  0.64634541287E+02  0.00000000000E+00 0. -1.
      99926    2    1    2    0    0  0.00000000000E+00  0.35527136788E-14  0.75456223942E+03  0.88383132199E+03  0.46021042207E+03 0.  0.
         25    1    3    3    0    0 -0.33537379827E+02  0.48083273823E-01  0.22313116228E+03  0.25799182514E+03  0.12509000000E+03 0.  0.
         25    1    3    3    0    0  0.10694337101E+03 -0.24368260809E+02  0.18123165557E+03  0.24601446668E+03  0.12509000000E+03 0.  0.
         25    1    3    3    0    0 -0.73405991182E+02  0.24320177535E+02  0.35019942157E+03  0.37982503017E+03  0.12509000000E+03 0.  0.
<mgrwt>
<rscale>  2 0.46021042E+03</rscale>
<asrwt>0</asrwt>
<pdfrwt beam="1">  1       21 0.12047011E+00 0.46021042E+03</pdfrwt>
<pdfrwt beam="2">  1       21 0.95050801E-02 0.46021042E+03</pdfrwt>
<totfact> 0.42191992E+04</totfact>
</mgrwt>
</event>
<event>
 7    0  0.4737014E-002  0.4502967E+03  0.7546771E-02  0.1027634E+00
         21   -1    0    0  502  501  0.00000000000E+00  0.00000000000E+00  0.89983735323E+03  0.89983735323E+03  0.00000000000E+00 0. -1.
         21   -1    0    0  501  502 -0.00000000000E+00 -0.00000000000E+00 -0.56334389384E+02  0.56334389384E+02  0.00000000000E+00 0. -1.
      99926    2    1    2    0    0 -0.35527136788E-14  0.00000000000E+00  0.84350296384E+03  0.95617174261E+03  0.45029673700E+03 0.  0.
      99925    2    3    3    0    0 -0.18205446691E+02  0.94386128231E+02  0.42641096341E+03  0.51024190013E+03  0.26321152604E+03 0.  0.
         25    1    3    3    0    0  0.18205446691E+02 -0.94386128231E+02  0.41709200043E+03  0.44592984248E+03  0.12509000000E+03 0.  0.
         25    1    4    4    0    0 -0.48726745974E+02  0.37578032052E+02  0.20629473875E+03  0.24898078561E+03  0.12509000000E+03 0.  0.
         25    1    4    4    0    0  0.30521299282E+02  0.56808096178E+02  0.22011622466E+03  0.26126111452E+03  0.12509000000E+03 0.  0.
<mgrwt>
<rscale>  2 0.45029674E+03</rscale>
<asrwt>0</asrwt>
<pdfrwt beam="1">  1       21 0.13232901E+00 0.45029674E+03</pdfrwt>
<pdfrwt beam="2">  1       21 0.82844696E-02 0.45029674E+03</pdfrwt>
<totfact> 0.42430986E+04</totfact>
</mgrwt>
</event>
<event>
 7    0  0.4737014E-002  0.4604383E+03  0.7546771E-02  0.1024654E+00
         21   -1    0    0  502  501  0.00000000000E+00  0.00000000000E+00  0.62586439155E+03  0.62586439155E+03  0.00000000000E+00 0. -1.
         21   -1    0    0  501  502 -0.00000000000E+00 -0.00000000000E+00 -0.84684246370E+02  0.84684246370E+02  0.00000000000E+00 0. -1.
      99926    2    1    2    0    0  0.35527136788E-14  0.00000000000E+00  0.54118014518E+03  0.71054863792E+03  0.46043828828E+03 0.  0.
      99925    2    3    3    0    0  0.29174543979E+02  0.11405131445E+03  0.32742466537E+03  0.43632652066E+03  0.26327754328E+03 0.  0.
         25    1    3    3    0    0 -0.29174543979E+02 -0.11405131445E+03  0.21375547981E+03  0.27422211726E+03  0.12509000000E+03 0.  0.
         25    1    4    4    0    0  0.47142808476E+02  0.77619951470E+02  0.14929367063E+03  0.21490325602E+03  0.12509000000E+03 0.  0.
         25    1    4    4    0    0 -0.17968264496E+02  0.36431362982E+02  0.17813099474E+03  0.22142326464E+03  0.12509000000E+03 0.  0.
<mgrwt>
<rscale>  2 0.46043829E+03</rscale>
<asrwt>0</asrwt>
<pdfrwt beam="1">  1       21 0.92038879E-01 0.46043829E+03</pdfrwt>
<pdfrwt beam="2">  1       21 0.12453566E-01 0.46043829E+03</pdfrwt>
<totfact> 0.50153393E+04</totfact>
</mgrwt>
</event>
<event>
 7    0  0.4737014E-002  0.4576852E+03  0.7546771E-02  0.1025455E+00
         21   -1    0    0  502  501  0.00000000000E+00  0.00000000000E+00  0.93134076300E+03  0.93134076300E+03  0.00000000000E+00 0.  1.
         21   -1    0    0  501  502 -0.00000000000E+00 -0.00000000000E+00 -0.56229620611E+02  0.56229620611E+02  0.00000000000E+00 0.  1.
      99926    2    1    2    0    0  0.14210854715E-13  0.35527136788E-14  0.87511114239E+03  0.98757038361E+03  0.45768520956E+03 0.  0.
      99925    2    3    3    0    0 -0.91180132203E+02  0.16523320104E+02  0.69871128128E+03  0.75230190779E+03  0.26300925699E+03 0.  0.
         25    1    3    3    0    0  0.91180132203E+02 -0.16523320104E+02  0.17639986111E+03  0.23526847582E+03  0.12509000000E+03 0.  0.
         25    1    4    4    0    0 -0.80577792046E+02  0.22025512676E+02  0.32729594935E+03  0.36020556679E+03  0.12509000000E+03 0.  0.
         25    1    4    4    0    0 -0.10602340157E+02 -0.55021925724E+01  0.37141533192E+03  0.39209634100E+03  0.12509000000E+03 0.  0.
<mgrwt>
<rscale>  2 0.45768521E+03</rscale>
<asrwt>0</asrwt>
<pdfrwt beam="1">  1       21 0.13696187E+00 0.45768521E+03</pdfrwt>
<pdfrwt beam="2">  1       21 0.82690624E-02 0.45768521E+03</pdfrwt>
<totfact> 0.38832739E+04</totfact>
</mgrwt>
</event>
<event>
 7    0  0.4737014E-002  0.4421252E+03  0.7546771E-02  0.1030097E+00
         21   -1    0    0  502  501  0.00000000000E+00  0.00000000000E+00  0.67733610526E+03  0.67733610526E+03  0.00000000000E+00 0. -1.
         21   -1    0    0  501  502 -0.00000000000E+00 -0.00000000000E+00 -0.72148336471E+02  0.72148336471E+02  0.00000000000E+00 0. -1.
      99926    2    1    2    0    0  0.00000000000E+00  0.71054273576E-14  0.60518776878E+03  0.74948444173E+03  0.44212520049E+03 0.  0.
      99925    2    3    3    0    0 -0.37613895507E+02 -0.47764934074E+02  0.52131594578E+03  0.58707051112E+03  0.26303075036E+03 0.  0.
         25    1    4    4    0    0 -0.21038532005E+02  0.57925080201E+01  0.19009089219E+03  0.22860058699E+03  0.12509000000E+03 0.  0.
         25    1    4    4    0    0 -0.16575363502E+02 -0.53557442094E+02  0.33122505359E+03  0.35846992413E+03  0.12509000000E+03 0.  0.
         25    1    3    3    0    0  0.37613895507E+02  0.47764934074E+02  0.83871823006E+02  0.16241393061E+03  0.12509000000E+03 0.  0.
<mgrwt>
<rscale>  2 0.44212520E+03</rscale>
<asrwt>0</asrwt>
<pdfrwt beam="1">  1       21 0.99608247E-01 0.44212520E+03</pdfrwt>
<pdfrwt beam="2">  1       21 0.10610050E-01 0.44212520E+03</pdfrwt>
<totfact> 0.55725632E+04</totfact>
</mgrwt>
</event>
<event>
 7    0  0.4737014E-002  0.4060149E+03  0.7546771E-02  0.1041717E+00
         21   -1    0    0  502  501  0.00000000000E+00  0.00000000000E+00  0.41180331788E+03  0.41180331788E+03  0.00000000000E+00 0.  1.
         21   -1    0    0  501  502 -0.00000000000E+00 -0.00000000000E+00 -0.10007696981E+03  0.10007696981E+03  0.00000000000E+00 0.  1.
      99926    2    1    2    0    0  0.16653345369E-14  0.71054273576E-14  0.31172634807E+03  0.51188028769E+03  0.40601491702E+03 0.  0.
      99925    2    3    3    0    0 -0.51892095732E+00  0.53163620870E+02  0.22908606546E+03  0.35280934668E+03  0.26299690085E+03 0.  0.
         25    1    3    3    0    0  0.51892095732E+00 -0.53163620870E+02  0.82640282616E+02  0.15907094101E+03  0.12509000000E+03 0.  0.
         25    1    4    4    0    0  0.33952337764E+02  0.10564470237E+02  0.91929887727E+02  0.15925759520E+03  0.12509000000E+03 0.  0.
         25    1    4    4    0    0 -0.34471258722E+02  0.42599150633E+02  0.13715617773E+03  0.19355175148E+03  0.12509000000E+03 0.  0.
<mgrwt>
<rscale>  2 0.40601492E+03</rscale>
<asrwt>0</asrwt>
<pdfrwt beam="1">  1       21 0.60559311E-01 0.40601492E+03</pdfrwt>
<pdfrwt beam="2">  1       21 0.14717202E-01 0.40601492E+03</pdfrwt>
<totfact> 0.96940666E+04</totfact>
</mgrwt>
</event>
<event>
 7    0  0.4737014E-002  0.4172100E+03  0.7546771E-02  0.1037978E+00
         21   -1    0    0  502  501  0.00000000000E+00  0.00000000000E+00  0.73671099014E+02  0.73671099014E+02  0.00000000000E+00 0.  1.
         21   -1    0    0  501  502 -0.00000000000E+00 -0.00000000000E+00 -0.59068014347E+03  0.59068014347E+03  0.00000000000E+00 0.  1.
      99926    2    1    2    0    0 -0.71054273576E-14  0.00000000000E+00 -0.51700904446E+03  0.66435124249E+03  0.41721004463E+03 0.  0.
      99925    2    3    3    0    0 -0.42078625044E+02  0.57722042863E+02 -0.31701418183E+03  0.41788035558E+03  0.26272334341E+03 0.  0.
         25    1    4    4    0    0 -0.41190339754E+02  0.62057087906E+02 -0.19221837564E+03  0.24112888314E+03  0.12509000000E+03 0.  0.
         25    1    3    3    0    0  0.42078625044E+02 -0.57722042863E+02 -0.19999486263E+03  0.24647088691E+03  0.12509000000E+03 0.  0.
         25    1    4    4    0    0 -0.88828529052E+00 -0.43350450432E+01 -0.12479580619E+03  0.17675147244E+03  0.12509000000E+03 0.  0.
<mgrwt>
<rscale>  2 0.41721004E+03</rscale>
<asrwt>0</asrwt>
<pdfrwt beam="1">  1       21 0.10833985E-01 0.41721004E+03</pdfrwt>
<pdfrwt beam="2">  1       21 0.86864728E-01 0.41721004E+03</pdfrwt>
<totfact> 0.74779242E+04</totfact>
</mgrwt>
</event>
<event>
 6    0  0.4737014E-002  0.4447519E+03  0.7546771E-02  0.1029299E+00
         21   -1    0    0  502  501  0.00000000000E+00  0.00000000000E+00  0.32880161130E+02  0.32880161130E+02  0.00000000000E+00 0.  1.
         21   -1    0    0  501  502 -0.00000000000E+00 -0.00000000000E+00 -0.15039788966E+04  0.15039788966E+04  0.00000000000E+00 0.  1.
      99926    2    1    2    0    0  0.00000000000E+00 -0.44408920985E-15 -0.14710987355E+04  0.15368590577E+04  0.44475192391E+03 0.  0.
         25    1    3    3    0    0  0.99946885856E+02 -0.23719088569E+01 -0.47124103557E+03  0.49770536229E+03  0.12509000000E+03 0.  0.
         25    1    3    3    0    0 -0.39861467844E+02  0.89413334177E+01 -0.33463868987E+03  0.35958232009E+03  0.12509000000E+03 0.  0.
         25    1    3    3    0    0 -0.60085418012E+02 -0.65694245608E+01 -0.66521901004E+03  0.67957137536E+03  0.12509000000E+03 0.  0.
<mgrwt>
<rscale>  2 0.44475192E+03</rscale>
<asrwt>0</asrwt>
<pdfrwt beam="1">  1       21 0.48353168E-02 0.44475192E+03</pdfrwt>
<pdfrwt beam="2">  1       21 0.22117341E+00 0.44475192E+03</pdfrwt>
<totfact> 0.24806551E+04</totfact>
</mgrwt>
</event>
<event>
 7    0  0.4737014E-002  0.4416738E+03  0.7546771E-02  0.1030234E+00
         21   -1    0    0  502  501  0.00000000000E+00  0.00000000000E+00  0.32362561913E+03  0.32362561913E+03  0.00000000000E+00 0.  1.
         21   -1    0    0  501  502 -0.00000000000E+00 -0.00000000000E+00 -0.15069552689E+03  0.15069552689E+03  0.00000000000E+00 0.  1.
      99926    2    1    2    0    0  0.14210854715E-13 -0.71054273576E-14  0.17293009225E+03  0.47432114602E+03  0.44167378545E+03 0.  0.
      99925    2    3    3    0    0 -0.80614764628E+02  0.40460536921E+02  0.63322706515E+02  0.28511997681E+03  0.26295977010E+03 0.  0.
         25    1    3    3    0    0  0.80614764628E+02 -0.40460536921E+02  0.10960738573E+03  0.18920116921E+03  0.12509000000E+03 0.  0.
         25    1    4    4    0    0 -0.13452316865E+00  0.26195194409E+02  0.18633885254E+02  0.12915469827E+03  0.12509000000E+03 0.  0.
         25    1    4    4    0    0 -0.80480241460E+02  0.14265342512E+02  0.44688821261E+02  0.15596527853E+03  0.12509000000E+03 0.  0.
<mgrwt>
<rscale>  2 0.44167379E+03</rscale>
<asrwt>0</asrwt>
<pdfrwt beam="1">  1       21 0.47592003E-01 0.44167379E+03</pdfrwt>
<pdfrwt beam="2">  1       21 0.22161107E-01 0.44167379E+03</pdfrwt>
<totfact> 0.74711564E+04</totfact>
</mgrwt>
</event>
<event>
 7    0  0.4737014E-002  0.4574665E+03  0.7546771E-02  0.1025519E+00
         21   -1    0    0  502  501  0.00000000000E+00  0.00000000000E+00  0.20760569547E+03  0.20760569547E+03  0.00000000000E+00 0.  1.
         21   -1    0    0  501  502 -0.00000000000E+00 -0.00000000000E+00 -0.25201087424E+03  0.25201087424E+03  0.00000000000E+00 0.  1.
      99926    2    1    2    0    0 -0.35527136788E-14  0.00000000000E+00 -0.44405178769E+02  0.45961656971E+03  0.45746647009E+03 0.  0.
      99925    2    3    3    0    0  0.28792669556E+02 -0.83121262009E+02 -0.10317826258E+03  0.29578755672E+03  0.26288089094E+03 0.  0.
         25    1    4    4    0    0 -0.14068936861E+02 -0.33888531812E+02 -0.79577305791E+02  0.15272990300E+03  0.12509000000E+03 0.  0.
         25    1    3    3    0    0 -0.28792669556E+02  0.83121262009E+02  0.58773083810E+02  0.16382901299E+03  0.12509000000E+03 0.  0.
         25    1    4    4    0    0  0.42861606417E+02 -0.49232730196E+02 -0.23600956787E+02  0.14305765372E+03  0.12509000000E+03 0.  0.
<mgrwt>
<rscale>  2 0.45746647E+03</rscale>
<asrwt>0</asrwt>
<pdfrwt beam="1">  1       21 0.30530250E-01 0.45746647E+03</pdfrwt>
<pdfrwt beam="2">  1       21 0.37060422E-01 0.45746647E+03</pdfrwt>
<totfact> 0.66882992E+04</totfact>
</mgrwt>
</event>
<event>
 7    0  0.4737014E-002  0.4576292E+03  0.7546771E-02  0.1025471E+00
         21   -1    0    0  502  501  0.00000000000E+00  0.00000000000E+00  0.49914862602E+02  0.49914862602E+02  0.00000000000E+00 0. -1.
         21   -1    0    0  501  502 -0.00000000000E+00 -0.00000000000E+00 -0.10489085876E+04  0.10489085876E+04  0.00000000000E+00 0. -1.
      99926    2    1    2    0    0  0.71054273576E-14 -0.14210854715E-13 -0.99899372497E+03  0.10988234502E+04  0.45762922997E+03 0.  0.
      99925    2    3    3    0    0 -0.34092918847E+02  0.99874246763E+02 -0.74056224219E+03  0.79292880871E+03  0.26299518788E+03 0.  0.
         25    1    4    4    0    0 -0.36086038967E+02  0.81397086095E+02 -0.34452622847E+03  0.37719161979E+03  0.12509000000E+03 0.  0.
         25    1    4    4    0    0  0.19931201200E+01  0.18477160668E+02 -0.39603601372E+03  0.41573718892E+03  0.12509000000E+03 0.  0.
         25    1    3    3    0    0  0.34092918847E+02 -0.99874246763E+02 -0.25843148278E+03  0.30589464146E+03  0.12509000000E+03 0.  0.
<mgrwt>
<rscale>  2 0.45762923E+03</rscale>
<asrwt>0</asrwt>
<pdfrwt beam="1">  1       21 0.73404206E-02 0.45762923E+03</pdfrwt>
<pdfrwt beam="2">  1       21 0.15425127E+00 0.45762923E+03</pdfrwt>
<totfact> 0.34815467E+04</totfact>
</mgrwt>
</event>
<event>
 7    0  0.4737014E-002  0.4538028E+03  0.7546771E-02  0.1026594E+00
         21   -1    0    0  502  501  0.00000000000E+00  0.00000000000E+00  0.53588358431E+03  0.53588358431E+03  0.00000000000E+00 0.  1.
         21   -1    0    0  501  502 -0.00000000000E+00 -0.00000000000E+00 -0.96073579508E+02  0.96073579508E+02  0.00000000000E+00 0.  1.
      99926    2    1    2    0    0  0.00000000000E+00  0.00000000000E+00  0.43981000480E+03  0.63195716382E+03  0.45380283888E+03 0.  0.
      99925    2    3    3    0    0  0.83639456762E+02  0.37707341986E+02  0.18736811007E+03  0.33566031827E+03  0.26295177927E+03 0.  0.
         25    1    3    3    0    0 -0.83639456762E+02 -0.37707341986E+02  0.25244189474E+03  0.29629684555E+03  0.12509000000E+03 0.  0.
         25    1    4    4    0    0  0.52847451377E+02  0.41116157411E+02  0.13720240789E+03  0.19737122472E+03  0.12509000000E+03 0.  0.
         25    1    4    4    0    0  0.30792005385E+02 -0.34088154248E+01  0.50165702173E+02  0.13828909354E+03  0.12509000000E+03 0.  0.
<mgrwt>
<rscale>  2 0.45380284E+03</rscale>
<asrwt>0</asrwt>
<pdfrwt beam="1">  1       21 0.78806408E-01 0.45380284E+03</pdfrwt>
<pdfrwt beam="2">  1       21 0.14128468E-01 0.45380284E+03</pdfrwt>
<totfact> 0.57292587E+04</totfact>
</mgrwt>
</event>
<event>
 7    0  0.4737014E-002  0.4508042E+03  0.7546771E-02  0.1027483E+00
         21   -1    0    0  502  501  0.00000000000E+00  0.00000000000E+00  0.90963217728E+03  0.90963217728E+03  0.00000000000E+00 0.  1.
         21   -1    0    0  501  502 -0.00000000000E+00 -0.00000000000E+00 -0.55853456740E+02  0.55853456740E+02  0.00000000000E+00 0.  1.
      99926    2    1    2    0    0 -0.88817841970E-15  0.00000000000E+00  0.85377872054E+03  0.96548563402E+03  0.45080417684E+03 0.  0.
      99925    2    3    3    0    0  0.65269667837E+01  0.73203774065E+02  0.36820229239E+03  0.45869833198E+03  0.26349542275E+03 0.  0.
         25    1    4    4    0    0 -0.29516132694E+02  0.13497782408E+02  0.15417890908E+03  0.20117662967E+03  0.12509000000E+03 0.  0.
         25    1    4    4    0    0  0.36043099477E+02  0.59705991658E+02  0.21402338330E+03  0.25752170231E+03  0.12509000000E+03 0.  0.
         25    1    3    3    0    0 -0.65269667837E+01 -0.73203774065E+02  0.48557642815E+03  0.50678730204E+03  0.12509000000E+03 0.  0.
<mgrwt>
<rscale>  2 0.45080418E+03</rscale>
<asrwt>0</asrwt>
<pdfrwt beam="1">  1       21 0.13376943E+00 0.45080418E+03</pdfrwt>
<pdfrwt beam="2">  1       21 0.82137442E-02 0.45080418E+03</pdfrwt>
<totfact> 0.41877021E+04</totfact>
</mgrwt>
</event>
<event>
 7    0  0.4737014E-002  0.4164214E+03  0.7546771E-02  0.1038237E+00
         21   -1    0    0  502  501  0.00000000000E+00  0.00000000000E+00  0.11715100673E+03  0.11715100673E+03  0.00000000000E+00 0.  1.
         21   -1    0    0  501  502 -0.00000000000E+00 -0.00000000000E+00 -0.37004961836E+03  0.37004961836E+03  0.00000000000E+00 0.  1.
      99926    2    1    2    0    0  0.17763568394E-14  0.71054273576E-14 -0.25289861163E+03  0.48720062508E+03  0.41642135070E+03 0.  0.
      99925    2    3    3    0    0 -0.13357370809E+02  0.63609789259E+02 -0.13123274530E+03  0.30098914377E+03  0.26295970525E+03 0.  0.
         25    1    4    4    0    0  0.13682728555E+02 -0.30208718692E+01 -0.50261383735E+02  0.13553618529E+03  0.12509000000E+03 0.  0.
         25    1    3    3    0    0  0.13357370809E+02 -0.63609789259E+02 -0.12166586633E+03  0.18621148132E+03  0.12509000000E+03 0.  0.
         25    1    4    4    0    0 -0.27040099364E+02  0.66630661128E+02 -0.80971361565E+02  0.16545295848E+03  0.12509000000E+03 0.  0.
<mgrwt>
<rscale>  2 0.41642135E+03</rscale>
<asrwt>0</asrwt>
<pdfrwt beam="1">  1       21 0.17228090E-01 0.41642135E+03</pdfrwt>
<pdfrwt beam="2">  1       21 0.54419061E-01 0.41642135E+03</pdfrwt>
<totfact> 0.91000973E+04</totfact>
</mgrwt>
</event>
<event>
 7    0  0.4737014E-002  0.4626313E+03  0.7546771E-02  0.1024021E+00
         21   -1    0    0  502  501  0.00000000000E+00  0.00000000000E+00  0.54713459106E+03  0.54713459106E+03  0.00000000000E+00 0.  1.
         21   -1    0    0  501  502 -0.00000000000E+00 -0.00000000000E+00 -0.97794820641E+02  0.97794820641E+02  0.00000000000E+00 0.  1.
      99926    2    1    2    0    0  0.00000000000E+00  0.71054273576E-14  0.44933977042E+03  0.64492941170E+03  0.46263129682E+03 0.  0.
      99925    2    3    3    0    0 -0.84314174309E+02  0.59218814248E+02  0.19424243677E+03  0.34270779487E+03  0.26287403917E+03 0.  0.
         25    1    4    4    0    0 -0.76468821211E+02  0.10707601089E+02  0.87441056113E+02  0.17104262548E+03  0.12509000000E+03 0.  0.
         25    1    3    3    0    0  0.84314174309E+02 -0.59218814248E+02  0.25509733364E+03  0.30222161683E+03  0.12509000000E+03 0.  0.
         25    1    4    4    0    0 -0.78453530986E+01  0.48511213159E+02  0.10680138066E+03  0.17166516938E+03  0.12509000000E+03 0.  0.
<mgrwt>
<rscale>  2 0.46263130E+03</rscale>
<asrwt>0</asrwt>
<pdfrwt beam="1">  1       21 0.80460968E-01 0.46263130E+03</pdfrwt>
<pdfrwt beam="2">  1       21 0.14381592E-01 0.46263130E+03</pdfrwt>
<totfact> 0.52745881E+04</totfact>
</mgrwt>
</event>
<event>
 7    0  0.4737014E-002  0.4540555E+03  0.7546771E-02  0.1026520E+00
         21   -1    0    0  502  501  0.00000000000E+00  0.00000000000E+00  0.29233813953E+03  0.29233813953E+03  0.00000000000E+00 0.  1.
         21   -1    0    0  501  502 -0.00000000000E+00 -0.00000000000E+00 -0.17630814430E+03  0.17630814430E+03  0.00000000000E+00 0.  1.
      99926    2    1    2    0    0  0.00000000000E+00  0.00000000000E+00  0.11602999523E+03  0.46864628383E+03  0.45405548070E+03 0.  0.
      99925    2    3    3    0    0  0.18952955297E+02 -0.57709244700E+02  0.17052265993E+03  0.31929257599E+03  0.26302129209E+03 0.  0.
         25    1    4    4    0    0  0.16692366417E+01 -0.64682328516E+02  0.11199320133E+03  0.17993491939E+03  0.12509000000E+03 0.  0.
         25    1    3    3    0    0 -0.18952955297E+02  0.57709244700E+02 -0.54492664702E+02  0.14935370784E+03  0.12509000000E+03 0.  0.
         25    1    4    4    0    0  0.17283718656E+02  0.69730838154E+01  0.58529458602E+02  0.13935765660E+03  0.12509000000E+03 0.  0.
<mgrwt>
<rscale>  2 0.45405548E+03</rscale>
<asrwt>0</asrwt>
<pdfrwt beam="1">  1       21 0.42990903E-01 0.45405548E+03</pdfrwt>
<pdfrwt beam="2">  1       21 0.25927668E-01 0.45405548E+03</pdfrwt>
<totfact> 0.68044960E+04</totfact>
</mgrwt>
</event>
<event>
 7    0  0.4737014E-002  0.4424030E+03  0.7546771E-02  0.1030012E+00
         21   -1    0    0  502  501  0.00000000000E+00  0.00000000000E+00  0.34282127281E+03  0.34282127281E+03  0.00000000000E+00 0.  1.
         21   -1    0    0  501  502 -0.00000000000E+00 -0.00000000000E+00 -0.14272771572E+03  0.14272771572E+03  0.00000000000E+00 0.  1.
      99926    2    1    2    0    0  0.00000000000E+00  0.00000000000E+00  0.20009355709E+03  0.48554898853E+03  0.44240297091E+03 0.  0.
      99925    2    3    3    0    0 -0.86517104220E+02 -0.29620992271E+02  0.80591973931E+02  0.28986876729E+03  0.26299472139E+03 0.  0.
         25    1    3    3    0    0  0.86517104220E+02  0.29620992271E+02  0.11950158316E+03  0.19568022124E+03  0.12509000000E+03 0.  0.
         25    1    4    4    0    0 -0.82877527682E+02 -0.28266113905E+02  0.34836611807E+02  0.15661658728E+03  0.12509000000E+03 0.  0.
         25    1    4    4    0    0 -0.36395765387E+01 -0.13548783653E+01  0.45755362124E+02  0.13325218000E+03  0.12509000000E+03 0.  0.
<mgrwt>
<rscale>  2 0.44240297E+03</rscale>
<asrwt>0</asrwt>
<pdfrwt beam="1">  1       21 0.50414893E-01 0.44240297E+03</pdfrwt>
<pdfrwt beam="2">  1       21 0.20989370E-01 0.44240297E+03</pdfrwt>
<totfact> 0.73365088E+04</totfact>
</mgrwt>
</event>
<event>
 7    0  0.4737014E-002  0.4564695E+03  0.7546771E-02  0.1025810E+00
         21   -1    0    0  502  501  0.00000000000E+00  0.00000000000E+00  0.35009765908E+03  0.35009765908E+03  0.00000000000E+00 0.  1.
         21   -1    0    0  501  502 -0.00000000000E+00 -0.00000000000E+00 -0.14879022529E+03  0.14879022529E+03  0.00000000000E+00 0.  1.
      99926    2    1    2    0    0  0.00000000000E+00  0.14210854715E-13  0.20130743378E+03  0.49888788437E+03  0.45646953707E+03 0.  0.
      99925    2    3    3    0    0  0.82016771896E+02 -0.79308335751E+02  0.11518050925E+03  0.30893547396E+03  0.26297911394E+03 0.  0.
         25    1    4    4    0    0  0.25537874192E+02 -0.77513356315E+02  0.62642067952E+02  0.16196308284E+03  0.12509000000E+03 0.  0.
         25    1    4    4    0    0  0.56478897704E+02 -0.17949794361E+01  0.52538441300E+02  0.14697239112E+03  0.12509000000E+03 0.  0.
         25    1    3    3    0    0 -0.82016771896E+02  0.79308335751E+02  0.86126924533E+02  0.18995241041E+03  0.12509000000E+03 0.  0.
<mgrwt>
<rscale>  2 0.45646954E+03</rscale>
<asrwt>0</asrwt>
<pdfrwt beam="1">  1       21 0.51484950E-01 0.45646954E+03</pdfrwt>
<pdfrwt beam="2">  1       21 0.21880915E-01 0.45646954E+03</pdfrwt>
<totfact> 0.64592061E+04</totfact>
</mgrwt>
</event>
<event>
 7    0  0.4737014E-002  0.4426386E+03  0.7546771E-02  0.1029940E+00
         21   -1    0    0  502  501  0.00000000000E+00  0.00000000000E+00  0.10724592942E+03  0.10724592942E+03  0.00000000000E+00 0.  1.
         21   -1    0    0  501  502 -0.00000000000E+00 -0.00000000000E+00 -0.45672816742E+03  0.45672816742E+03  0.00000000000E+00 0.  1.
      99926    2    1    2    0    0 -0.14210854715E-13  0.71054273576E-14 -0.34948223801E+03  0.56397409684E+03  0.44263861922E+03 0.  0.
      99925    2    3    3    0    0  0.82774181270E+02  0.57824258805E+02 -0.21449224394E+03  0.35405740719E+03  0.26297246033E+03 0.  0.
         25    1    3    3    0    0 -0.82774181270E+02 -0.57824258805E+02 -0.13498999407E+03  0.20991668964E+03  0.12509000000E+03 0.  0.
         25    1    4    4    0    0  0.28397312533E+02 -0.11238970528E+02 -0.10106364669E+03  0.16368900574E+03  0.12509000000E+03 0.  0.
         25    1    4    4    0    0  0.54376868736E+02  0.69063229333E+02 -0.11342859725E+03  0.19036840146E+03  0.12509000000E+03 0.  0.
<mgrwt>
<rscale>  2 0.44263862E+03</rscale>
<asrwt>0</asrwt>
<pdfrwt beam="1">  1       21 0.15771460E-01 0.44263862E+03</pdfrwt>
<pdfrwt beam="2">  1       21 0.67165909E-01 0.44263862E+03</pdfrwt>
<totfact> 0.67294024E+04</totfact>
</mgrwt>
</event>
<event>
 7    0  0.4737014E-002  0.4507423E+03  0.7546771E-02  0.1027501E+00
         21   -1    0    0  502  501  0.00000000000E+00  0.00000000000E+00  0.42286508266E+02  0.42286508266E+02  0.00000000000E+00 0.  1.
         21   -1    0    0  501  502 -0.00000000000E+00 -0.00000000000E+00 -0.12011430735E+04  0.12011430735E+04  0.00000000000E+00 0.  1.
      99926    2    1    2    0    0  0.00000000000E+00  0.71054273576E-14 -0.11588565652E+04  0.12434295817E+04  0.45074226119E+03 0.  0.
      99925    2    3    3    0    0 -0.99504719473E+02 -0.42121339229E+02 -0.77855008901E+03  0.82875390081E+03  0.26271161108E+03 0.  0.
         25    1    3    3    0    0  0.99504719473E+02  0.42121339229E+02 -0.38030647620E+03  0.41467568093E+03  0.12509000000E+03 0.  0.
         25    1    4    4    0    0 -0.18519199786E+02 -0.30740901736E+02 -0.43633384276E+03  0.45532701901E+03  0.12509000000E+03 0.  0.
         25    1    4    4    0    0 -0.80985519688E+02 -0.11380437493E+02 -0.34221624625E+03  0.37342688180E+03  0.12509000000E+03 0.  0.
<mgrwt>
<rscale>  2 0.45074226E+03</rscale>
<asrwt>0</asrwt>
<pdfrwt beam="1">  1       21 0.62186041E-02 0.45074226E+03</pdfrwt>
<pdfrwt beam="2">  1       21 0.17663869E+00 0.45074226E+03</pdfrwt>
<totfact> 0.31845400E+04</totfact>
</mgrwt>
</event>
<event>
 7    0  0.4737014E-002  0.4556249E+03  0.7546771E-02  0.1026058E+00
         21   -1    0    0  502  501  0.00000000000E+00  0.00000000000E+00  0.49843659803E+03  0.49843659803E+03  0.00000000000E+00 0. -1.
         21   -1    0    0  501  502 -0.00000000000E+00 -0.00000000000E+00 -0.10412260438E+03  0.10412260438E+03  0.00000000000E+00 0. -1.
      99926    2    1    2    0    0  0.00000000000E+00  0.88817841970E-15  0.39431399365E+03  0.60255920241E+03  0.45562491901E+03 0.  0.
      99925    2    3    3    0    0 -0.10875527866E+03  0.40646452062E+01  0.20211695243E+03  0.34872570830E+03  0.26251499994E+03 0.  0.
         25    1    4    4    0    0 -0.80585371152E+02  0.17759960484E+02  0.14200240737E+03  0.20645001826E+03  0.12509000000E+03 0.  0.
         25    1    4    4    0    0 -0.28169907508E+02 -0.13695315278E+02  0.60114545054E+02  0.14227569004E+03  0.12509000000E+03 0.  0.
         25    1    3    3    0    0  0.10875527866E+03 -0.40646452062E+01  0.19219704122E+03  0.25383349411E+03  0.12509000000E+03 0.  0.
<mgrwt>
<rscale>  2 0.45562492E+03</rscale>
<asrwt>0</asrwt>
<pdfrwt beam="1">  1       21 0.73299499E-01 0.45562492E+03</pdfrwt>
<pdfrwt beam="2">  1       21 0.15312148E-01 0.45562492E+03</pdfrwt>
<totfact> 0.58232972E+04</totfact>
</mgrwt>
</event>
<event>
 7    0  0.5444226E-002  0.4064276E+03  0.7546771E-02  0.1041576E+00
         21   -1    0    0  502  501  0.00000000000E+00  0.00000000000E+00  0.24873838393E+03  0.24873838393E+03  0.00000000000E+00 0. -1.
         21   -1    0    0  501  502 -0.00000000000E+00 -0.00000000000E+00 -0.16602120448E+03  0.16602120448E+03  0.00000000000E+00 0. -1.
      99926    2    1    2    0    0 -0.35527136788E-14  0.00000000000E+00  0.82717179450E+02  0.41475958842E+03  0.40642758815E+03 0.  0.
      99925    2    3    3    0    0 -0.29899477714E+02 -0.18306737616E+02  0.98135214143E+02  0.28393780390E+03  0.26412315465E+03 0.  0.
         25    1    3    3    0    0  0.29899477714E+02  0.18306737616E+02 -0.15418034693E+02  0.13082178451E+03  0.12509000000E+03 0.  0.
         25    1    4    4    0    0 -0.49897169833E+02 -0.21361794617E+02  0.28339440900E+02  0.13927198511E+03  0.12509000000E+03 0.  0.
         25    1    4    4    0    0  0.19997692119E+02  0.30550570006E+01  0.69795773242E+02  0.14466581879E+03  0.12509000000E+03 0.  0.
<mgrwt>
<rscale>  2 0.40642759E+03</rscale>
<asrwt>0</asrwt>
<pdfrwt beam="1">  1       21 0.36579174E-01 0.40642759E+03</pdfrwt>
<pdfrwt beam="2">  1       21 0.24414883E-01 0.40642759E+03</pdfrwt>
<totfact> 0.10762419E+05</totfact>
</mgrwt>
</event>
<event>
 7    0  0.4737014E-002  0.4385567E+03  0.7546771E-02  0.1031191E+00
         21   -1    0    0  502  501  0.00000000000E+00  0.00000000000E+00  0.69247881261E+02  0.69247881261E+02  0.00000000000E+00 0.  1.
         21   -1    0    0  501  502 -0.00000000000E+00 -0.00000000000E+00 -0.69436055901E+03  0.69436055901E+03  0.00000000000E+00 0.  1.
      99926    2    1    2    0    0  0.00000000000E+00  0.00000000000E+00 -0.62511267775E+03  0.76360844027E+03  0.43855671261E+03 0.  0.
      99925    2    3    3    0    0 -0.76949605643E+02  0.52840088152E+02 -0.35412348667E+03  0.45088497377E+03  0.26302186036E+03 0.  0.
         25    1    4    4    0    0 -0.54503130504E+02  0.42756155325E+02 -0.24209483713E+03  0.28116916317E+03  0.12509000000E+03 0.  0.
         25    1    4    4    0    0 -0.22446475139E+02  0.10083932827E+02 -0.11202864955E+03  0.16971581060E+03  0.12509000000E+03 0.  0.
         25    1    3    3    0    0  0.76949605643E+02 -0.52840088152E+02 -0.27098919108E+03  0.31272346651E+03  0.12509000000E+03 0.  0.
<mgrwt>
<rscale>  2 0.43855671E+03</rscale>
<asrwt>0</asrwt>
<pdfrwt beam="1">  1       21 0.10183512E-01 0.43855671E+03</pdfrwt>
<pdfrwt beam="2">  1       21 0.10211185E+00 0.43855671E+03</pdfrwt>
<totfact> 0.56526969E+04</totfact>
</mgrwt>
</event>
<event>
 7    0  0.4737014E-002  0.4566862E+03  0.7546771E-02  0.1025747E+00
         21   -1    0    0  502  501  0.00000000000E+00  0.00000000000E+00  0.35126959088E+03  0.35126959088E+03  0.00000000000E+00 0. -1.
         21   -1    0    0  501  502 -0.00000000000E+00 -0.00000000000E+00 -0.14843460841E+03  0.14843460841E+03  0.00000000000E+00 0. -1.
      99926    2    1    2    0    0 -0.71054273576E-14  0.00000000000E+00  0.20283498247E+03  0.49970419929E+03  0.45668616869E+03 0.  0.
      99925    2    3    3    0    0  0.39656182824E+02 -0.90496093897E+01  0.24485615072E+03  0.36161801263E+03  0.26298012139E+03 0.  0.
         25    1    4    4    0    0  0.56469659855E+02  0.37500933930E+01  0.14901556793E+03  0.20262288437E+03  0.12509000000E+03 0.  0.
         25    1    3    3    0    0 -0.39656182824E+02  0.90496093897E+01 -0.42021168246E+02  0.13808618666E+03  0.12509000000E+03 0.  0.
         25    1    4    4    0    0 -0.16813477031E+02 -0.12799702783E+02  0.95840582783E+02  0.15899512826E+03  0.12509000000E+03 0.  0.
<mgrwt>
<rscale>  2 0.45668617E+03</rscale>
<asrwt>0</asrwt>
<pdfrwt beam="1">  1       21 0.51657292E-01 0.45668617E+03</pdfrwt>
<pdfrwt beam="2">  1       21 0.21828619E-01 0.45668617E+03</pdfrwt>
<totfact> 0.64424784E+04</totfact>
</mgrwt>
</event>
<event>
 7    0  0.4737014E-002  0.4473055E+03  0.7546771E-02  0.1028529E+00
         21   -1    0    0  502  501  0.00000000000E+00  0.00000000000E+00  0.66993999584E+02  0.66993999584E+02  0.00000000000E+00 0.  1.
         21   -1    0    0  501  502 -0.00000000000E+00 -0.00000000000E+00 -0.74664239129E+03  0.74664239129E+03  0.00000000000E+00 0.  1.
      99926    2    1    2    0    0  0.00000000000E+00  0.35527136788E-14 -0.67964839171E+03  0.81363639087E+03  0.44730553339E+03 0.  0.
      99925    2    3    3    0    0  0.31058844965E+02 -0.95606942313E+01 -0.61391634972E+03  0.66863891445E+03  0.26292328679E+03 0.  0.
         25    1    3    3    0    0 -0.31058844965E+02  0.95606942313E+01 -0.65732041982E+02  0.14499747642E+03  0.12509000000E+03 0.  0.
         25    1    4    4    0    0  0.73151331317E+01 -0.44365867221E+02 -0.30647226277E+03  0.33405777538E+03  0.12509000000E+03 0.  0.
         25    1    4    4    0    0  0.23743711833E+02  0.34805172990E+02 -0.30744408695E+03  0.33458113907E+03  0.12509000000E+03 0.  0.
<mgrwt>
<rscale>  2 0.44730553E+03</rscale>
<asrwt>0</asrwt>
<pdfrwt beam="1">  1       21 0.98520587E-02 0.44730553E+03</pdfrwt>
<pdfrwt beam="2">  1       21 0.10980035E+00 0.44730553E+03</pdfrwt>
<totfact> 0.50067556E+04</totfact>
</mgrwt>
</event>
<event>
 7    0  0.4737014E-002  0.4575208E+03  0.7546771E-02  0.1025503E+00
         21   -1    0    0  502  501  0.00000000000E+00  0.00000000000E+00  0.20426345428E+03  0.20426345428E+03  0.00000000000E+00 0.  1.
         21   -1    0    0  501  502 -0.00000000000E+00 -0.00000000000E+00 -0.25619519595E+03  0.25619519595E+03  0.00000000000E+00 0.  1.
      99926    2    1    2    0    0  0.00000000000E+00  0.00000000000E+00 -0.51931741673E+02  0.46045865022E+03  0.45752077851E+03 0.  0.
      99925    2    3    3    0    0  0.83112217618E+02 -0.63155319042E+02  0.19866885165E+02  0.28241712148E+03  0.26166486646E+03 0.  0.
         25    1    3    3    0    0 -0.83112217618E+02  0.63155319042E+02 -0.71798626838E+02  0.17804152874E+03  0.12509000000E+03 0.  0.
         25    1    4    4    0    0  0.21284144135E+02 -0.27284343191E+02 -0.23629623230E+02  0.13192163344E+03  0.12509000000E+03 0.  0.
         25    1    4    4    0    0  0.61828073483E+02 -0.35870975850E+02  0.43496508395E+02  0.15049548804E+03  0.12509000000E+03 0.  0.
<mgrwt>
<rscale>  2 0.45752078E+03</rscale>
<asrwt>0</asrwt>
<pdfrwt beam="1">  1       21 0.30038743E-01 0.45752078E+03</pdfrwt>
<pdfrwt beam="2">  1       21 0.37675764E-01 0.45752078E+03</pdfrwt>
<totfact> 0.66794157E+04</totfact>
</mgrwt>
</event>
<event>
 7    0  0.4737014E-002  0.4465333E+03  0.7546771E-02  0.1028761E+00
         21   -1    0    0  502  501  0.00000000000E+00  0.00000000000E+00  0.10778928327E+03  0.10778928327E+03  0.00000000000E+00 0. -1.
         21   -1    0    0  501  502 -0.00000000000E+00 -0.00000000000E+00 -0.46245782181E+03  0.46245782181E+03  0.00000000000E+00 0. -1.
      99926    2    1    2    0    0 -0.14210854715E-13  0.00000000000E+00 -0.35466853854E+03  0.57024710508E+03  0.44653330068E+03 0.  0.
      99925    2    3    3    0    0  0.79280369871E+02 -0.10461633589E+02 -0.13767452207E+03  0.30732366734E+03  0.26286639127E+03 0.  0.
         25    1    4    4    0    0  0.23428900657E+02 -0.68306453332E+01 -0.10812189774E+03  0.16713295298E+03  0.12509000000E+03 0.  0.
         25    1    4    4    0    0  0.55851469214E+02 -0.36309882555E+01 -0.29552624329E+02  0.14019071436E+03  0.12509000000E+03 0.  0.
         25    1    3    3    0    0 -0.79280369871E+02  0.10461633589E+02 -0.21699401648E+03  0.26292343774E+03  0.12509000000E+03 0.  0.
<mgrwt>
<rscale>  2 0.44653330E+03</rscale>
<asrwt>0</asrwt>
<pdfrwt beam="1">  1       21 0.15851365E-01 0.44653330E+03</pdfrwt>
<pdfrwt beam="2">  1       21 0.68008504E-01 0.44653330E+03</pdfrwt>
<totfact> 0.64777265E+04</totfact>
</mgrwt>
</event>
<event>
 7    0  0.4737014E-002  0.4586788E+03  0.7546771E-02  0.1025165E+00
         21   -1    0    0  502  501  0.00000000000E+00  0.00000000000E+00  0.13954638605E+03  0.13954638605E+03  0.00000000000E+00 0. -1.
         21   -1    0    0  501  502 -0.00000000000E+00 -0.00000000000E+00 -0.37691091790E+03  0.37691091790E+03  0.00000000000E+00 0. -1.
      99926    2    1    2    0    0  0.00000000000E+00 -0.17763568394E-14 -0.23736453185E+03  0.51645730395E+03  0.45867878284E+03 0.  0.
      99925    2    3    3    0    0  0.11363066107E+03  0.14981908193E+02 -0.17294867232E+03  0.33498197293E+03  0.26299295471E+03 0.  0.
         25    1    3    3    0    0 -0.11363066107E+03 -0.14981908193E+02 -0.64415859531E+02  0.18147533102E+03  0.12509000000E+03 0.  0.
         25    1    4    4    0    0  0.61693986990E+02 -0.21128610494E+02 -0.11978795474E+03  0.18506547061E+03  0.12509000000E+03 0.  0.
         25    1    4    4    0    0  0.51936674081E+02  0.36110518687E+02 -0.53160717573E+02  0.14991650232E+03  0.12509000000E+03 0.  0.
<mgrwt>
<rscale>  2 0.45867878E+03</rscale>
<asrwt>0</asrwt>
<pdfrwt beam="1">  1       21 0.20521528E-01 0.45867878E+03</pdfrwt>
<pdfrwt beam="2">  1       21 0.55428075E-01 0.45867878E+03</pdfrwt>
<totfact> 0.62290921E+04</totfact>
</mgrwt>
</event>
<event>
 7    0  0.4737014E-002  0.4576010E+03  0.7546771E-02  0.1025479E+00
         21   -1    0    0  502  501  0.00000000000E+00  0.00000000000E+00  0.14224691482E+03  0.14224691482E+03  0.00000000000E+00 0.  1.
         21   -1    0    0  501  502 -0.00000000000E+00 -0.00000000000E+00 -0.36801977486E+03  0.36801977486E+03  0.00000000000E+00 0.  1.
      99926    2    1    2    0    0  0.00000000000E+00  0.71054273576E-14 -0.22577286004E+03  0.51026668968E+03  0.45760103832E+03 0.  0.
      99925    2    3    3    0    0  0.24409749157E+02 -0.57900853281E+02 -0.24990167510E+03  0.36821721774E+03  0.26302989860E+03 0.  0.
         25    1    4    4    0    0 -0.72239773767E+01 -0.39288882286E+02 -0.78911298157E+02  0.15320020626E+03  0.12509000000E+03 0.  0.
         25    1    4    4    0    0  0.31633726533E+02 -0.18611970995E+02 -0.17099037694E+03  0.21501701148E+03  0.12509000000E+03 0.  0.
         25    1    3    3    0    0 -0.24409749157E+02  0.57900853281E+02  0.24128815057E+02  0.14204947195E+03  0.12509000000E+03 0.  0.
<mgrwt>
<rscale>  2 0.45760104E+03</rscale>
<asrwt>0</asrwt>
<pdfrwt beam="1">  1       21 0.20918664E-01 0.45760104E+03</pdfrwt>
<pdfrwt beam="2">  1       21 0.54120555E-01 0.45760104E+03</pdfrwt>
<totfact> 0.63239655E+04</totfact>
</mgrwt>
</event>
<event>
 7    0  0.4737014E-002  0.4548615E+03  0.7546771E-02  0.1026282E+00
         21   -1    0    0  502  501  0.00000000000E+00  0.00000000000E+00  0.85715475209E+02  0.85715475209E+02  0.00000000000E+00 0. -1.
         21   -1    0    0  501  502 -0.00000000000E+00 -0.00000000000E+00 -0.60344699682E+03  0.60344699682E+03  0.00000000000E+00 0. -1.
      99926    2    1    2    0    0  0.00000000000E+00 -0.71054273576E-14 -0.51773152161E+03  0.68916247203E+03  0.45486150022E+03 0.  0.
      99925    2    3    3    0    0  0.95245683256E+02  0.46056932511E+02 -0.38603915933E+03  0.47896407148E+03  0.26303491787E+03 0.  0.
         25    1    4    4    0    0  0.46372467360E+02  0.63217309251E+02 -0.21546581035E+03  0.26118931342E+03  0.12509000000E+03 0.  0.
         25    1    4    4    0    0  0.48873215896E+02 -0.17160376739E+02 -0.17057334898E+03  0.21777475805E+03  0.12509000000E+03 0.  0.
         25    1    3    3    0    0 -0.95245683256E+02 -0.46056932511E+02 -0.13169236228E+03  0.21019840055E+03  0.12509000000E+03 0.  0.
<mgrwt>
<rscale>  2 0.45486150E+03</rscale>
<asrwt>0</asrwt>
<pdfrwt beam="1">  1       21 0.12605217E-01 0.45486150E+03</pdfrwt>
<pdfrwt beam="2">  1       21 0.88742207E-01 0.45486150E+03</pdfrwt>
<totfact> 0.53553810E+04</totfact>
</mgrwt>
</event>
<event>
 7    0  0.4737014E-002  0.4521440E+03  0.7546771E-02  0.1027085E+00
         21   -1    0    0  502  501  0.00000000000E+00  0.00000000000E+00  0.30773596723E+03  0.30773596723E+03  0.00000000000E+00 0.  1.
         21   -1    0    0  501  502 -0.00000000000E+00 -0.00000000000E+00 -0.16607918843E+03  0.16607918843E+03  0.00000000000E+00 0.  1.
      99926    2    1    2    0    0 -0.22204460493E-15  0.00000000000E+00  0.14165677880E+03  0.47381515566E+03  0.45214395799E+03 0.  0.
      99925    2    3    3    0    0  0.10523652105E+01  0.30682533344E+02 -0.21844668469E+02  0.26567396155E+03  0.26298847689E+03 0.  0.
         25    1    4    4    0    0 -0.21806043611E+01  0.24113626946E+02  0.28625171349E+02  0.13058763561E+03  0.12509000000E+03 0.  0.
         25    1    4    4    0    0  0.32329695716E+01  0.65689063978E+01 -0.50469839818E+02  0.13508632594E+03  0.12509000000E+03 0.  0.
         25    1    3    3    0    0 -0.10523652105E+01 -0.30682533344E+02  0.16350144727E+03  0.20814119411E+03  0.12509000000E+03 0.  0.
<mgrwt>
<rscale>  2 0.45214396E+03</rscale>
<asrwt>0</asrwt>
<pdfrwt beam="1">  1       21 0.45255289E-01 0.45214396E+03</pdfrwt>
<pdfrwt beam="2">  1       21 0.24423410E-01 0.45214396E+03</pdfrwt>
<totfact> 0.68697049E+04</totfact>
</mgrwt>
</event>
<event>
 7    0  0.4737014E-002  0.4493516E+03  0.7546771E-02  0.1027916E+00
         21   -1    0    0  502  501  0.00000000000E+00  0.00000000000E+00  0.58788472797E+02  0.58788472797E+02  0.00000000000E+00 0.  1.
         21   -1    0    0  501  502 -0.00000000000E+00 -0.00000000000E+00 -0.85865853080E+03  0.85865853080E+03  0.00000000000E+00 0.  1.
      99926    2    1    2    0    0  0.17763568394E-14  0.00000000000E+00 -0.79987005800E+03  0.91744700360E+03  0.44935163816E+03 0.  0.
      99925    2    3    3    0    0 -0.81332277797E+01  0.82264561722E+02 -0.36476197982E+03  0.45722949490E+03  0.26300931842E+03 0.  0.
         25    1    4    4    0    0 -0.34131863000E+02  0.51883542056E+02 -0.22986081919E+03  0.26896168929E+03  0.12509000000E+03 0.  0.
         25    1    4    4    0    0  0.25998635220E+02  0.30381019666E+02 -0.13490116062E+03  0.18826780560E+03  0.12509000000E+03 0.  0.
         25    1    3    3    0    0  0.81332277797E+01 -0.82264561722E+02 -0.43510807819E+03  0.46021750870E+03  0.12509000000E+03 0.  0.
<mgrwt>
<rscale>  2 0.44935164E+03</rscale>
<asrwt>0</asrwt>
<pdfrwt beam="1">  1       21 0.86453639E-02 0.44935164E+03</pdfrwt>
<pdfrwt beam="2">  1       21 0.12627331E+00 0.44935164E+03</pdfrwt>
<totfact> 0.44418317E+04</totfact>
</mgrwt>
</event>
<event>
 7    0  0.4737014E-002  0.4517014E+03  0.7546771E-02  0.1027216E+00
         21   -1    0    0  502  501  0.00000000000E+00  0.00000000000E+00  0.68204559912E+02  0.68204559912E+02  0.00000000000E+00 0.  1.
         21   -1    0    0  501  502 -0.00000000000E+00 -0.00000000000E+00 -0.74787566666E+03  0.74787566666E+03  0.00000000000E+00 0.  1.
      99926    2    1    2    0    0  0.00000000000E+00  0.00000000000E+00 -0.67967110675E+03  0.81608022657E+03  0.45170136468E+03 0.  0.
      99925    2    3    3    0    0  0.21722078238E+02 -0.17700035063E+02 -0.23664204038E+03  0.35487809987E+03  0.26297123525E+03 0.  0.
         25    1    4    4    0    0  0.18434122583E+02 -0.21018128694E+02 -0.17048549851E+03  0.21329414411E+03  0.12509000000E+03 0.  0.
         25    1    4    4    0    0  0.32879556550E+01  0.33180936303E+01 -0.66156541874E+02  0.14158395577E+03  0.12509000000E+03 0.  0.
         25    1    3    3    0    0 -0.21722078238E+02  0.17700035063E+02 -0.44302906637E+03  0.46120212670E+03  0.12509000000E+03 0.  0.
<mgrwt>
<rscale>  2 0.45170136E+03</rscale>
<asrwt>0</asrwt>
<pdfrwt beam="1">  1       21 0.10030083E-01 0.45170136E+03</pdfrwt>
<pdfrwt beam="2">  1       21 0.10998171E+00 0.45170136E+03</pdfrwt>
<totfact> 0.48233255E+04</totfact>
</mgrwt>
</event>
<event>
 7    0  0.4737014E-002  0.4548242E+03  0.7546771E-02  0.1026293E+00
         21   -1    0    0  502  501  0.00000000000E+00  0.00000000000E+00  0.31548805974E+03  0.31548805974E+03  0.00000000000E+00 0.  1.
         21   -1    0    0  501  502 -0.00000000000E+00 -0.00000000000E+00 -0.16392460309E+03  0.16392460309E+03  0.00000000000E+00 0.  1.
      99926    2    1    2    0    0 -0.14210854715E-13 -0.35527136788E-14  0.15156345665E+03  0.47941266283E+03  0.45482416371E+03 0.  0.
      99925    2    3    3    0    0  0.87008236237E+02  0.10805890526E+02  0.20572615704E+02  0.27818316958E+03  0.26320228509E+03 0.  0.
         25    1    4    4    0    0  0.46042062078E+02  0.40737450798E+02 -0.10129744383E+02  0.13974809909E+03  0.12509000000E+03 0.  0.
         25    1    4    4    0    0  0.40966174159E+02 -0.29931560271E+02  0.30702360087E+02  0.13843507049E+03  0.12509000000E+03 0.  0.
         25    1    3    3    0    0 -0.87008236237E+02 -0.10805890526E+02  0.13099084095E+03  0.20122949326E+03  0.12509000000E+03 0.  0.
<mgrwt>
<rscale>  2 0.45482416E+03</rscale>
<asrwt>0</asrwt>
<pdfrwt beam="1">  1       21 0.46395303E-01 0.45482416E+03</pdfrwt>
<pdfrwt beam="2">  1       21 0.24106559E-01 0.45482416E+03</pdfrwt>
<totfact> 0.66836107E+04</totfact>
</mgrwt>
</event>
<event>
 7    0  0.4737014E-002  0.4508333E+03  0.7546771E-02  0.1027474E+00
         21   -1    0    0  502  501  0.00000000000E+00  0.00000000000E+00  0.15465858666E+03  0.15465858666E+03  0.00000000000E+00 0. -1.
         21   -1    0    0  501  502 -0.00000000000E+00 -0.00000000000E+00 -0.32854732149E+03  0.32854732149E+03  0.00000000000E+00 0. -1.
      99926    2    1    2    0    0  0.00000000000E+00  0.00000000000E+00 -0.17388873483E+03  0.48320590816E+03  0.45083329245E+03 0.  0.
      99925    2    3    3    0    0 -0.82280198710E+02 -0.38534749881E+02 -0.44675561735E+02  0.28171518815E+03  0.26289272217E+03 0.  0.
         25    1    4    4    0    0 -0.60760189237E+02 -0.54392293018E+01 -0.56086024646E+02  0.15004844575E+03  0.12509000000E+03 0.  0.
         25    1    3    3    0    0  0.82280198710E+02  0.38534749881E+02 -0.12921317309E+03  0.20149072001E+03  0.12509000000E+03 0.  0.
         25    1    4    4    0    0 -0.21520009472E+02 -0.33095520579E+02  0.11410462911E+02  0.13166674240E+03  0.12509000000E+03 0.  0.
<mgrwt>
<rscale>  2 0.45083329E+03</rscale>
<asrwt>0</asrwt>
<pdfrwt beam="1">  1       21 0.22743910E-01 0.45083329E+03</pdfrwt>
<pdfrwt beam="2">  1       21 0.48315782E-01 0.45083329E+03</pdfrwt>
<totfact> 0.68712297E+04</totfact>
</mgrwt>
</event>
<event>
 7    0  0.4737014E-002  0.4544949E+03  0.7546771E-02  0.1026390E+00
         21   -1    0    0  502  501  0.00000000000E+00  0.00000000000E+00  0.24160130944E+03  0.24160130944E+03  0.00000000000E+00 0. -1.
         21   -1    0    0  501  502 -0.00000000000E+00 -0.00000000000E+00 -0.21374637430E+03  0.21374637430E+03  0.00000000000E+00 0. -1.
      99926    2    1    2    0    0  0.00000000000E+00  0.00000000000E+00  0.27854935142E+02  0.45534768374E+03  0.45449490170E+03 0.  0.
      99925    2    3    3    0    0 -0.98852011500E+02  0.26581826227E+02 -0.29513199237E+02  0.28383405569E+03  0.26308255088E+03 0.  0.
         25    1    4    4    0    0 -0.17861967554E+02 -0.14107254733E+02 -0.35571052974E+01  0.12719365400E+03  0.12509000000E+03 0.  0.
         25    1    4    4    0    0 -0.80990043946E+02  0.40689080960E+02 -0.25956093939E+02  0.15664040169E+03  0.12509000000E+03 0.  0.
         25    1    3    3    0    0  0.98852011500E+02 -0.26581826227E+02  0.57368134379E+02  0.17151362805E+03  0.12509000000E+03 0.  0.
<mgrwt>
<rscale>  2 0.45449490E+03</rscale>
<asrwt>0</asrwt>
<pdfrwt beam="1">  1       21 0.35529604E-01 0.45449490E+03</pdfrwt>
<pdfrwt beam="2">  1       21 0.31433290E-01 0.45449490E+03</pdfrwt>
<totfact> 0.68797204E+04</totfact>
</mgrwt>
</event>
<event>
 7    0  0.4737014E-002  0.4605418E+03  0.7546771E-02  0.1024624E+00
         21   -1    0    0  502  501  0.00000000000E+00  0.00000000000E+00  0.51255248754E+03  0.51255248754E+03  0.00000000000E+00 0.  1.
         21   -1    0    0  501  502 -0.00000000000E+00 -0.00000000000E+00 -0.10345220521E+03  0.10345220521E+03  0.00000000000E+00 0.  1.
      99926    2    1    2    0    0  0.00000000000E+00  0.00000000000E+00  0.40910028232E+03  0.61600469275E+03  0.46054179017E+03 0.  0.
      99925    2    3    3    0    0 -0.85917782959E+02 -0.80336161173E+02  0.27550429679E+03  0.39844743667E+03  0.26272034185E+03 0.  0.
         25    1    4    4    0    0 -0.82205807376E+02 -0.57859144150E+02  0.16151725704E+03  0.22768576536E+03  0.12509000000E+03 0.  0.
         25    1    3    3    0    0  0.85917782959E+02  0.80336161173E+02  0.13359598553E+03  0.21755725608E+03  0.12509000000E+03 0.  0.
         25    1    4    4    0    0 -0.37119755833E+01 -0.22477017023E+02  0.11398703975E+03  0.17076167131E+03  0.12509000000E+03 0.  0.
<mgrwt>
<rscale>  2 0.46054179E+03</rscale>
<asrwt>0</asrwt>
<pdfrwt beam="1">  1       21 0.75375365E-01 0.46054179E+03</pdfrwt>
<pdfrwt beam="2">  1       21 0.15213560E-01 0.46054179E+03</pdfrwt>
<totfact> 0.55245817E+04</totfact>
</mgrwt>
</event>
<event>
 7    0  0.4737014E-002  0.4826320E+03  0.7546771E-02  0.1018414E+00
         21   -1    0    0  502  501  0.00000000000E+00  0.00000000000E+00  0.99477120996E+03  0.99477120996E+03  0.00000000000E+00 0. -1.
         21   -1    0    0  501  502 -0.00000000000E+00 -0.00000000000E+00 -0.58539504824E+02  0.58539504824E+02  0.00000000000E+00 0. -1.
      99926    2    1    2    0    0  0.71054273576E-14 -0.14210854715E-13  0.93623170514E+03  0.10533107148E+04  0.48263200907E+03 0.  0.
      99925    2    3    3    0    0 -0.62860689498E+02  0.11069890780E+03  0.46296913066E+03  0.54751363396E+03  0.26310653536E+03 0.  0.
         25    1    4    4    0    0 -0.36288363814E+02  0.82022940756E+02  0.18850159572E+03  0.24336180441E+03  0.12509000000E+03 0.  0.
         25    1    3    3    0    0  0.62860689498E+02 -0.11069890780E+03  0.47326257448E+03  0.50579708083E+03  0.12509000000E+03 0.  0.
         25    1    4    4    0    0 -0.26572325684E+02  0.28675967048E+02  0.27446753494E+03  0.30415182954E+03  0.12509000000E+03 0.  0.
<mgrwt>
<rscale>  2 0.48263201E+03</rscale>
<asrwt>0</asrwt>
<pdfrwt beam="1">  1       21 0.14628987E+00 0.48263201E+03</pdfrwt>
<pdfrwt beam="2">  1       21 0.86087513E-02 0.48263201E+03</pdfrwt>
<totfact> 0.30116958E+04</totfact>
</mgrwt>
</event>
<event>
 7    0  0.4737014E-002  0.4052412E+03  0.7546771E-02  0.1041980E+00
         21   -1    0    0  502  501  0.00000000000E+00  0.00000000000E+00  0.14665476899E+03  0.14665476899E+03  0.00000000000E+00 0. -1.
         21   -1    0    0  501  502 -0.00000000000E+00 -0.00000000000E+00 -0.27994392943E+03  0.27994392943E+03  0.00000000000E+00 0. -1.
      99926    2    1    2    0    0  0.71054273576E-14  0.35527136788E-14 -0.13328916044E+03  0.42659869841E+03  0.40524122347E+03 0.  0.
      99925    2    3    3    0    0  0.49021356667E+02  0.18651858408E+02 -0.10461146778E+03  0.28795922572E+03  0.26310828808E+03 0.  0.
         25    1    3    3    0    0 -0.49021356667E+02 -0.18651858408E+02 -0.28677692657E+02  0.13863947269E+03  0.12509000000E+03 0.  0.
         25    1    4    4    0    0  0.39225765258E+02  0.15389462230E+02 -0.93898634073E+02  0.16198752356E+03  0.12509000000E+03 0.  0.
         25    1    4    4    0    0  0.97955914092E+01  0.32623961778E+01 -0.10712833710E+02  0.12597170216E+03  0.12509000000E+03 0.  0.
<mgrwt>
<rscale>  2 0.40524122E+03</rscale>
<asrwt>0</asrwt>
<pdfrwt beam="1">  1       21 0.21566878E-01 0.40524122E+03</pdfrwt>
<pdfrwt beam="2">  1       21 0.41168225E-01 0.40524122E+03</pdfrwt>
<totfact> 0.10731029E+05</totfact>
</mgrwt>
</event>
<event>
 7    0  0.4737014E-002  0.4522024E+03  0.7546771E-02  0.1027067E+00
         21   -1    0    0  502  501  0.00000000000E+00  0.00000000000E+00  0.74424477488E+02  0.74424477488E+02  0.00000000000E+00 0.  1.
         21   -1    0    0  501  502 -0.00000000000E+00 -0.00000000000E+00 -0.68689431353E+03  0.68689431353E+03  0.00000000000E+00 0.  1.
      99926    2    1    2    0    0 -0.17763568394E-14  0.00000000000E+00 -0.61246983604E+03  0.76131879102E+03  0.45220238997E+03 0.  0.
      99925    2    3    3    0    0  0.10524955885E+02  0.10506955808E+03 -0.44118982456E+03  0.52439108651E+03  0.26303452925E+03 0.  0.
         25    1    3    3    0    0 -0.10524955885E+02 -0.10506955808E+03 -0.17128001148E+03  0.23692770451E+03  0.12509000000E+03 0.  0.
         25    1    4    4    0    0  0.33810209913E+02  0.79198320192E+02 -0.26647863736E+03  0.30671464993E+03  0.12509000000E+03 0.  0.
         25    1    4    4    0    0 -0.23285254028E+02  0.25871237890E+02 -0.17471118721E+03  0.21767643657E+03  0.12509000000E+03 0.  0.
<mgrwt>
<rscale>  2 0.45220239E+03</rscale>
<asrwt>0</asrwt>
<pdfrwt beam="1">  1       21 0.10944776E-01 0.45220239E+03</pdfrwt>
<pdfrwt beam="2">  1       21 0.10101387E+00 0.45220239E+03</pdfrwt>
<totfact> 0.50798924E+04</totfact>
</mgrwt>
</event>
<event>
 7    0  0.4737014E-002  0.4535245E+03  0.7546771E-02  0.1026676E+00
         21   -1    0    0  502  501  0.00000000000E+00  0.00000000000E+00  0.34980377426E+03  0.34980377426E+03  0.00000000000E+00 0. -1.
         21   -1    0    0  501  502 -0.00000000000E+00 -0.00000000000E+00 -0.14699990480E+03  0.14699990480E+03  0.00000000000E+00 0. -1.
      99926    2    1    2    0    0  0.00000000000E+00  0.00000000000E+00  0.20280386946E+03  0.49680367906E+03  0.45352451539E+03 0.  0.
      99925    2    3    3    0    0 -0.49248950729E+01 -0.10936830591E+03  0.15259527446E+03  0.32315434263E+03  0.26297857412E+03 0.  0.
         25    1    3    3    0    0  0.49248950729E+01  0.10936830591E+03  0.50208594993E+02  0.17364933643E+03  0.12509000000E+03 0.  0.
         25    1    4    4    0    0 -0.88407618300E+01 -0.58043552092E+02  0.12231066647E+03  0.18453893964E+03  0.12509000000E+03 0.  0.
         25    1    4    4    0    0  0.39158667571E+01 -0.51324753822E+02  0.30284607990E+02  0.13861540300E+03  0.12509000000E+03 0.  0.
<mgrwt>
<rscale>  2 0.45352452E+03</rscale>
<asrwt>0</asrwt>
<pdfrwt beam="1">  1       21 0.51441732E-01 0.45352452E+03</pdfrwt>
<pdfrwt beam="2">  1       21 0.21617633E-01 0.45352452E+03</pdfrwt>
<totfact> 0.66268598E+04</totfact>
</mgrwt>
</event>
<event>
 7    0  0.4737014E-002  0.4495065E+03  0.7546771E-02  0.1027869E+00
         21   -1    0    0  502  501  0.00000000000E+00  0.00000000000E+00  0.37079002950E+03  0.37079002950E+03  0.00000000000E+00 0.  1.
         21   -1    0    0  501  502 -0.00000000000E+00 -0.00000000000E+00 -0.13623349989E+03  0.13623349989E+03  0.00000000000E+00 0.  1.
      99926    2    1    2    0    0 -0.44408920985E-14  0.00000000000E+00  0.23455652962E+03  0.50702352939E+03  0.44950650025E+03 0.  0.
      99925    2    3    3    0    0 -0.64343878098E+01 -0.75858011244E+02  0.23414464850E+03  0.36058747863E+03  0.26344596051E+03 0.  0.
         25    1    3    3    0    0  0.64343878098E+01  0.75858011244E+02  0.41188111569E+00  0.14643605076E+03  0.12509000000E+03 0.  0.
         25    1    4    4    0    0 -0.38957314535E+02 -0.56974452088E+02  0.13547853327E+03  0.19689007497E+03  0.12509000000E+03 0.  0.
         25    1    4    4    0    0  0.32522926725E+02 -0.18883559155E+02  0.98666115234E+02  0.16369740366E+03  0.12509000000E+03 0.  0.
<mgrwt>
<rscale>  2 0.44950650E+03</rscale>
<asrwt>0</asrwt>
<pdfrwt beam="1">  1       21 0.54527945E-01 0.44950650E+03</pdfrwt>
<pdfrwt beam="2">  1       21 0.20034338E-01 0.44950650E+03</pdfrwt>
<totfact> 0.67683040E+04</totfact>
</mgrwt>
</event>
<event>
 7    0  0.4737014E-002  0.4295370E+03  0.7546771E-02  0.1034006E+00
         21   -1    0    0  502  501  0.00000000000E+00  0.00000000000E+00  0.30823944001E+03  0.30823944001E+03  0.00000000000E+00 0.  1.
         21   -1    0    0  501  502 -0.00000000000E+00 -0.00000000000E+00 -0.14964183166E+03  0.14964183166E+03  0.00000000000E+00 0.  1.
      99926    2    1    2    0    0  0.00000000000E+00  0.00000000000E+00  0.15859760835E+03  0.45788127167E+03  0.42953702701E+03 0.  0.
      99925    2    3    3    0    0 -0.60120815723E+02  0.63136722765E+02  0.10115322966E+03  0.29494532417E+03  0.26298290845E+03 0.  0.
         25    1    4    4    0    0 -0.84077781819E+01  0.38990622730E+01  0.22070536123E+02  0.12735976635E+03  0.12509000000E+03 0.  0.
         25    1    4    4    0    0 -0.51713037541E+02  0.59237660492E+02  0.79082693535E+02  0.16758555782E+03  0.12509000000E+03 0.  0.
         25    1    3    3    0    0  0.60120815723E+02 -0.63136722765E+02  0.57444378687E+02  0.16293594750E+03  0.12509000000E+03 0.  0.
<mgrwt>
<rscale>  2 0.42953703E+03</rscale>
<asrwt>0</asrwt>
<pdfrwt beam="1">  1       21 0.45329329E-01 0.42953703E+03</pdfrwt>
<pdfrwt beam="2">  1       21 0.22006152E-01 0.42953703E+03</pdfrwt>
<totfact> 0.84098181E+04</totfact>
</mgrwt>
</event>
<event>
 7    0  0.4737014E-002  0.4315867E+03  0.7546771E-02  0.1033360E+00
         21   -1    0    0  502  501  0.00000000000E+00  0.00000000000E+00  0.90884917209E+02  0.90884917209E+02  0.00000000000E+00 0. -1.
         21   -1    0    0  501  502 -0.00000000000E+00 -0.00000000000E+00 -0.51237063118E+03  0.51237063118E+03  0.00000000000E+00 0. -1.
      99926    2    1    2    0    0  0.71054273576E-14  0.00000000000E+00 -0.42148571397E+03  0.60325554838E+03  0.43158666520E+03 0.  0.
      99925    2    3    3    0    0 -0.56157420030E+02 -0.16754994360E+02 -0.17666523161E+03  0.32215243147E+03  0.26293953560E+03 0.  0.
         25    1    4    4    0    0  0.10420073496E+02  0.10516555688E+01 -0.68540892196E+02  0.14302113800E+03  0.12509000000E+03 0.  0.
         25    1    4    4    0    0 -0.66577493525E+02 -0.17806649929E+02 -0.10812433942E+03  0.17913129347E+03  0.12509000000E+03 0.  0.
         25    1    3    3    0    0  0.56157420030E+02  0.16754994360E+02 -0.24482048236E+03  0.28110311692E+03  0.12509000000E+03 0.  0.
<mgrwt>
<rscale>  2 0.43158667E+03</rscale>
<asrwt>0</asrwt>
<pdfrwt beam="1">  1       21 0.13365429E-01 0.43158667E+03</pdfrwt>
<pdfrwt beam="2">  1       21 0.75348621E-01 0.43158667E+03</pdfrwt>
<totfact> 0.70669838E+04</totfact>
</mgrwt>
</event>
<event>
 7    0  0.4737014E-002  0.4451742E+03  0.7546771E-02  0.1029171E+00
         21   -1    0    0  502  501  0.00000000000E+00  0.00000000000E+00  0.41740951213E+02  0.41740951213E+02  0.00000000000E+00 0. -1.
         21   -1    0    0  501  502 -0.00000000000E+00 -0.00000000000E+00 -0.11869643475E+04  0.11869643475E+04  0.00000000000E+00 0. -1.
      99926    2    1    2    0    0  0.00000000000E+00 -0.22204460493E-15 -0.11452233963E+04  0.12287052987E+04  0.44517421722E+03 0.  0.
      99925    2    3    3    0    0  0.10342341193E+03  0.16044041274E+01 -0.74956156140E+03  0.80104331544E+03  0.26292372018E+03 0.  0.
         25    1    3    3    0    0 -0.10342341193E+03 -0.16044041274E+01 -0.39566183486E+03  0.42766198325E+03  0.12509000000E+03 0.  0.
         25    1    4    4    0    0  0.70922690889E+02 -0.10226993639E+02 -0.49117982296E+03  0.51189817939E+03  0.12509000000E+03 0.  0.
         25    1    4    4    0    0  0.32500721044E+02  0.11831397767E+02 -0.25838173844E+03  0.28914513605E+03  0.12509000000E+03 0.  0.
<mgrwt>
<rscale>  2 0.44517422E+03</rscale>
<asrwt>0</asrwt>
<pdfrwt beam="1">  1       21 0.61383754E-02 0.44517422E+03</pdfrwt>
<pdfrwt beam="2">  1       21 0.17455357E+00 0.44517422E+03</pdfrwt>
<totfact> 0.33767874E+04</totfact>
</mgrwt>
</event>
<event>
 7    0  0.4737014E-002  0.4512682E+03  0.7546771E-02  0.1027345E+00
         21   -1    0    0  502  501  0.00000000000E+00  0.00000000000E+00  0.73462959675E+03  0.73462959675E+03  0.00000000000E+00 0.  1.
         21   -1    0    0  501  502 -0.00000000000E+00 -0.00000000000E+00 -0.69301249169E+02  0.69301249169E+02  0.00000000000E+00 0.  1.
      99926    2    1    2    0    0  0.00000000000E+00 -0.71054273576E-14  0.66532834758E+03  0.80393084592E+03  0.45126820731E+03 0.  0.
      99925    2    3    3    0    0  0.10429772784E+02  0.48134307792E+02  0.59457703574E+03  0.65201327625E+03  0.26300906682E+03 0.  0.
         25    1    4    4    0    0  0.38220143611E+02  0.13770956679E+02  0.24429000763E+03  0.27744465133E+03  0.12509000000E+03 0.  0.
         25    1    3    3    0    0 -0.10429772784E+02 -0.48134307792E+02  0.70751311844E+02  0.15191756967E+03  0.12509000000E+03 0.  0.
         25    1    4    4    0    0 -0.27790370827E+02  0.34363351113E+02  0.35028702811E+03  0.37456862492E+03  0.12509000000E+03 0.  0.
<mgrwt>
<rscale>  2 0.45126821E+03</rscale>
<asrwt>0</asrwt>
<pdfrwt beam="1">  1       21 0.10803376E+00 0.45126821E+03</pdfrwt>
<pdfrwt beam="2">  1       21 0.10191361E-01 0.45126821E+03</pdfrwt>
<totfact> 0.48994414E+04</totfact>
</mgrwt>
</event>
<event>
 7    0  0.4737014E-002  0.4521252E+03  0.7546771E-02  0.1027090E+00
         21   -1    0    0  502  501  0.00000000000E+00  0.00000000000E+00  0.43107367211E+03  0.43107367211E+03  0.00000000000E+00 0.  1.
         21   -1    0    0  501  502 -0.00000000000E+00 -0.00000000000E+00 -0.11855121036E+03  0.11855121036E+03  0.00000000000E+00 0.  1.
      99926    2    1    2    0    0  0.00000000000E+00  0.00000000000E+00  0.31252246175E+03  0.54962488246E+03  0.45212522859E+03 0.  0.
      99925    2    3    3    0    0  0.59106897830E+02  0.79338506090E+02  0.13745482781E+03  0.31280341284E+03  0.26299034484E+03 0.  0.
         25    1    3    3    0    0 -0.59106897830E+02 -0.79338506090E+02  0.17506763394E+03  0.23682146962E+03  0.12509000000E+03 0.  0.
         25    1    4    4    0    0 -0.29839629013E+01  0.38359422165E+02  0.93253697722E+02  0.16069881624E+03  0.12509000000E+03 0.  0.
         25    1    4    4    0    0  0.62090860731E+02  0.40979083925E+02  0.44201130091E+02  0.15210459660E+03  0.12509000000E+03 0.  0.
<mgrwt>
<rscale>  2 0.45212523E+03</rscale>
<asrwt>0</asrwt>
<pdfrwt beam="1">  1       21 0.63393187E-01 0.45212523E+03</pdfrwt>
<pdfrwt beam="2">  1       21 0.17434002E-01 0.45212523E+03</pdfrwt>
<totfact> 0.63319261E+04</totfact>
</mgrwt>
</event>
<event>
 7    0  0.4737014E-002  0.4549396E+03  0.7546771E-02  0.1026259E+00
         21   -1    0    0  502  501  0.00000000000E+00  0.00000000000E+00  0.35013066508E+03  0.35013066508E+03  0.00000000000E+00 0.  1.
         21   -1    0    0  501  502 -0.00000000000E+00 -0.00000000000E+00 -0.14778056267E+03  0.14778056267E+03  0.00000000000E+00 0.  1.
      99926    2    1    2    0    0  0.00000000000E+00  0.71054273576E-14  0.20235010241E+03  0.49791122774E+03  0.45493958584E+03 0.  0.
      99925    2    3    3    0    0 -0.70337210089E+02  0.41896559441E+02  0.42000976644E+02  0.27868076670E+03  0.26305178743E+03 0.  0.
         25    1    3    3    0    0  0.70337210089E+02 -0.41896559441E+02  0.16034912577E+03  0.21923046105E+03  0.12509000000E+03 0.  0.
         25    1    4    4    0    0 -0.13295074459E+02  0.43202052391E+02  0.47095711149E+02  0.14109815890E+03  0.12509000000E+03 0.  0.
         25    1    4    4    0    0 -0.57042135631E+02 -0.13054929499E+01 -0.50947345046E+01  0.13758260780E+03  0.12509000000E+03 0.  0.
<mgrwt>
<rscale>  2 0.45493959E+03</rscale>
<asrwt>0</asrwt>
<pdfrwt beam="1">  1       21 0.51489804E-01 0.45493959E+03</pdfrwt>
<pdfrwt beam="2">  1       21 0.21732436E-01 0.45493959E+03</pdfrwt>
<totfact> 0.65449035E+04</totfact>
</mgrwt>
</event>
<event>
 7    0  0.4737014E-002  0.4518603E+03  0.7546771E-02  0.1027169E+00
         21   -1    0    0  502  501  0.00000000000E+00  0.00000000000E+00  0.30275392546E+02  0.30275392546E+02  0.00000000000E+00 0. -1.
         21   -1    0    0  501  502 -0.00000000000E+00 -0.00000000000E+00 -0.16860042103E+04  0.16860042103E+04  0.00000000000E+00 0. -1.
      99926    2    1    2    0    0  0.00000000000E+00  0.00000000000E+00 -0.16557288178E+04  0.17162796029E+04  0.45186032932E+03 0.  0.
      99925    2    3    3    0    0 -0.27593056178E+02 -0.62516924756E+02 -0.13729348172E+04  0.13995941162E+04  0.26314242356E+03 0.  0.
         25    1    4    4    0    0 -0.51117104113E+02 -0.22041351211E+02 -0.62421651765E+03  0.63905598229E+03  0.12509000000E+03 0.  0.
         25    1    3    3    0    0  0.27593056178E+02  0.62516924756E+02 -0.28279400057E+03  0.31668548670E+03  0.12509000000E+03 0.  0.
         25    1    4    4    0    0  0.23524047935E+02 -0.40475573545E+02 -0.74871829956E+03  0.76053813387E+03  0.12509000000E+03 0.  0.
<mgrwt>
<rscale>  2 0.45186033E+03</rscale>
<asrwt>0</asrwt>
<pdfrwt beam="1">  1       21 0.44522628E-02 0.45186033E+03</pdfrwt>
<pdfrwt beam="2">  1       21 0.24794184E+00 0.45186033E+03</pdfrwt>
<totfact> 0.19393385E+04</totfact>
</mgrwt>
</event>
<event>
 7    0  0.4737014E-002  0.4533166E+03  0.7546771E-02  0.1026738E+00
         21   -1    0    0  502  501  0.00000000000E+00  0.00000000000E+00  0.29032898645E+02  0.29032898645E+02  0.00000000000E+00 0. -1.
         21   -1    0    0  501  502 -0.00000000000E+00 -0.00000000000E+00 -0.17695090119E+04  0.17695090119E+04  0.00000000000E+00 0. -1.
      99926    2    1    2    0    0  0.00000000000E+00  0.00000000000E+00 -0.17404761132E+04  0.17985419105E+04  0.45331655956E+03 0.  0.
      99925    2    3    3    0    0 -0.66313171920E+02  0.87653678059E+02 -0.10172675368E+04  0.10564106842E+04  0.26284917365E+03 0.  0.
         25    1    4    4    0    0 -0.28072602154E+02  0.43768701023E+01 -0.40604877907E+03  0.42582901154E+03  0.12509000000E+03 0.  0.
         25    1    4    4    0    0 -0.38240569766E+02  0.83276807957E+02 -0.61121875774E+03  0.63058167261E+03  0.12509000000E+03 0.  0.
         25    1    3    3    0    0  0.66313171920E+02 -0.87653678059E+02 -0.72320857641E+03  0.74213122636E+03  0.12509000000E+03 0.  0.
<mgrwt>
<rscale>  2 0.45331656E+03</rscale>
<asrwt>0</asrwt>
<pdfrwt beam="1">  1       21 0.42695433E-02 0.45331656E+03</pdfrwt>
<pdfrwt beam="2">  1       21 0.26022195E+00 0.45331656E+03</pdfrwt>
<totfact> 0.17515276E+04</totfact>
</mgrwt>
</event>
<event>
 7    0  0.4737014E-002  0.4506899E+03  0.7546771E-02  0.1027517E+00
         21   -1    0    0  502  501  0.00000000000E+00  0.00000000000E+00  0.78659796959E+02  0.78659796959E+02  0.00000000000E+00 0.  1.
         21   -1    0    0  501  502 -0.00000000000E+00 -0.00000000000E+00 -0.64556926371E+03  0.64556926371E+03  0.00000000000E+00 0.  1.
      99926    2    1    2    0    0 -0.71054273576E-14  0.00000000000E+00 -0.56690946675E+03  0.72422906067E+03  0.45068990318E+03 0.  0.
      99925    2    3    3    0    0  0.62230811143E+02  0.66803135982E+02 -0.26192827783E+03  0.38218174446E+03  0.26290897709E+03 0.  0.
         25    1    4    4    0    0  0.34055936328E+02  0.40866735091E+02 -0.78781653261E+02  0.15711127848E+03  0.12509000000E+03 0.  0.
         25    1    3    3    0    0 -0.62230811143E+02 -0.66803135982E+02 -0.30498118892E+03  0.34204731621E+03  0.12509000000E+03 0.  0.
         25    1    4    4    0    0  0.28174874815E+02  0.25936400891E+02 -0.18314662457E+03  0.22507046597E+03  0.12509000000E+03 0.  0.
<mgrwt>
<rscale>  2 0.45068990E+03</rscale>
<asrwt>0</asrwt>
<pdfrwt beam="1">  1       21 0.11567617E-01 0.45068990E+03</pdfrwt>
<pdfrwt beam="2">  1       21 0.94936660E-01 0.45068990E+03</pdfrwt>
<totfact> 0.53394220E+04</totfact>
</mgrwt>
</event>
<event>
 7    0  0.4737014E-002  0.4578312E+03  0.7546771E-02  0.1025412E+00
         21   -1    0    0  502  501  0.00000000000E+00  0.00000000000E+00  0.34216811252E+03  0.34216811252E+03  0.00000000000E+00 0. -1.
         21   -1    0    0  501  502 -0.00000000000E+00 -0.00000000000E+00 -0.15314797679E+03  0.15314797679E+03  0.00000000000E+00 0. -1.
      99926    2    1    2    0    0  0.00000000000E+00  0.00000000000E+00  0.18902013573E+03  0.49531608931E+03  0.45783120975E+03 0.  0.
      99925    2    3    3    0    0 -0.71510577866E+02 -0.51601322743E+02  0.19987665611E+03  0.34188261386E+03  0.26297639579E+03 0.  0.
         25    1    4    4    0    0 -0.52266949563E+02 -0.19304599172E+02  0.14718977838E+03  0.20103940043E+03  0.12509000000E+03 0.  0.
         25    1    4    4    0    0 -0.19243628303E+02 -0.32296723571E+02  0.52686877730E+02  0.14084321343E+03  0.12509000000E+03 0.  0.
         25    1    3    3    0    0  0.71510577866E+02  0.51601322743E+02 -0.10856520376E+02  0.15343347545E+03  0.12509000000E+03 0.  0.
<mgrwt>
<rscale>  2 0.45783121E+03</rscale>
<asrwt>0</asrwt>
<pdfrwt beam="1">  1       21 0.50318840E-01 0.45783121E+03</pdfrwt>
<pdfrwt beam="2">  1       21 0.22521761E-01 0.45783121E+03</pdfrwt>
<totfact> 0.64147056E+04</totfact>
</mgrwt>
</event>
<event>
 7    0  0.4737014E-002  0.4569856E+03  0.7546771E-02  0.1025659E+00
         21   -1    0    0  502  501  0.00000000000E+00  0.00000000000E+00  0.46247084467E+03  0.46247084467E+03  0.00000000000E+00 0. -1.
         21   -1    0    0  501  502 -0.00000000000E+00 -0.00000000000E+00 -0.11289134110E+03  0.11289134110E+03  0.00000000000E+00 0. -1.
      99926    2    1    2    0    0  0.00000000000E+00  0.00000000000E+00  0.34957950356E+03  0.57536218577E+03  0.45698557472E+03 0.  0.
      99925    2    3    3    0    0 -0.41260980422E+02  0.10603259079E+03  0.24135459776E+03  0.37459984580E+03  0.26292132625E+03 0.  0.
         25    1    3    3    0    0  0.41260980422E+02 -0.10603259079E+03  0.10822490580E+03  0.20076233997E+03  0.12509000000E+03 0.  0.
         25    1    4    4    0    0 -0.16647588627E+02  0.52195200206E+02  0.67331271631E+02  0.15225796981E+03  0.12509000000E+03 0.  0.
         25    1    4    4    0    0 -0.24613391795E+02  0.53837390583E+02  0.17402332613E+03  0.22234187599E+03  0.12509000000E+03 0.  0.
<mgrwt>
<rscale>  2 0.45698557E+03</rscale>
<asrwt>0</asrwt>
<pdfrwt beam="1">  1       21 0.68010417E-01 0.45698557E+03</pdfrwt>
<pdfrwt beam="2">  1       21 0.16601668E-01 0.45698557E+03</pdfrwt>
<totfact> 0.59284777E+04</totfact>
</mgrwt>
</event>
<event>
 6    0  0.4737014E-002  0.4699176E+03  0.7546771E-02  0.1021943E+00
         21   -1    0    0  502  501  0.00000000000E+00  0.00000000000E+00  0.76486276839E+02  0.76486276839E+02  0.00000000000E+00 0. -1.
         21   -1    0    0  501  502 -0.00000000000E+00 -0.00000000000E+00 -0.72177186919E+03  0.72177186919E+03  0.00000000000E+00 0. -1.
      99926    2    1    2    0    0  0.71054273576E-14  0.00000000000E+00 -0.64528559235E+03  0.79825814603E+03  0.46991762258E+03 0.  0.
         25    1    3    3    0    0  0.26845131125E+02 -0.71691188779E+01 -0.13333726987E+03  0.18492807512E+03  0.12509000000E+03 0.  0.
         25    1    3    3    0    0 -0.55279475836E+02 -0.72456625473E+02 -0.38886837801E+03  0.41853543045E+03  0.12509000000E+03 0.  0.
         25    1    3    3    0    0  0.28434344711E+02  0.79625744351E+02 -0.12307994447E+03  0.19479464047E+03  0.12509000000E+03 0.  0.
<mgrwt>
<rscale>  2 0.46991762E+03</rscale>
<asrwt>0</asrwt>
<pdfrwt beam="1">  1       21 0.11247982E-01 0.46991762E+03</pdfrwt>
<pdfrwt beam="2">  1       21 0.10614292E+00 0.46991762E+03</pdfrwt>
<totfact> 0.42634454E+04</totfact>
</mgrwt>
</event>
<event>
 7    0  0.4737014E-002  0.4610386E+03  0.7546771E-02  0.1024480E+00
         21   -1    0    0  502  501  0.00000000000E+00  0.00000000000E+00  0.42161722832E+03  0.42161722832E+03  0.00000000000E+00 0.  1.
         21   -1    0    0  501  502 -0.00000000000E+00 -0.00000000000E+00 -0.12603644530E+03  0.12603644530E+03  0.00000000000E+00 0.  1.
      99926    2    1    2    0    0  0.71054273576E-14  0.71054273576E-14  0.29558078302E+03  0.54765367362E+03  0.46103855256E+03 0.  0.
      99925    2    3    3    0    0  0.52675585348E+02  0.57461844430E+02  0.78400046276E+02  0.28518165346E+03  0.26287911168E+03 0.  0.
         25    1    4    4    0    0  0.22551976996E+02  0.28602863146E+02 -0.28140503706E+01  0.13031554944E+03  0.12509000000E+03 0.  0.
         25    1    4    4    0    0  0.30123608353E+02  0.28858981284E+02  0.81214096646E+02  0.15486610402E+03  0.12509000000E+03 0.  0.
         25    1    3    3    0    0 -0.52675585348E+02 -0.57461844430E+02  0.21718073674E+03  0.26247202016E+03  0.12509000000E+03 0.  0.
<mgrwt>
<rscale>  2 0.46103855E+03</rscale>
<asrwt>0</asrwt>
<pdfrwt beam="1">  1       21 0.62002533E-01 0.46103855E+03</pdfrwt>
<pdfrwt beam="2">  1       21 0.18534772E-01 0.46103855E+03</pdfrwt>
<totfact> 0.59144816E+04</totfact>
</mgrwt>
</event>
<event>
 7    0  0.4737014E-002  0.4292834E+03  0.7546771E-02  0.1034087E+00
         21   -1    0    0  502  501  0.00000000000E+00  0.00000000000E+00  0.33741909793E+03  0.33741909793E+03  0.00000000000E+00 0. -1.
         21   -1    0    0  501  502 -0.00000000000E+00 -0.00000000000E+00 -0.13653960407E+03  0.13653960407E+03  0.00000000000E+00 0. -1.
      99926    2    1    2    0    0 -0.17763568394E-14 -0.71054273576E-14  0.20087949386E+03  0.47395870200E+03  0.42928344965E+03 0.  0.
      99925    2    3    3    0    0 -0.12909658014E+02 -0.38430667793E+02  0.44729723645E+02  0.26981700038E+03  0.26297697622E+03 0.  0.
         25    1    4    4    0    0  0.25832379905E+00 -0.46460146330E+02  0.52836406557E+02  0.14351935718E+03  0.12509000000E+03 0.  0.
         25    1    4    4    0    0 -0.13167981813E+02  0.80294785368E+01 -0.81066829114E+01  0.12629764320E+03  0.12509000000E+03 0.  0.
         25    1    3    3    0    0  0.12909658014E+02  0.38430667793E+02  0.15614977022E+03  0.20414170161E+03  0.12509000000E+03 0.  0.
<mgrwt>
<rscale>  2 0.42928345E+03</rscale>
<asrwt>0</asrwt>
<pdfrwt beam="1">  1       21 0.49620456E-01 0.42928345E+03</pdfrwt>
<pdfrwt beam="2">  1       21 0.20079354E-01 0.42928345E+03</pdfrwt>
<totfact> 0.82797506E+04</totfact>
</mgrwt>
</event>
<event>
 7    0  0.4737014E-002  0.4531027E+03  0.7546771E-02  0.1026801E+00
         21   -1    0    0  502  501  0.00000000000E+00  0.00000000000E+00  0.43927180037E+03  0.43927180037E+03  0.00000000000E+00 0. -1.
         21   -1    0    0  501  502 -0.00000000000E+00 -0.00000000000E+00 -0.11684224987E+03  0.11684224987E+03  0.00000000000E+00 0. -1.
      99926    2    1    2    0    0 -0.71054273576E-14  0.00000000000E+00  0.32242955050E+03  0.55611405023E+03  0.45310266147E+03 0.  0.
      99925    2    3    3    0    0  0.39759640883E+02 -0.63017845765E+02  0.10155618333E+03  0.29156796662E+03  0.26295654177E+03 0.  0.
         25    1    3    3    0    0 -0.39759640883E+02  0.63017845765E+02  0.22087336717E+03  0.26454608361E+03  0.12509000000E+03 0.  0.
         25    1    4    4    0    0 -0.43250393891E+00 -0.61730201612E+02  0.32912864384E+02  0.14332330443E+03  0.12509000000E+03 0.  0.
         25    1    4    4    0    0  0.40192144822E+02 -0.12876441532E+01  0.68643318945E+02  0.14824466219E+03  0.12509000000E+03 0.  0.
<mgrwt>
<rscale>  2 0.45310266E+03</rscale>
<asrwt>0</asrwt>
<pdfrwt beam="1">  1       21 0.64598794E-01 0.45310266E+03</pdfrwt>
<pdfrwt beam="2">  1       21 0.17182684E-01 0.45310266E+03</pdfrwt>
<totfact> 0.62395534E+04</totfact>
</mgrwt>
</event>
<event>
 7    0  0.4737014E-002  0.4461208E+03  0.7546771E-02  0.1028885E+00
         21   -1    0    0  502  501  0.00000000000E+00  0.00000000000E+00  0.78311464894E+02  0.78311464894E+02  0.00000000000E+00 0.  1.
         21   -1    0    0  501  502 -0.00000000000E+00 -0.00000000000E+00 -0.63535965536E+03  0.63535965536E+03  0.00000000000E+00 0.  1.
      99926    2    1    2    0    0  0.71054273576E-14  0.14210854715E-13 -0.55704819047E+03  0.71367112026E+03  0.44612081479E+03 0.  0.
      99925    2    3    3    0    0 -0.37284187024E+02 -0.96833391508E+02 -0.34034441193E+03  0.44279319195E+03  0.26356152183E+03 0.  0.
         25    1    3    3    0    0  0.37284187024E+02  0.96833391508E+02 -0.21670377853E+03  0.27087792830E+03  0.12509000000E+03 0.  0.
         25    1    4    4    0    0 -0.20365208278E+02 -0.46976556033E+01 -0.15964827547E+03  0.20389185770E+03  0.12509000000E+03 0.  0.
         25    1    4    4    0    0 -0.16918978747E+02 -0.92135735905E+02 -0.18069613647E+03  0.23890133425E+03  0.12509000000E+03 0.  0.
<mgrwt>
<rscale>  2 0.44612081E+03</rscale>
<asrwt>0</asrwt>
<pdfrwt beam="1">  1       21 0.11516392E-01 0.44612081E+03</pdfrwt>
<pdfrwt beam="2">  1       21 0.93435240E-01 0.44612081E+03</pdfrwt>
<totfact> 0.55975668E+04</totfact>
</mgrwt>
</event>
<event>
 7    0  0.4737014E-002  0.4585523E+03  0.7546771E-02  0.1025202E+00
         21   -1    0    0  502  501  0.00000000000E+00  0.00000000000E+00  0.36336144158E+03  0.36336144158E+03  0.00000000000E+00 0.  1.
         21   -1    0    0  501  502 -0.00000000000E+00 -0.00000000000E+00 -0.14467012107E+03  0.14467012107E+03  0.00000000000E+00 0.  1.
      99926    2    1    2    0    0  0.17763568394E-14  0.00000000000E+00  0.21869132051E+03  0.50803156265E+03  0.45855225981E+03 0.  0.
      99925    2    3    3    0    0 -0.15385977822E+02 -0.10343015731E+03  0.19392490666E+03  0.34312125639E+03  0.26304144427E+03 0.  0.
         25    1    3    3    0    0  0.15385977822E+02  0.10343015731E+03  0.24766413850E+02  0.16491030626E+03  0.12509000000E+03 0.  0.
         25    1    4    4    0    0 -0.40394204011E+02 -0.58232224799E+02  0.12838499235E+03  0.19275087051E+03  0.12509000000E+03 0.  0.
         25    1    4    4    0    0  0.25008226188E+02 -0.45197932511E+02  0.65539914317E+02  0.15037038588E+03  0.12509000000E+03 0.  0.
<mgrwt>
<rscale>  2 0.45855226E+03</rscale>
<asrwt>0</asrwt>
<pdfrwt beam="1">  1       21 0.53435506E-01 0.45855226E+03</pdfrwt>
<pdfrwt beam="2">  1       21 0.21275018E-01 0.45855226E+03</pdfrwt>
<totfact> 0.62917291E+04</totfact>
</mgrwt>
</event>
<event>
 7    0  0.4737014E-002  0.4337463E+03  0.7546771E-02  0.1032683E+00
         21   -1    0    0  502  501  0.00000000000E+00  0.00000000000E+00  0.19506562941E+03  0.19506562941E+03  0.00000000000E+00 0. -1.
         21   -1    0    0  501  502 -0.00000000000E+00 -0.00000000000E+00 -0.24111862821E+03  0.24111862821E+03  0.00000000000E+00 0. -1.
      99926    2    1    2    0    0  0.00000000000E+00 -0.17763568394E-14 -0.46052998804E+02  0.43618425762E+03  0.43374627134E+03 0.  0.
      99925    2    3    3    0    0  0.84337322480E+02 -0.11073836181E+02  0.51618220035E+01  0.27647865415E+03  0.26301784727E+03 0.  0.
         25    1    3    3    0    0 -0.84337322480E+02  0.11073836181E+02 -0.51214820808E+02  0.15970560347E+03  0.12509000000E+03 0.  0.
         25    1    4    4    0    0  0.29415600219E+02  0.23793842182E+02  0.27982286176E+02  0.13364857239E+03  0.12509000000E+03 0.  0.
         25    1    4    4    0    0  0.54921722262E+02 -0.34867678363E+02 -0.22820464173E+02  0.14283008176E+03  0.12509000000E+03 0.  0.
<mgrwt>
<rscale>  2 0.43374627E+03</rscale>
<asrwt>0</asrwt>
<pdfrwt beam="1">  1       21 0.28686122E-01 0.43374627E+03</pdfrwt>
<pdfrwt beam="2">  1       21 0.35458622E-01 0.43374627E+03</pdfrwt>
<totfact> 0.83182343E+04</totfact>
</mgrwt>
</event>
<event>
 7    0  0.4737014E-002  0.4533230E+03  0.7546771E-02  0.1026736E+00
         21   -1    0    0  502  501  0.00000000000E+00  0.00000000000E+00  0.13887648364E+03  0.13887648364E+03  0.00000000000E+00 0. -1.
         21   -1    0    0  501  502 -0.00000000000E+00 -0.00000000000E+00 -0.36993614073E+03  0.36993614073E+03  0.00000000000E+00 0. -1.
      99926    2    1    2    0    0  0.14210854715E-13 -0.14210854715E-13 -0.23105965709E+03  0.50881262438E+03  0.45332297713E+03 0.  0.
      99925    2    3    3    0    0  0.88977413890E+02 -0.67003243283E+02 -0.15113480154E+03  0.32322731939E+03  0.26311168155E+03 0.  0.
         25    1    4    4    0    0  0.58271577460E+02  0.49640764008E+01 -0.69113124879E+02  0.15441616147E+03  0.12509000000E+03 0.  0.
         25    1    3    3    0    0 -0.88977413890E+02  0.67003243283E+02 -0.79924855545E+02  0.18558530499E+03  0.12509000000E+03 0.  0.
         25    1    4    4    0    0  0.30705836430E+02 -0.71967319683E+02 -0.82021676665E+02  0.16881115791E+03  0.12509000000E+03 0.  0.
<mgrwt>
<rscale>  2 0.45332298E+03</rscale>
<asrwt>0</asrwt>
<pdfrwt beam="1">  1       21 0.20423013E-01 0.45332298E+03</pdfrwt>
<pdfrwt beam="2">  1       21 0.54402372E-01 0.45332298E+03</pdfrwt>
<totfact> 0.65523625E+04</totfact>
</mgrwt>
</event>
<event>
 7    0  0.4737014E-002  0.4608357E+03  0.7546771E-02  0.1024539E+00
         21   -1    0    0  502  501  0.00000000000E+00  0.00000000000E+00  0.37847283432E+03  0.37847283432E+03  0.00000000000E+00 0.  1.
         21   -1    0    0  501  502 -0.00000000000E+00 -0.00000000000E+00 -0.14028054501E+03  0.14028054501E+03  0.00000000000E+00 0.  1.
      99926    2    1    2    0    0  0.00000000000E+00  0.35527136788E-14  0.23819228931E+03  0.51875337932E+03  0.46083565603E+03 0.  0.
      99925    2    3    3    0    0  0.30567289360E+02  0.99795362453E+01  0.27739888228E+03  0.38377702823E+03  0.26325029380E+03 0.  0.
         25    1    3    3    0    0 -0.30567289360E+02 -0.99795362453E+01 -0.39206592966E+02  0.13497635109E+03  0.12509000000E+03 0.  0.
         25    1    4    4    0    0  0.27597227475E+01  0.28151885758E+02  0.18350990013E+03  0.22388286287E+03  0.12509000000E+03 0.  0.
         25    1    4    4    0    0  0.27807566612E+02 -0.18172349512E+02  0.93888982151E+02  0.15989416536E+03  0.12509000000E+03 0.  0.
<mgrwt>
<rscale>  2 0.46083566E+03</rscale>
<asrwt>0</asrwt>
<pdfrwt beam="1">  1       21 0.55657769E-01 0.46083566E+03</pdfrwt>
<pdfrwt beam="2">  1       21 0.20629492E-01 0.46083566E+03</pdfrwt>
<totfact> 0.61093884E+04</totfact>
</mgrwt>
</event>
<event>
 7    0  0.4737014E-002  0.4568755E+03  0.7546771E-02  0.1025691E+00
         21   -1    0    0  502  501  0.00000000000E+00  0.00000000000E+00  0.24044351166E+04  0.24044351166E+04  0.00000000000E+00 0.  1.
         21   -1    0    0  501  502 -0.00000000000E+00 -0.00000000000E+00 -0.21703141894E+02  0.21703141894E+02  0.00000000000E+00 0.  1.
      99926    2    1    2    0    0  0.00000000000E+00  0.00000000000E+00  0.23827319747E+04  0.24261382585E+04  0.45687546010E+03 0.  0.
      99925    2    3    3    0    0  0.29801522563E+02 -0.48727571000E+02  0.20267333816E+04  0.20445035990E+04  0.26283884675E+03 0.  0.
         25    1    3    3    0    0 -0.29801522563E+02  0.48727571000E+02  0.35599859306E+03  0.38163465944E+03  0.12509000000E+03 0.  0.
         25    1    4    4    0    0 -0.17064038387E+02 -0.11414064210E+02  0.11335773148E+04  0.11406430200E+04  0.12509000000E+03 0.  0.
         25    1    4    4    0    0  0.46865560950E+02 -0.37313506790E+02  0.89315606680E+03  0.90386057905E+03  0.12509000000E+03 0.  0.
<mgrwt>
<rscale>  2 0.45687546E+03</rscale>
<asrwt>0</asrwt>
<pdfrwt beam="1">  1       21 0.35359322E+00 0.45687546E+03</pdfrwt>
<pdfrwt beam="2">  1       21 0.31916401E-02 0.45687546E+03</pdfrwt>
<totfact> 0.78029630E+03</totfact>
</mgrwt>
</event>
<event>
 7    0  0.4737014E-002  0.4535618E+03  0.7546771E-02  0.1026665E+00
         21   -1    0    0  502  501  0.00000000000E+00  0.00000000000E+00  0.56680214760E+03  0.56680214760E+03  0.00000000000E+00 0.  1.
         21   -1    0    0  501  502 -0.00000000000E+00 -0.00000000000E+00 -0.90736382451E+02  0.90736382451E+02  0.00000000000E+00 0.  1.
      99926    2    1    2    0    0  0.14210854715E-13 -0.88817841970E-15  0.47606576515E+03  0.65753853005E+03  0.45356179927E+03 0.  0.
      99925    2    3    3    0    0  0.72259954520E+02 -0.71394456788E+01  0.17626913230E+03  0.32467519191E+03  0.26281305243E+03 0.  0.
         25    1    4    4    0    0  0.32691252123E+02 -0.39754817213E+02  0.10874770890E+03  0.17355902670E+03  0.12509000000E+03 0.  0.
         25    1    4    4    0    0  0.39568702397E+02  0.32615371534E+02  0.67521423396E+02  0.15111616521E+03  0.12509000000E+03 0.  0.
         25    1    3    3    0    0 -0.72259954520E+02  0.71394456788E+01  0.29979663285E+03  0.33286333815E+03  0.12509000000E+03 0.  0.
<mgrwt>
<rscale>  2 0.45356180E+03</rscale>
<asrwt>0</asrwt>
<pdfrwt beam="1">  1       21 0.83353255E-01 0.45356180E+03</pdfrwt>
<pdfrwt beam="2">  1       21 0.13343586E-01 0.45356180E+03</pdfrwt>
<totfact> 0.55900443E+04</totfact>
</mgrwt>
</event>
<event>
 7    0  0.4737014E-002  0.4536927E+03  0.7546771E-02  0.1026627E+00
         21   -1    0    0  502  501  0.00000000000E+00  0.00000000000E+00  0.27324871280E+03  0.27324871280E+03  0.00000000000E+00 0. -1.
         21   -1    0    0  501  502 -0.00000000000E+00 -0.00000000000E+00 -0.18832387598E+03  0.18832387598E+03  0.00000000000E+00 0. -1.
      99926    2    1    2    0    0  0.14210854715E-13  0.17763568394E-14  0.84924836816E+02  0.46157258879E+03  0.45369265677E+03 0.  0.
      99925    2    3    3    0    0  0.85982316720E+02  0.57098248478E+01  0.12616094323E+03  0.30417663757E+03  0.26302334945E+03 0.  0.
         25    1    4    4    0    0  0.23030557344E+02  0.35212764237E+02  0.43783959255E+02  0.13904994975E+03  0.12509000000E+03 0.  0.
         25    1    4    4    0    0  0.62951759377E+02 -0.29502939389E+02  0.82376983974E+02  0.16512668782E+03  0.12509000000E+03 0.  0.
         25    1    3    3    0    0 -0.85982316720E+02 -0.57098248478E+01 -0.41236106412E+02  0.15739595122E+03  0.12509000000E+03 0.  0.
<mgrwt>
<rscale>  2 0.45369266E+03</rscale>
<asrwt>0</asrwt>
<pdfrwt beam="1">  1       21 0.40183634E-01 0.45369266E+03</pdfrwt>
<pdfrwt beam="2">  1       21 0.27694688E-01 0.45369266E+03</pdfrwt>
<totfact> 0.68777329E+04</totfact>
</mgrwt>
</event>
<event>
 7    0  0.4737014E-002  0.4389258E+03  0.7546771E-02  0.1031077E+00
         21   -1    0    0  502  501  0.00000000000E+00  0.00000000000E+00  0.12959535134E+04  0.12959535134E+04  0.00000000000E+00 0.  1.
         21   -1    0    0  501  502 -0.00000000000E+00 -0.00000000000E+00 -0.37164881508E+02  0.37164881508E+02  0.00000000000E+00 0.  1.
      99926    2    1    2    0    0  0.00000000000E+00  0.17763568394E-14  0.12587886319E+04  0.13331183949E+04  0.43892577398E+03 0.  0.
      99925    2    3    3    0    0 -0.69228493774E+02  0.70802125964E+01  0.59771356436E+03  0.65672319477E+03  0.26302307079E+03 0.  0.
         25    1    3    3    0    0  0.69228493774E+02 -0.70802125964E+01  0.66107506751E+03  0.67639520012E+03  0.12509000000E+03 0.  0.
         25    1    4    4    0    0 -0.68085684464E+02 -0.20741472923E+02  0.31647035707E+03  0.34765912059E+03  0.12509000000E+03 0.  0.
         25    1    4    4    0    0 -0.11428093096E+01  0.27821685519E+02  0.28124320729E+03  0.30906407417E+03  0.12509000000E+03 0.  0.
<mgrwt>
<rscale>  2 0.43892577E+03</rscale>
<asrwt>0</asrwt>
<pdfrwt beam="1">  1       21 0.19058137E+00 0.43892577E+03</pdfrwt>
<pdfrwt beam="2">  1       21 0.54654246E-02 0.43892577E+03</pdfrwt>
<totfact> 0.31982247E+04</totfact>
</mgrwt>
</event>
<event>
 7    0  0.4737014E-002  0.4315806E+03  0.7546771E-02  0.1033362E+00
         21   -1    0    0  502  501  0.00000000000E+00  0.00000000000E+00  0.23388875297E+02  0.23388875297E+02  0.00000000000E+00 0.  1.
         21   -1    0    0  501  502 -0.00000000000E+00 -0.00000000000E+00 -0.19909230692E+04  0.19909230692E+04  0.00000000000E+00 0.  1.
      99926    2    1    2    0    0  0.00000000000E+00 -0.17763568394E-14 -0.19675341939E+04  0.20143119445E+04  0.43158058989E+03 0.  0.
      99925    2    3    3    0    0 -0.16834944787E+02 -0.11649313130E+02 -0.85925795220E+03  0.89881077557E+03  0.26290199694E+03 0.  0.
         25    1    4    4    0    0 -0.20454235169E+02  0.32566070069E+02 -0.43935348497E+03  0.45842983925E+03  0.12509000000E+03 0.  0.
         25    1    4    4    0    0  0.36192903827E+01 -0.44215383199E+02 -0.41990446723E+03  0.44038093632E+03  0.12509000000E+03 0.  0.
         25    1    3    3    0    0  0.16834944787E+02  0.11649313130E+02 -0.11082762417E+04  0.11155011690E+04  0.12509000000E+03 0.  0.
<mgrwt>
<rscale>  2 0.43158059E+03</rscale>
<asrwt>0</asrwt>
<pdfrwt beam="1">  1       21 0.34395393E-02 0.43158059E+03</pdfrwt>
<pdfrwt beam="2">  1       21 0.29278290E+00 0.43158059E+03</pdfrwt>
<totfact> 0.16234404E+04</totfact>
</mgrwt>
</event>
<event>
 7    0  0.4737014E-002  0.4601876E+03  0.7546771E-02  0.1024727E+00
         21   -1    0    0  502  501  0.00000000000E+00  0.00000000000E+00  0.65043012036E+03  0.65043012036E+03  0.00000000000E+00 0.  1.
         21   -1    0    0  501  502 -0.00000000000E+00 -0.00000000000E+00 -0.81397160978E+02  0.81397160978E+02  0.00000000000E+00 0.  1.
      99926    2    1    2    0    0 -0.17763568394E-14  0.26645352591E-14  0.56903295938E+03  0.73182728134E+03  0.46018763657E+03 0.  0.
      99925    2    3    3    0    0  0.12530307394E+02 -0.73259794848E+01  0.17035020042E+03  0.31372905249E+03  0.26305141895E+03 0.  0.
         25    1    4    4    0    0  0.41531436644E+02 -0.23638231429E+02  0.82200112109E+02  0.15712413165E+03  0.12509000000E+03 0.  0.
         25    1    4    4    0    0 -0.29001129250E+02  0.16312251944E+02  0.88150088315E+02  0.15660492084E+03  0.12509000000E+03 0.  0.
         25    1    3    3    0    0 -0.12530307394E+02  0.73259794848E+01  0.39868275896E+03  0.41809822885E+03  0.12509000000E+03 0.  0.
<mgrwt>
<rscale>  2 0.46018764E+03</rscale>
<asrwt>0</asrwt>
<pdfrwt beam="1">  1       21 0.95651486E-01 0.46018764E+03</pdfrwt>
<pdfrwt beam="2">  1       21 0.11970171E-01 0.46018764E+03</pdfrwt>
<totfact> 0.49172090E+04</totfact>
</mgrwt>
</event>
<event>
 7    0  0.4737014E-002  0.4645458E+03  0.7546771E-02  0.1023471E+00
         21   -1    0    0  502  501  0.00000000000E+00  0.00000000000E+00  0.24520806856E+03  0.24520806856E+03  0.00000000000E+00 0.  1.
         21   -1    0    0  501  502 -0.00000000000E+00 -0.00000000000E+00 -0.22002005377E+03  0.22002005377E+03  0.00000000000E+00 0.  1.
      99926    2    1    2    0    0  0.17763568394E-14 -0.35527136788E-14  0.25188014788E+02  0.46522812233E+03  0.46454576709E+03 0.  0.
      99925    2    3    3    0    0 -0.15595814013E+02  0.17442723713E+02  0.13546882580E+03  0.29683321920E+03  0.26307922615E+03 0.  0.
         25    1    4    4    0    0  0.13352274734E+02  0.38511621539E+02  0.88235169535E+02  0.15841206228E+03  0.12509000000E+03 0.  0.
         25    1    4    4    0    0 -0.28948088746E+02 -0.21068897826E+02  0.47233656261E+02  0.13842115691E+03  0.12509000000E+03 0.  0.
         25    1    3    3    0    0  0.15595814013E+02 -0.17442723713E+02 -0.11028081101E+03  0.16839490313E+03  0.12509000000E+03 0.  0.
<mgrwt>
<rscale>  2 0.46454577E+03</rscale>
<asrwt>0</asrwt>
<pdfrwt beam="1">  1       21 0.36060010E-01 0.46454577E+03</pdfrwt>
<pdfrwt beam="2">  1       21 0.32355890E-01 0.46454577E+03</pdfrwt>
<totfact> 0.62875832E+04</totfact>
</mgrwt>
</event>
<event>
 7    0  0.4737014E-002  0.4548215E+03  0.7546771E-02  0.1026294E+00
         21   -1    0    0  502  501  0.00000000000E+00  0.00000000000E+00  0.48606333976E+02  0.48606333976E+02  0.00000000000E+00 0.  1.
         21   -1    0    0  501  502 -0.00000000000E+00 -0.00000000000E+00 -0.10639693030E+04  0.10639693030E+04  0.00000000000E+00 0.  1.
      99926    2    1    2    0    0  0.00000000000E+00 -0.71054273576E-14 -0.10153629691E+04  0.11125756370E+04  0.45482149151E+03 0.  0.
      99925    2    3    3    0    0  0.57145392190E+02 -0.42512072131E+02 -0.42434685631E+03  0.50428259434E+03  0.26297872229E+03 0.  0.
         25    1    4    4    0    0  0.66378284629E+01 -0.40155217767E+02 -0.15704197826E+03  0.20485651885E+03  0.12509000000E+03 0.  0.
         25    1    3    3    0    0 -0.57145392190E+02  0.42512072131E+02 -0.59101611275E+03  0.60829304267E+03  0.12509000000E+03 0.  0.
         25    1    4    4    0    0  0.50507563727E+02 -0.23568543643E+01 -0.26730487805E+03  0.29942607549E+03  0.12509000000E+03 0.  0.
<mgrwt>
<rscale>  2 0.45482149E+03</rscale>
<asrwt>0</asrwt>
<pdfrwt beam="1">  1       21 0.71479900E-02 0.45482149E+03</pdfrwt>
<pdfrwt beam="2">  1       21 0.15646608E+00 0.45482149E+03</pdfrwt>
<totfact> 0.35105504E+04</totfact>
</mgrwt>
</event>
<event>
 7    0  0.4737014E-002  0.4542446E+03  0.7546771E-02  0.1026464E+00
         21   -1    0    0  502  501  0.00000000000E+00  0.00000000000E+00  0.20962887661E+03  0.20962887661E+03  0.00000000000E+00 0. -1.
         21   -1    0    0  501  502 -0.00000000000E+00 -0.00000000000E+00 -0.24607556972E+03  0.24607556972E+03  0.00000000000E+00 0. -1.
      99926    2    1    2    0    0  0.00000000000E+00  0.00000000000E+00 -0.36446693109E+02  0.45570444633E+03  0.45424462679E+03 0.  0.
      99925    2    3    3    0    0  0.21460350085E+02  0.10519904903E+03 -0.56439101695E+02  0.28964845866E+03  0.26302750970E+03 0.  0.
         25    1    3    3    0    0 -0.21460350085E+02 -0.10519904903E+03  0.19992408585E+02  0.16605598768E+03  0.12509000000E+03 0.  0.
         25    1    4    4    0    0  0.13990493083E+02  0.48254754953E+02 -0.68993632922E+02  0.15143277306E+03  0.12509000000E+03 0.  0.
         25    1    4    4    0    0  0.74698570021E+01  0.56944294073E+02  0.12554531227E+02  0.13821568560E+03  0.12509000000E+03 0.  0.
<mgrwt>
<rscale>  2 0.45424463E+03</rscale>
<asrwt>0</asrwt>
<pdfrwt beam="1">  1       21 0.30827776E-01 0.45424463E+03</pdfrwt>
<pdfrwt beam="2">  1       21 0.36187584E-01 0.45424463E+03</pdfrwt>
<totfact> 0.68908618E+04</totfact>
</mgrwt>
</event>
<event>
 7    0  0.4737014E-002  0.4545885E+03  0.7546771E-02  0.1026362E+00
         21   -1    0    0  502  501  0.00000000000E+00  0.00000000000E+00  0.10578474466E+04  0.10578474466E+04  0.00000000000E+00 0. -1.
         21   -1    0    0  501  502 -0.00000000000E+00 -0.00000000000E+00 -0.48837550479E+02  0.48837550479E+02  0.00000000000E+00 0. -1.
      99926    2    1    2    0    0  0.00000000000E+00  0.00000000000E+00  0.10090098961E+04  0.11066849970E+04  0.45458850874E+03 0.  0.
      99925    2    3    3    0    0 -0.99829034609E+02 -0.43678696640E+02  0.56464001760E+03  0.63235835674E+03  0.26303056320E+03 0.  0.
         25    1    3    3    0    0  0.99829034609E+02  0.43678696640E+02  0.44436987849E+03  0.47432664030E+03  0.12509000000E+03 0.  0.
         25    1    4    4    0    0 -0.38015935777E+02 -0.60674873327E+02  0.28913852412E+03  0.32307158008E+03  0.12509000000E+03 0.  0.
         25    1    4    4    0    0 -0.61813098832E+02  0.16996176687E+02  0.27550149347E+03  0.30928677666E+03  0.12509000000E+03 0.  0.
<mgrwt>
<rscale>  2 0.45458851E+03</rscale>
<asrwt>0</asrwt>
<pdfrwt beam="1">  1       21 0.15556579E+00 0.45458851E+03</pdfrwt>
<pdfrwt beam="2">  1       21 0.71819934E-02 0.45458851E+03</pdfrwt>
<totfact> 0.35375147E+04</totfact>
</mgrwt>
</event>
<event>
 7    0  0.4737014E-002  0.4607021E+03  0.7546771E-02  0.1024578E+00
         21   -1    0    0  502  501  0.00000000000E+00  0.00000000000E+00  0.57736477580E+03  0.57736477580E+03  0.00000000000E+00 0. -1.
         21   -1    0    0  501  502 -0.00000000000E+00 -0.00000000000E+00 -0.91903087648E+02  0.91903087648E+02  0.00000000000E+00 0. -1.
      99926    2    1    2    0    0  0.00000000000E+00  0.00000000000E+00  0.48546168815E+03  0.66926786344E+03  0.46070209722E+03 0.  0.
      99925    2    3    3    0    0 -0.86841251781E+02 -0.75606306258E+02  0.26352101599E+03  0.38969160083E+03  0.26298003980E+03 0.  0.
         25    1    4    4    0    0 -0.81002484560E+02 -0.22624500503E+02  0.14846996135E+03  0.21157530113E+03  0.12509000000E+03 0.  0.
         25    1    4    4    0    0 -0.58387672217E+01 -0.52981805755E+02  0.11505105464E+03  0.17811629970E+03  0.12509000000E+03 0.  0.
         25    1    3    3    0    0  0.86841251781E+02  0.75606306258E+02  0.22194067216E+03  0.27957626261E+03  0.12509000000E+03 0.  0.
<mgrwt>
<rscale>  2 0.46070210E+03</rscale>
<asrwt>0</asrwt>
<pdfrwt beam="1">  1       21 0.84906583E-01 0.46070210E+03</pdfrwt>
<pdfrwt beam="2">  1       21 0.13515160E-01 0.46070210E+03</pdfrwt>
<totfact> 0.52216344E+04</totfact>
</mgrwt>
</event>
<event>
 7    0  0.4737014E-002  0.4588508E+03  0.7546771E-02  0.1025115E+00
         21   -1    0    0  502  501  0.00000000000E+00  0.00000000000E+00  0.13183360279E+03  0.13183360279E+03  0.00000000000E+00 0. -1.
         21   -1    0    0  501  502 -0.00000000000E+00 -0.00000000000E+00 -0.39926090779E+03  0.39926090779E+03  0.00000000000E+00 0. -1.
      99926    2    1    2    0    0  0.00000000000E+00  0.00000000000E+00 -0.26742730500E+03  0.53109451059E+03  0.45885075538E+03 0.  0.
      99925    2    3    3    0    0  0.10724639118E+03 -0.13395650459E+02 -0.11657101885E+03  0.30729469145E+03  0.26298287603E+03 0.  0.
         25    1    4    4    0    0  0.61982424259E+02  0.15067151130E+02 -0.23256513942E+02  0.14232783811E+03  0.12509000000E+03 0.  0.
         25    1    4    4    0    0  0.45263966925E+02 -0.28462801589E+02 -0.93314504908E+02  0.16496685334E+03  0.12509000000E+03 0.  0.
         25    1    3    3    0    0 -0.10724639118E+03  0.13395650459E+02 -0.15085628615E+03  0.22379981913E+03  0.12509000000E+03 0.  0.
<mgrwt>
<rscale>  2 0.45885076E+03</rscale>
<asrwt>0</asrwt>
<pdfrwt beam="1">  1       21 0.19387295E-01 0.45885076E+03</pdfrwt>
<pdfrwt beam="2">  1       21 0.58714838E-01 0.45885076E+03</pdfrwt>
<totfact> 0.61241813E+04</totfact>
</mgrwt>
</event>
<event>
 7    0  0.4737014E-002  0.4561436E+03  0.7546771E-02  0.1025906E+00
         21   -1    0    0  502  501  0.00000000000E+00  0.00000000000E+00  0.39338279122E+03  0.39338279122E+03  0.00000000000E+00 0. -1.
         21   -1    0    0  501  502 -0.00000000000E+00 -0.00000000000E+00 -0.13222932563E+03  0.13222932563E+03  0.00000000000E+00 0. -1.
      99926    2    1    2    0    0  0.00000000000E+00  0.17763568394E-14  0.26115346558E+03  0.52561211685E+03  0.45614357914E+03 0.  0.
      99925    2    3    3    0    0  0.25117812521E+02  0.15821959293E+02  0.37110259657E+02  0.26730202196E+03  0.26304364784E+03 0.  0.
         25    1    3    3    0    0 -0.25117812521E+02 -0.15821959293E+02  0.22404320593E+03  0.25831009489E+03  0.12509000000E+03 0.  0.
         25    1    4    4    0    0  0.13597482505E+02  0.10550386529E+02  0.59515177518E+02  0.13959142754E+03  0.12509000000E+03 0.  0.
         25    1    4    4    0    0  0.11520330016E+02  0.52715727643E+01 -0.22404917861E+02  0.12771059442E+03  0.12509000000E+03 0.  0.
<mgrwt>
<rscale>  2 0.45614358E+03</rscale>
<asrwt>0</asrwt>
<pdfrwt beam="1">  1       21 0.57850410E-01 0.45614358E+03</pdfrwt>
<pdfrwt beam="2">  1       21 0.19445489E-01 0.45614358E+03</pdfrwt>
<totfact> 0.62932083E+04</totfact>
</mgrwt>
</event>
<event>
 7    0  0.4737014E-002  0.4747727E+03  0.7546771E-02  0.1020582E+00
         21   -1    0    0  502  501  0.00000000000E+00  0.00000000000E+00  0.31650620357E+03  0.31650620357E+03  0.00000000000E+00 0.  1.
         21   -1    0    0  501  502 -0.00000000000E+00 -0.00000000000E+00 -0.17804477281E+03  0.17804477281E+03  0.00000000000E+00 0.  1.
      99926    2    1    2    0    0  0.00000000000E+00  0.00000000000E+00  0.13846143076E+03  0.49455097639E+03  0.47477268291E+03 0.  0.
      99925    2    3    3    0    0 -0.39674552471E+02 -0.11017087149E+03  0.23800487800E+02  0.28838034080E+03  0.26245964776E+03 0.  0.
         25    1    4    4    0    0 -0.16927209394E+02 -0.88672021949E+02  0.37364391731E+02  0.15872260004E+03  0.12509000000E+03 0.  0.
         25    1    3    3    0    0  0.39674552471E+02  0.11017087149E+03  0.11466094296E+03  0.20617063559E+03  0.12509000000E+03 0.  0.
         25    1    4    4    0    0 -0.22747343077E+02 -0.21498849541E+02 -0.13563903930E+02  0.12965774076E+03  0.12509000000E+03 0.  0.
<mgrwt>
<rscale>  2 0.47477268E+03</rscale>
<asrwt>0</asrwt>
<pdfrwt beam="1">  1       21 0.46545030E-01 0.47477268E+03</pdfrwt>
<pdfrwt beam="2">  1       21 0.26183055E-01 0.47477268E+03</pdfrwt>
<totfact> 0.56288200E+04</totfact>
</mgrwt>
</event>
<event>
 7    0  0.4737014E-002  0.4315458E+03  0.7546771E-02  0.1033373E+00
         21   -1    0    0  502  501  0.00000000000E+00  0.00000000000E+00  0.78726082974E+03  0.78726082974E+03  0.00000000000E+00 0. -1.
         21   -1    0    0  501  502 -0.00000000000E+00 -0.00000000000E+00 -0.59139169222E+02  0.59139169222E+02  0.00000000000E+00 0. -1.
      99926    2    1    2    0    0  0.71054273576E-14  0.00000000000E+00  0.72812166052E+03  0.84639999897E+03  0.43154583271E+03 0.  0.
      99925    2    3    3    0    0 -0.35411770452E+02 -0.17074432033E+02  0.62617711784E+03  0.68031048214E+03  0.26301908580E+03 0.  0.
         25    1    3    3    0    0  0.35411770452E+02  0.17074432033E+02  0.10194454268E+03  0.16608951682E+03  0.12509000000E+03 0.  0.
         25    1    4    4    0    0  0.86436130258E+01 -0.39303997723E+02  0.30192790014E+03  0.32928328422E+03  0.12509000000E+03 0.  0.
         25    1    4    4    0    0 -0.44055383478E+02  0.22229565690E+02  0.32424921770E+03  0.35102719792E+03  0.12509000000E+03 0.  0.
<mgrwt>
<rscale>  2 0.43154583E+03</rscale>
<asrwt>0</asrwt>
<pdfrwt beam="1">  1       21 0.11577365E+00 0.43154583E+03</pdfrwt>
<pdfrwt beam="2">  1       21 0.86969371E-02 0.43154583E+03</pdfrwt>
<totfact> 0.55050676E+04</totfact>
</mgrwt>
</event>
<event>
 7    0  0.4737014E-002  0.4650506E+03  0.7546771E-02  0.1023327E+00
         21   -1    0    0  502  501  0.00000000000E+00  0.00000000000E+00  0.31302571501E+03  0.31302571501E+03  0.00000000000E+00 0.  1.
         21   -1    0    0  501  502 -0.00000000000E+00 -0.00000000000E+00 -0.17272705055E+03  0.17272705055E+03  0.00000000000E+00 0.  1.
      99926    2    1    2    0    0 -0.17763568394E-14  0.00000000000E+00  0.14029866446E+03  0.48575276557E+03  0.46505057145E+03 0.  0.
      99925    2    3    3    0    0  0.69191182130E+01  0.10540598612E+03  0.22814001831E+02  0.28423738114E+03  0.26289182956E+03 0.  0.
         25    1    4    4    0    0 -0.29562395320E+02  0.48998801340E+02  0.34351776046E+02  0.14178282818E+03  0.12509000000E+03 0.  0.
         25    1    4    4    0    0  0.36481513533E+02  0.56407184784E+02 -0.11537774215E+02  0.14245455296E+03  0.12509000000E+03 0.  0.
         25    1    3    3    0    0 -0.69191182130E+01 -0.10540598612E+03  0.11748466263E+03  0.20151538443E+03  0.12509000000E+03 0.  0.
<mgrwt>
<rscale>  2 0.46505057E+03</rscale>
<asrwt>0</asrwt>
<pdfrwt beam="1">  1       21 0.46033194E-01 0.46505057E+03</pdfrwt>
<pdfrwt beam="2">  1       21 0.25401037E-01 0.46505057E+03</pdfrwt>
<totfact> 0.61249695E+04</totfact>
</mgrwt>
</event>
<event>
 7    0  0.4737014E-002  0.4529678E+03  0.7546771E-02  0.1026841E+00
         21   -1    0    0  502  501  0.00000000000E+00  0.00000000000E+00  0.69333496703E+02  0.69333496703E+02  0.00000000000E+00 0. -1.
         21   -1    0    0  501  502 -0.00000000000E+00 -0.00000000000E+00 -0.73982945326E+03  0.73982945326E+03  0.00000000000E+00 0. -1.
      99926    2    1    2    0    0  0.00000000000E+00 -0.24424906542E-14 -0.67049595655E+03  0.80916294996E+03  0.45296782649E+03 0.  0.
      99925    2    3    3    0    0  0.10310285833E+03 -0.17322210880E+01 -0.49752576581E+03  0.57209883422E+03  0.26292962648E+03 0.  0.
         25    1    4    4    0    0  0.14120406468E+02  0.18682116210E+02 -0.23765237293E+03  0.26958220602E+03  0.12509000000E+03 0.  0.
         25    1    3    3    0    0 -0.10310285833E+03  0.17322210880E+01 -0.17297019074E+03  0.23706411574E+03  0.12509000000E+03 0.  0.
         25    1    4    4    0    0  0.88982451865E+02 -0.20414337298E+02 -0.25987339288E+03  0.30251662820E+03  0.12509000000E+03 0.  0.
<mgrwt>
<rscale>  2 0.45296783E+03</rscale>
<asrwt>0</asrwt>
<pdfrwt beam="1">  1       21 0.10196103E-01 0.45296783E+03</pdfrwt>
<pdfrwt beam="2">  1       21 0.10879844E+00 0.45296783E+03</pdfrwt>
<totfact> 0.48087074E+04</totfact>
</mgrwt>
</event>
<event>
 7    0  0.4737014E-002  0.4522087E+03  0.7546771E-02  0.1027065E+00
         21   -1    0    0  502  501  0.00000000000E+00  0.00000000000E+00  0.39540258747E+03  0.39540258747E+03  0.00000000000E+00 0. -1.
         21   -1    0    0  501  502 -0.00000000000E+00 -0.00000000000E+00 -0.12929398775E+03  0.12929398775E+03  0.00000000000E+00 0. -1.
      99926    2    1    2    0    0  0.00000000000E+00  0.00000000000E+00  0.26610859972E+03  0.52469657522E+03  0.45220870093E+03 0.  0.
      99925    2    3    3    0    0 -0.72145609973E+02 -0.82708173420E+02  0.15306820393E+03  0.32352184974E+03  0.26304159599E+03 0.  0.
         25    1    4    4    0    0  0.58610355897E+01 -0.41123285734E+02  0.68062749615E+02  0.14834258442E+03  0.12509000000E+03 0.  0.
         25    1    3    3    0    0  0.72145609973E+02  0.82708173420E+02  0.11304039580E+03  0.20117472548E+03  0.12509000000E+03 0.  0.
         25    1    4    4    0    0 -0.78006645563E+02 -0.41584887686E+02  0.85005454313E+02  0.17517926532E+03  0.12509000000E+03 0.  0.
<mgrwt>
<rscale>  2 0.45220870E+03</rscale>
<asrwt>0</asrwt>
<pdfrwt beam="1">  1       21 0.58147439E-01 0.45220870E+03</pdfrwt>
<pdfrwt beam="2">  1       21 0.19013822E-01 0.45220870E+03</pdfrwt>
<totfact> 0.64993169E+04</totfact>
</mgrwt>
</event>
<event>
 7    0  0.4737014E-002  0.4490869E+03  0.7546771E-02  0.1027995E+00
         21   -1    0    0  502  501  0.00000000000E+00  0.00000000000E+00  0.10694860476E+04  0.10694860476E+04  0.00000000000E+00 0.  1.
         21   -1    0    0  501  502 -0.00000000000E+00 -0.00000000000E+00 -0.47143921388E+02  0.47143921388E+02  0.00000000000E+00 0.  1.
      99926    2    1    2    0    0  0.00000000000E+00  0.00000000000E+00  0.10223421262E+04  0.11166299690E+04  0.44908692322E+03 0.  0.
      99925    2    3    3    0    0  0.32415503039E+02  0.77587762694E+02  0.48035156395E+03  0.55407161340E+03  0.26303441226E+03 0.  0.
         25    1    4    4    0    0  0.13828005867E+02  0.54248349338E+02  0.17160105056E+03  0.21960994013E+03  0.12509000000E+03 0.  0.
         25    1    3    3    0    0 -0.32415503039E+02 -0.77587762694E+02  0.54199056225E+03  0.56255835557E+03  0.12509000000E+03 0.  0.
         25    1    4    4    0    0  0.18587497172E+02  0.23339413356E+02  0.30875051340E+03  0.33446167327E+03  0.12509000000E+03 0.  0.
<mgrwt>
<rscale>  2 0.44908692E+03</rscale>
<asrwt>0</asrwt>
<pdfrwt beam="1">  1       21 0.15727734E+00 0.44908692E+03</pdfrwt>
<pdfrwt beam="2">  1       21 0.69329303E-02 0.44908692E+03</pdfrwt>
<totfact> 0.36573431E+04</totfact>
</mgrwt>
</event>
<event>
 7    0  0.4737014E-002  0.4562761E+03  0.7546771E-02  0.1025867E+00
         21   -1    0    0  502  501  0.00000000000E+00  0.00000000000E+00  0.77724592655E+02  0.77724592655E+02  0.00000000000E+00 0. -1.
         21   -1    0    0  501  502 -0.00000000000E+00 -0.00000000000E+00 -0.66963318743E+03  0.66963318743E+03  0.00000000000E+00 0. -1.
      99926    2    1    2    0    0  0.00000000000E+00 -0.35527136788E-14 -0.59190859477E+03  0.74735778008E+03  0.45627608625E+03 0.  0.
      99925    2    3    3    0    0 -0.11388258920E+03  0.80633716541E+01 -0.36269659160E+03  0.46236670551E+03  0.26305872106E+03 0.  0.
         25    1    3    3    0    0  0.11388258920E+03 -0.80633716541E+01 -0.22921200317E+03  0.28499107457E+03  0.12509000000E+03 0.  0.
         25    1    4    4    0    0 -0.44287713586E+02  0.42751495192E+02 -0.17163503357E+03  0.22112255598E+03  0.12509000000E+03 0.  0.
         25    1    4    4    0    0 -0.69594875614E+02 -0.34688123538E+02 -0.19106155803E+03  0.24124414953E+03  0.12509000000E+03 0.  0.
<mgrwt>
<rscale>  2 0.45627609E+03</rscale>
<asrwt>0</asrwt>
<pdfrwt beam="1">  1       21 0.11430088E-01 0.45627609E+03</pdfrwt>
<pdfrwt beam="2">  1       21 0.98475464E-01 0.45627609E+03</pdfrwt>
<totfact> 0.49903582E+04</totfact>
</mgrwt>
</event>
<event>
 7    0  0.4737014E-002  0.4406225E+03  0.7546771E-02  0.1030556E+00
         21   -1    0    0  502  501  0.00000000000E+00  0.00000000000E+00  0.11941195476E+04  0.11941195476E+04  0.00000000000E+00 0.  1.
         21   -1    0    0  501  502 -0.00000000000E+00 -0.00000000000E+00 -0.40646720958E+02  0.40646720958E+02  0.00000000000E+00 0.  1.
      99926    2    1    2    0    0 -0.71054273576E-14  0.17763568394E-14  0.11534728266E+04  0.12347662685E+04  0.44062248713E+03 0.  0.
      99925    2    3    3    0    0 -0.26245979296E+02  0.95355064624E+01  0.10021465048E+04  0.10364560543E+04  0.26299003405E+03 0.  0.
         25    1    3    3    0    0  0.26245979296E+02 -0.95355064624E+01  0.15132632183E+03  0.19831021429E+03  0.12509000000E+03 0.  0.
         25    1    4    4    0    0  0.19569876084E+02  0.23305152049E+02  0.55172169074E+03  0.56654253353E+03  0.12509000000E+03 0.  0.
         25    1    4    4    0    0 -0.45815855380E+02 -0.13769645586E+02  0.45042481406E+03  0.46991352073E+03  0.12509000000E+03 0.  0.
<mgrwt>
<rscale>  2 0.44062249E+03</rscale>
<asrwt>0</asrwt>
<pdfrwt beam="1">  1       21 0.17560579E+00 0.44062249E+03</pdfrwt>
<pdfrwt beam="2">  1       21 0.59774598E-02 0.44062249E+03</pdfrwt>
<totfact> 0.34804604E+04</totfact>
</mgrwt>
</event>
<event>
 7    0  0.4737014E-002  0.4562697E+03  0.7546771E-02  0.1025869E+00
         21   -1    0    0  502  501  0.00000000000E+00  0.00000000000E+00  0.45462651803E+03  0.45462651803E+03  0.00000000000E+00 0. -1.
         21   -1    0    0  501  502 -0.00000000000E+00 -0.00000000000E+00 -0.11447968082E+03  0.11447968082E+03  0.00000000000E+00 0. -1.
      99926    2    1    2    0    0  0.00000000000E+00  0.00000000000E+00  0.34014683721E+03  0.56910619885E+03  0.45626965131E+03 0.  0.
      99925    2    3    3    0    0 -0.10039777782E+03 -0.53998267719E+02  0.20342620131E+03  0.35153881369E+03  0.26306233376E+03 0.  0.
         25    1    4    4    0    0 -0.84784173710E+01 -0.33959626900E+02  0.84449515937E+02  0.15493343300E+03  0.12509000000E+03 0.  0.
         25    1    4    4    0    0 -0.91919360446E+02 -0.20038640819E+02  0.11897668537E+03  0.19660538068E+03  0.12509000000E+03 0.  0.
         25    1    3    3    0    0  0.10039777782E+03  0.53998267719E+02  0.13672063590E+03  0.21756738517E+03  0.12509000000E+03 0.  0.
<mgrwt>
<rscale>  2 0.45626965E+03</rscale>
<asrwt>0</asrwt>
<pdfrwt beam="1">  1       21 0.66856840E-01 0.45626965E+03</pdfrwt>
<pdfrwt beam="2">  1       21 0.16835247E-01 0.45626965E+03</pdfrwt>
<totfact> 0.60016469E+04</totfact>
</mgrwt>
</event>
<event>
 7    0  0.4737014E-002  0.4635863E+03  0.7546771E-02  0.1023746E+00
         21   -1    0    0  502  501  0.00000000000E+00  0.00000000000E+00  0.18576270218E+03  0.18576270218E+03  0.00000000000E+00 0. -1.
         21   -1    0    0  501  502 -0.00000000000E+00 -0.00000000000E+00 -0.28922954062E+03  0.28922954062E+03  0.00000000000E+00 0. -1.
      99926    2    1    2    0    0  0.00000000000E+00  0.00000000000E+00 -0.10346683844E+03  0.47499224280E+03  0.46358628545E+03 0.  0.
      99925    2    3    3    0    0 -0.10569315245E+03  0.55838039427E+02 -0.84119850126E+02  0.30089243471E+03  0.26300414247E+03 0.  0.
         25    1    4    4    0    0 -0.85004344217E+02  0.40759502462E+02 -0.72747089766E+02  0.17270414803E+03  0.12509000000E+03 0.  0.
         25    1    3    3    0    0  0.10569315245E+03 -0.55838039427E+02 -0.19346988311E+02  0.17409980809E+03  0.12509000000E+03 0.  0.
         25    1    4    4    0    0 -0.20688808229E+02  0.15078536965E+02 -0.11372760360E+02  0.12818828668E+03  0.12509000000E+03 0.  0.
<mgrwt>
<rscale>  2 0.46358629E+03</rscale>
<asrwt>0</asrwt>
<pdfrwt beam="1">  1       21 0.27318045E-01 0.46358629E+03</pdfrwt>
<pdfrwt beam="2">  1       21 0.42533755E-01 0.46358629E+03</pdfrwt>
<totfact> 0.62686098E+04</totfact>
</mgrwt>
</event>
<event>
 7    0  0.4737014E-002  0.4567225E+03  0.7546771E-02  0.1025736E+00
         21   -1    0    0  502  501  0.00000000000E+00  0.00000000000E+00  0.76268651636E+02  0.76268651636E+02  0.00000000000E+00 0. -1.
         21   -1    0    0  501  502 -0.00000000000E+00 -0.00000000000E+00 -0.68375222006E+03  0.68375222006E+03  0.00000000000E+00 0. -1.
      99926    2    1    2    0    0  0.00000000000E+00  0.14210854715E-13 -0.60748356842E+03  0.76002087169E+03  0.45672249726E+03 0.  0.
      99925    2    3    3    0    0 -0.76996852631E+02 -0.81049151799E+02 -0.34171513550E+03  0.44573143764E+03  0.26345739759E+03 0.  0.
         25    1    4    4    0    0 -0.70186158432E+02 -0.16115403588E+02 -0.18894008258E+03  0.23776388703E+03  0.12509000000E+03 0.  0.
         25    1    3    3    0    0  0.76996852631E+02  0.81049151799E+02 -0.26576843292E+03  0.31428943405E+03  0.12509000000E+03 0.  0.
         25    1    4    4    0    0 -0.68106941992E+01 -0.64933748211E+02 -0.15277505292E+03  0.20796755061E+03  0.12509000000E+03 0.  0.
<mgrwt>
<rscale>  2 0.45672250E+03</rscale>
<asrwt>0</asrwt>
<pdfrwt beam="1">  1       21 0.11215978E-01 0.45672250E+03</pdfrwt>
<pdfrwt beam="2">  1       21 0.10055180E+00 0.45672250E+03</pdfrwt>
<totfact> 0.49091603E+04</totfact>
</mgrwt>
</event>
<event>
 7    0  0.4737014E-002  0.4495354E+03  0.7546771E-02  0.1027861E+00
         21   -1    0    0  502  501  0.00000000000E+00  0.00000000000E+00  0.53801492704E+03  0.53801492704E+03  0.00000000000E+00 0. -1.
         21   -1    0    0  501  502 -0.00000000000E+00 -0.00000000000E+00 -0.93901713806E+02  0.93901713806E+02  0.00000000000E+00 0. -1.
      99926    2    1    2    0    0 -0.24980018054E-15  0.00000000000E+00  0.44411321324E+03  0.63191664085E+03  0.44953542109E+03 0.  0.
      99925    2    3    3    0    0 -0.22992638099E+00  0.10670659289E+03  0.30335394409E+03  0.41547489399E+03  0.26307683727E+03 0.  0.
         25    1    3    3    0    0  0.22992638099E+00 -0.10670659289E+03  0.14075926915E+03  0.21644174686E+03  0.12509000000E+03 0.  0.
         25    1    4    4    0    0 -0.37093609202E+01  0.50530197309E+02  0.91368566350E+02  0.16298092899E+03  0.12509000000E+03 0.  0.
         25    1    4    4    0    0  0.34794345393E+01  0.56176395582E+02  0.21198537774E+03  0.25249396500E+03  0.12509000000E+03 0.  0.
<mgrwt>
<rscale>  2 0.44953542E+03</rscale>
<asrwt>0</asrwt>
<pdfrwt beam="1">  1       21 0.79119841E-01 0.44953542E+03</pdfrwt>
<pdfrwt beam="2">  1       21 0.13809076E-01 0.44953542E+03</pdfrwt>
<totfact> 0.59270972E+04</totfact>
</mgrwt>
</event>
<event>
 7    0  0.4737014E-002  0.4583802E+03  0.7546771E-02  0.1025252E+00
         21   -1    0    0  502  501  0.00000000000E+00  0.00000000000E+00  0.70238259612E+03  0.70238259612E+03  0.00000000000E+00 0. -1.
         21   -1    0    0  501  502 -0.00000000000E+00 -0.00000000000E+00 -0.74785583883E+02  0.74785583883E+02  0.00000000000E+00 0. -1.
      99926    2    1    2    0    0 -0.35527136788E-14 -0.71054273576E-14  0.62759701223E+03  0.77716818000E+03  0.45838015908E+03 0.  0.
      99925    2    3    3    0    0 -0.19112218742E+02 -0.63627412612E+02  0.23202297564E+03  0.35700148562E+03  0.26306211238E+03 0.  0.
         25    1    3    3    0    0  0.19112218742E+02  0.63627412612E+02  0.39557403659E+03  0.42016669438E+03  0.12509000000E+03 0.  0.
         25    1    4    4    0    0 -0.41720609793E+01 -0.48133794112E+02  0.70267622879E+02  0.15139126512E+03  0.12509000000E+03 0.  0.
         25    1    4    4    0    0 -0.14940157763E+02 -0.15493618500E+02  0.16175535276E+03  0.20561022050E+03  0.12509000000E+03 0.  0.
<mgrwt>
<rscale>  2 0.45838016E+03</rscale>
<asrwt>0</asrwt>
<pdfrwt beam="1">  1       21 0.10329155E+00 0.45838016E+03</pdfrwt>
<pdfrwt beam="2">  1       21 0.10997880E-01 0.45838016E+03</pdfrwt>
<totfact> 0.47613109E+04</totfact>
</mgrwt>
</event>
<event>
 7    0  0.4737014E-002  0.4506813E+03  0.7546771E-02  0.1027519E+00
         21   -1    0    0  502  501  0.00000000000E+00  0.00000000000E+00  0.14135562270E+02  0.14135562270E+02  0.00000000000E+00 0.  1.
         21   -1    0    0  501  502 -0.00000000000E+00 -0.00000000000E+00 -0.35922460625E+04  0.35922460625E+04  0.00000000000E+00 0.  1.
      99926    2    1    2    0    0  0.00000000000E+00  0.00000000000E+00 -0.35781105002E+04  0.36063816247E+04  0.45068134155E+03 0.  0.
      99925    2    3    3    0    0  0.80236183344E+01  0.34266486326E+02 -0.14335222002E+04  0.14578600272E+04  0.26292848815E+03 0.  0.
         25    1    4    4    0    0  0.44071174979E+01  0.40857385634E+02 -0.55262804308E+03  0.56809683219E+03  0.12509000000E+03 0.  0.
         25    1    3    3    0    0 -0.80236183344E+01 -0.34266486326E+02 -0.21445883000E+04  0.21485215976E+04  0.12509000000E+03 0.  0.
         25    1    4    4    0    0  0.36165008366E+01 -0.65908993078E+01 -0.88089415709E+03  0.88976319497E+03  0.12509000000E+03 0.  0.
<mgrwt>
<rscale>  2 0.45068134E+03</rscale>
<asrwt>0</asrwt>
<pdfrwt beam="1">  1       21 0.20787561E-02 0.45068134E+03</pdfrwt>
<pdfrwt beam="2">  1       21 0.52827227E+00 0.45068134E+03</pdfrwt>
<totfact> 0.10763467E+03</totfact>
</mgrwt>
</event>
<event>
 7    0  0.4737014E-002  0.4624209E+03  0.7546771E-02  0.1024081E+00
         21   -1    0    0  502  501  0.00000000000E+00  0.00000000000E+00  0.24515567018E+03  0.24515567018E+03  0.00000000000E+00 0. -1.
         21   -1    0    0  501  502 -0.00000000000E+00 -0.00000000000E+00 -0.21805846016E+03  0.21805846016E+03  0.00000000000E+00 0. -1.
      99926    2    1    2    0    0 -0.71054273576E-14  0.14210854715E-13  0.27097210021E+02  0.46321413034E+03  0.46242088162E+03 0.  0.
      99925    2    3    3    0    0  0.59762866649E+02 -0.10338860102E+03  0.28530418588E+02  0.29026799642E+03  0.26302228406E+03 0.  0.
         25    1    4    4    0    0  0.38807422633E+02 -0.14449762857E+02 -0.46389398153E+01  0.13184778937E+03  0.12509000000E+03 0.  0.
         25    1    3    3    0    0 -0.59762866649E+02  0.10338860102E+03 -0.14332085667E+01  0.17294613392E+03  0.12509000000E+03 0.  0.
         25    1    4    4    0    0  0.20955444015E+02 -0.88938838158E+02  0.33169358403E+02  0.15842020706E+03  0.12509000000E+03 0.  0.
<mgrwt>
<rscale>  2 0.46242088E+03</rscale>
<asrwt>0</asrwt>
<pdfrwt beam="1">  1       21 0.36052304E-01 0.46242088E+03</pdfrwt>
<pdfrwt beam="2">  1       21 0.32067421E-01 0.46242088E+03</pdfrwt>
<totfact> 0.64069772E+04</totfact>
</mgrwt>
</event>
<event>
 7    0  0.4737014E-002  0.4597892E+03  0.7546771E-02  0.1024842E+00
         21   -1    0    0  502  501  0.00000000000E+00  0.00000000000E+00  0.55054754378E+02  0.55054754378E+02  0.00000000000E+00 0.  1.
         21   -1    0    0  501  502 -0.00000000000E+00 -0.00000000000E+00 -0.95998109497E+03  0.95998109497E+03  0.00000000000E+00 0.  1.
      99926    2    1    2    0    0  0.00000000000E+00  0.00000000000E+00 -0.90492634060E+03  0.10150358494E+04  0.45978918383E+03 0.  0.
      99925    2    3    3    0    0  0.17756070786E+02  0.55516372692E+02 -0.79255953190E+03  0.83707193873E+03  0.26294766271E+03 0.  0.
         25    1    3    3    0    0 -0.17756070786E+02 -0.55516372692E+02 -0.11236680870E+03  0.17796391062E+03  0.12509000000E+03 0.  0.
         25    1    4    4    0    0  0.41684072167E+02  0.21022442920E+02 -0.32790052268E+03  0.35404203967E+03  0.12509000000E+03 0.  0.
         25    1    4    4    0    0 -0.23928001381E+02  0.34493929772E+02 -0.46465900922E+03  0.48302989906E+03  0.12509000000E+03 0.  0.
<mgrwt>
<rscale>  2 0.45978918E+03</rscale>
<asrwt>0</asrwt>
<pdfrwt beam="1">  1       21 0.80962878E-02 0.45978918E+03</pdfrwt>
<pdfrwt beam="2">  1       21 0.14117368E+00 0.45978918E+03</pdfrwt>
<totfact> 0.37177157E+04</totfact>
</mgrwt>
</event>
<event>
 7    0  0.4737014E-002  0.4535659E+03  0.7546771E-02  0.1026664E+00
         21   -1    0    0  502  501  0.00000000000E+00  0.00000000000E+00  0.73203096247E+03  0.73203096247E+03  0.00000000000E+00 0. -1.
         21   -1    0    0  501  502 -0.00000000000E+00 -0.00000000000E+00 -0.70257279356E+02  0.70257279356E+02  0.00000000000E+00 0. -1.
      99926    2    1    2    0    0  0.00000000000E+00  0.00000000000E+00  0.66177368312E+03  0.80228824183E+03  0.45356588861E+03 0.  0.
      99925    2    3    3    0    0  0.87179069246E+02  0.33267054454E+02  0.30812767792E+03  0.41573954875E+03  0.26303957776E+03 0.  0.
         25    1    3    3    0    0 -0.87179069246E+02 -0.33267054454E+02  0.35364600520E+03  0.38654869308E+03  0.12509000000E+03 0.  0.
         25    1    4    4    0    0  0.31768928908E+02 -0.21208161248E+02  0.12703946233E+03  0.18233371613E+03  0.12509000000E+03 0.  0.
         25    1    4    4    0    0  0.55410140338E+02  0.54475215702E+02  0.18108821559E+03  0.23340583262E+03  0.12509000000E+03 0.  0.
<mgrwt>
<rscale>  2 0.45356589E+03</rscale>
<asrwt>0</asrwt>
<pdfrwt beam="1">  1       21 0.10765161E+00 0.45356589E+03</pdfrwt>
<pdfrwt beam="2">  1       21 0.10331953E-01 0.45356589E+03</pdfrwt>
<totfact> 0.48194443E+04</totfact>
</mgrwt>
</event>
<event>
 7    0  0.4737014E-002  0.4047476E+03  0.7546771E-02  0.1042148E+00
         21   -1    0    0  502  501  0.00000000000E+00  0.00000000000E+00  0.24700080829E+03  0.24700080829E+03  0.00000000000E+00 0. -1.
         21   -1    0    0  501  502 -0.00000000000E+00 -0.00000000000E+00 -0.16580978988E+03  0.16580978988E+03  0.00000000000E+00 0. -1.
      99926    2    1    2    0    0  0.00000000000E+00  0.00000000000E+00  0.81191018412E+02  0.41281059816E+03  0.40474758614E+03 0.  0.
      99925    2    3    3    0    0  0.23271996288E+02  0.47354719017E+02  0.42303977333E+02  0.27158820161E+03  0.26303320994E+03 0.  0.
         25    1    4    4    0    0 -0.79822091451E+00 -0.12420924555E+02  0.40690995963E+01  0.12577353535E+03  0.12509000000E+03 0.  0.
         25    1    3    3    0    0 -0.23271996288E+02 -0.47354719017E+02  0.38887041080E+02  0.14122239655E+03  0.12509000000E+03 0.  0.
         25    1    4    4    0    0  0.24070217202E+02  0.59775643572E+02  0.38234877736E+02  0.14581466626E+03  0.12509000000E+03 0.  0.
<mgrwt>
<rscale>  2 0.40474759E+03</rscale>
<asrwt>0</asrwt>
<pdfrwt beam="1">  1       21 0.36323648E-01 0.40474759E+03</pdfrwt>
<pdfrwt beam="2">  1       21 0.24383793E-01 0.40474759E+03</pdfrwt>
<totfact> 0.10947276E+05</totfact>
</mgrwt>
</event>
<event>
 7    0  0.4737014E-002  0.4503134E+03  0.7546771E-02  0.1027629E+00
         21   -1    0    0  502  501  0.00000000000E+00  0.00000000000E+00  0.10039075798E+04  0.10039075798E+04  0.00000000000E+00 0. -1.
         21   -1    0    0  501  502 -0.00000000000E+00 -0.00000000000E+00 -0.50498216826E+02  0.50498216826E+02  0.00000000000E+00 0. -1.
      99926    2    1    2    0    0  0.00000000000E+00  0.00000000000E+00  0.95340936298E+03  0.10544057966E+04  0.45031341369E+03 0.  0.
      99925    2    3    3    0    0 -0.79336649974E+02  0.71422432971E+02  0.55410724004E+03  0.62256651930E+03  0.26298054972E+03 0.  0.
         25    1    3    3    0    0  0.79336649974E+02 -0.71422432971E+02  0.39930212294E+03  0.43183927733E+03  0.12509000000E+03 0.  0.
         25    1    4    4    0    0 -0.15293465699E+01  0.37750715088E+02  0.29436501093E+03  0.32206478099E+03  0.12509000000E+03 0.  0.
         25    1    4    4    0    0 -0.77807303404E+02  0.33671717884E+02  0.25974222910E+03  0.30050173831E+03  0.12509000000E+03 0.  0.
<mgrwt>
<rscale>  2 0.45031341E+03</rscale>
<asrwt>0</asrwt>
<pdfrwt beam="1">  1       21 0.14763346E+00 0.45031341E+03</pdfrwt>
<pdfrwt beam="2">  1       21 0.74262090E-02 0.45031341E+03</pdfrwt>
<totfact> 0.38505431E+04</totfact>
</mgrwt>
</event>
<event>
 7    0  0.4737014E-002  0.4658519E+03  0.7546771E-02  0.1023098E+00
         21   -1    0    0  502  501  0.00000000000E+00  0.00000000000E+00  0.20157706622E+03  0.20157706622E+03  0.00000000000E+00 0.  1.
         21   -1    0    0  501  502 -0.00000000000E+00 -0.00000000000E+00 -0.26915017424E+03  0.26915017424E+03  0.00000000000E+00 0.  1.
      99926    2    1    2    0    0  0.00000000000E+00  0.00000000000E+00 -0.67573108018E+02  0.47072724046E+03  0.46585191851E+03 0.  0.
      99925    2    3    3    0    0 -0.82680821633E+02 -0.90239158949E+02 -0.55250108474E+02  0.29528896501E+03  0.26299006502E+03 0.  0.
         25    1    4    4    0    0 -0.69284215015E+02 -0.18315052879E+02 -0.39779625195E+02  0.14955156399E+03  0.12509000000E+03 0.  0.
         25    1    3    3    0    0  0.82680821633E+02  0.90239158949E+02 -0.12322999544E+02  0.17543827545E+03  0.12509000000E+03 0.  0.
         25    1    4    4    0    0 -0.13396606618E+02 -0.71924106070E+02 -0.15470483280E+02  0.14573740102E+03  0.12509000000E+03 0.  0.
<mgrwt>
<rscale>  2 0.46585192E+03</rscale>
<asrwt>0</asrwt>
<pdfrwt beam="1">  1       21 0.29643686E-01 0.46585192E+03</pdfrwt>
<pdfrwt beam="2">  1       21 0.39580908E-01 0.46585192E+03</pdfrwt>
<totfact> 0.61874671E+04</totfact>
</mgrwt>
</event>
<event>
 7    0  0.4737014E-002  0.4518034E+03  0.7546771E-02  0.1027186E+00
         21   -1    0    0  502  501  0.00000000000E+00  0.00000000000E+00  0.79112614642E+02  0.79112614642E+02  0.00000000000E+00 0. -1.
         21   -1    0    0  501  502 -0.00000000000E+00 -0.00000000000E+00 -0.64504984953E+03  0.64504984953E+03  0.00000000000E+00 0. -1.
      99926    2    1    2    0    0 -0.71054273576E-14  0.00000000000E+00 -0.56593723489E+03  0.72416246418E+03  0.45180340933E+03 0.  0.
      99925    2    3    3    0    0 -0.44802432619E+02 -0.78772714395E+02 -0.45754924202E+03  0.53546200418E+03  0.26297499986E+03 0.  0.
         25    1    3    3    0    0  0.44802432619E+02  0.78772714395E+02 -0.10838799287E+03  0.18870045999E+03  0.12509000000E+03 0.  0.
         25    1    4    4    0    0 -0.53091854695E+02 -0.62243924662E+02 -0.21380204849E+03  0.26086754346E+03  0.12509000000E+03 0.  0.
         25    1    4    4    0    0  0.82894220764E+01 -0.16528789734E+02 -0.24374719352E+03  0.27459446072E+03  0.12509000000E+03 0.  0.
<mgrwt>
<rscale>  2 0.45180341E+03</rscale>
<asrwt>0</asrwt>
<pdfrwt beam="1">  1       21 0.11634208E-01 0.45180341E+03</pdfrwt>
<pdfrwt beam="2">  1       21 0.94860274E-01 0.45180341E+03</pdfrwt>
<totfact> 0.52928832E+04</totfact>
</mgrwt>
</event>
<event>
 7    0  0.4737014E-002  0.4570761E+03  0.7546771E-02  0.1025633E+00
         21   -1    0    0  502  501  0.00000000000E+00  0.00000000000E+00  0.27004269080E+03  0.27004269080E+03  0.00000000000E+00 0.  1.
         21   -1    0    0  501  502 -0.00000000000E+00 -0.00000000000E+00 -0.19341255344E+03  0.19341255344E+03  0.00000000000E+00 0.  1.
      99926    2    1    2    0    0  0.35527136788E-14  0.14210854715E-13  0.76630137356E+02  0.46345524424E+03  0.45707612655E+03 0.  0.
      99925    2    3    3    0    0  0.29488147696E+02  0.10134823267E+03  0.15517723201E+01  0.28338502428E+03  0.26298982655E+03 0.  0.
         25    1    4    4    0    0  0.33572968333E+02  0.22500064569E+02 -0.22953996348E+02  0.13344583604E+03  0.12509000000E+03 0.  0.
         25    1    3    3    0    0 -0.29488147696E+02 -0.10134823267E+03  0.75078365036E+02  0.18007021996E+03  0.12509000000E+03 0.  0.
         25    1    4    4    0    0 -0.40848206364E+01  0.78848168098E+02  0.24505768668E+02  0.14993918824E+03  0.12509000000E+03 0.  0.
<mgrwt>
<rscale>  2 0.45707613E+03</rscale>
<asrwt>0</asrwt>
<pdfrwt beam="1">  1       21 0.39712160E-01 0.45707613E+03</pdfrwt>
<pdfrwt beam="2">  1       21 0.28443023E-01 0.45707613E+03</pdfrwt>
<totfact> 0.66815368E+04</totfact>
</mgrwt>
</event>
<event>
 7    0  0.4737014E-002  0.4534272E+03  0.7546771E-02  0.1026705E+00
         21   -1    0    0  502  501  0.00000000000E+00  0.00000000000E+00  0.33460007121E+03  0.33460007121E+03  0.00000000000E+00 0.  1.
         21   -1    0    0  501  502 -0.00000000000E+00 -0.00000000000E+00 -0.15361338008E+03  0.15361338008E+03  0.00000000000E+00 0.  1.
      99926    2    1    2    0    0  0.00000000000E+00  0.00000000000E+00  0.18098669113E+03  0.48821345129E+03  0.45342716246E+03 0.  0.
      99925    2    3    3    0    0  0.38650370151E+02 -0.28890191369E+02  0.55243859593E+01  0.26738994053E+03  0.26294175626E+03 0.  0.
         25    1    4    4    0    0  0.44836114295E+02 -0.23210643240E+02  0.33375646799E+02  0.13896205599E+03  0.12509000000E+03 0.  0.
         25    1    3    3    0    0 -0.38650370151E+02  0.28890191369E+02  0.17546230517E+03  0.22082351076E+03  0.12509000000E+03 0.  0.
         25    1    4    4    0    0 -0.61857441443E+01 -0.56795481294E+01 -0.27851260840E+02  0.12842788454E+03  0.12509000000E+03 0.  0.
<mgrwt>
<rscale>  2 0.45342716E+03</rscale>
<asrwt>0</asrwt>
<pdfrwt beam="1">  1       21 0.49205893E-01 0.45342716E+03</pdfrwt>
<pdfrwt beam="2">  1       21 0.22590203E-01 0.45342716E+03</pdfrwt>
<totfact> 0.66938824E+04</totfact>
</mgrwt>
</event>
<event>
 7    0  0.4737014E-002  0.4540779E+03  0.7546771E-02  0.1026513E+00
         21   -1    0    0  502  501  0.00000000000E+00  0.00000000000E+00  0.88883678096E+02  0.88883678096E+02  0.00000000000E+00 0. -1.
         21   -1    0    0  501  502 -0.00000000000E+00 -0.00000000000E+00 -0.57993413365E+03  0.57993413365E+03  0.00000000000E+00 0. -1.
      99926    2    1    2    0    0  0.00000000000E+00  0.00000000000E+00 -0.49105045556E+03  0.66881781175E+03  0.45407787373E+03 0.  0.
      99925    2    3    3    0    0  0.91147166659E+02  0.57934702387E+02 -0.35446722485E+03  0.45441929790E+03  0.26303165034E+03 0.  0.
         25    1    4    4    0    0  0.35681784808E+02 -0.68506708080E+01 -0.13312278127E+03  0.18625064953E+03  0.12509000000E+03 0.  0.
         25    1    3    3    0    0 -0.91147166659E+02 -0.57934702387E+02 -0.13658323071E+03  0.21439851385E+03  0.12509000000E+03 0.  0.
         25    1    4    4    0    0  0.55465381851E+02  0.64785373195E+02 -0.22134444358E+03  0.26816864837E+03  0.12509000000E+03 0.  0.
<mgrwt>
<rscale>  2 0.45407787E+03</rscale>
<asrwt>0</asrwt>
<pdfrwt beam="1">  1       21 0.13071129E-01 0.45407787E+03</pdfrwt>
<pdfrwt beam="2">  1       21 0.85284434E-01 0.45407787E+03</pdfrwt>
<totfact> 0.55027797E+04</totfact>
</mgrwt>
</event>
<event>
 7    0  0.4737014E-002  0.4553162E+03  0.7546771E-02  0.1026148E+00
         21   -1    0    0  502  501  0.00000000000E+00  0.00000000000E+00  0.55244221831E+02  0.55244221831E+02  0.00000000000E+00 0.  1.
         21   -1    0    0  501  502 -0.00000000000E+00 -0.00000000000E+00 -0.93816544962E+03  0.93816544962E+03  0.00000000000E+00 0.  1.
      99926    2    1    2    0    0  0.00000000000E+00  0.00000000000E+00 -0.88292122779E+03  0.99340967145E+03  0.45531624269E+03 0.  0.
      99925    2    3    3    0    0 -0.89327000378E+02 -0.62724316270E+02 -0.62308482595E+03  0.68506551848E+03  0.26299507874E+03 0.  0.
         25    1    4    4    0    0 -0.41184541878E+02 -0.65611501803E+02 -0.37949369585E+03  0.40701843810E+03  0.12509000000E+03 0.  0.
         25    1    3    3    0    0  0.89327000378E+02  0.62724316270E+02 -0.25983640185E+03  0.30834415297E+03  0.12509000000E+03 0.  0.
         25    1    4    4    0    0 -0.48142458500E+02  0.28871855328E+01 -0.24359113009E+03  0.27804708039E+03  0.12509000000E+03 0.  0.
<mgrwt>
<rscale>  2 0.45531624E+03</rscale>
<asrwt>0</asrwt>
<pdfrwt beam="1">  1       21 0.81241505E-02 0.45531624E+03</pdfrwt>
<pdfrwt beam="2">  1       21 0.13796550E+00 0.45531624E+03</pdfrwt>
<totfact> 0.39326862E+04</totfact>
</mgrwt>
</event>
<event>
 7    0  0.4737014E-002  0.4530147E+03  0.7546771E-02  0.1026827E+00
         21   -1    0    0  502  501  0.00000000000E+00  0.00000000000E+00  0.18167988049E+03  0.18167988049E+03  0.00000000000E+00 0. -1.
         21   -1    0    0  501  502 -0.00000000000E+00 -0.00000000000E+00 -0.28239549138E+03  0.28239549138E+03  0.00000000000E+00 0. -1.
      99926    2    1    2    0    0  0.00000000000E+00  0.14210854715E-13 -0.10071561089E+03  0.46407537188E+03  0.45301469789E+03 0.  0.
      99925    2    3    3    0    0  0.67541175493E+02  0.74368752367E+02 -0.11418566418E+03  0.30307390558E+03  0.26215053809E+03 0.  0.
         25    1    4    4    0    0  0.42170087369E+02  0.21705024757E+02 -0.18425965798E+02  0.13504239588E+03  0.12509000000E+03 0.  0.
         25    1    4    4    0    0  0.25371088124E+02  0.52663727610E+02 -0.95759698380E+02  0.16803150970E+03  0.12509000000E+03 0.  0.
         25    1    3    3    0    0 -0.67541175493E+02 -0.74368752367E+02  0.13470053290E+02  0.16100146630E+03  0.12509000000E+03 0.  0.
<mgrwt>
<rscale>  2 0.45301470E+03</rscale>
<asrwt>0</asrwt>
<pdfrwt beam="1">  1       21 0.26717630E-01 0.45301470E+03</pdfrwt>
<pdfrwt beam="2">  1       21 0.41528749E-01 0.45301470E+03</pdfrwt>
<totfact> 0.68958897E+04</totfact>
</mgrwt>
</event>
<event>
 7    0  0.4737014E-002  0.4591654E+03  0.7546771E-02  0.1025024E+00
         21   -1    0    0  502  501  0.00000000000E+00  0.00000000000E+00  0.23109871642E+04  0.23109871642E+04  0.00000000000E+00 0.  1.
         21   -1    0    0  501  502 -0.00000000000E+00 -0.00000000000E+00 -0.22807665975E+02  0.22807665975E+02  0.00000000000E+00 0.  1.
      99926    2    1    2    0    0  0.00000000000E+00  0.00000000000E+00  0.22881794983E+04  0.23337948302E+04  0.45916543125E+03 0.  0.
      99925    2    3    3    0    0  0.46846885994E+02 -0.97683458662E+02  0.16599913728E+04  0.16841760821E+04  0.26294681770E+03 0.  0.
         25    1    3    3    0    0 -0.46846885994E+02  0.97683458662E+02  0.62818812550E+03  0.64961874814E+03  0.12509000000E+03 0.  0.
         25    1    4    4    0    0 -0.31537675363E+01 -0.29147330251E+02  0.61193090442E+03  0.62527310272E+03  0.12509000000E+03 0.  0.
         25    1    4    4    0    0  0.50000653530E+02 -0.68536128411E+02  0.10480604683E+04  0.10589029793E+04  0.12509000000E+03 0.  0.
<mgrwt>
<rscale>  2 0.45916543E+03</rscale>
<asrwt>0</asrwt>
<pdfrwt beam="1">  1       21 0.33985089E+00 0.45916543E+03</pdfrwt>
<pdfrwt beam="2">  1       21 0.33540701E-02 0.45916543E+03</pdfrwt>
<totfact> 0.87005483E+03</totfact>
</mgrwt>
</event>
<event>
 7    0  0.4737014E-002  0.4510392E+03  0.7546771E-02  0.1027413E+00
         21   -1    0    0  502  501  0.00000000000E+00  0.00000000000E+00  0.18991753066E+04  0.18991753066E+04  0.00000000000E+00 0. -1.
         21   -1    0    0  501  502 -0.00000000000E+00 -0.00000000000E+00 -0.26779571459E+02  0.26779571459E+02  0.00000000000E+00 0. -1.
      99926    2    1    2    0    0  0.00000000000E+00  0.00000000000E+00  0.18723957351E+04  0.19259548780E+04  0.45103924811E+03 0.  0.
      99925    2    3    3    0    0  0.55818952947E+02 -0.66425431299E+02  0.90294817691E+03  0.94462711951E+03  0.26358469474E+03 0.  0.
         25    1    4    4    0    0  0.19223087661E+02 -0.48220740876E+02  0.58595395723E+03  0.60140195796E+03  0.12509000000E+03 0.  0.
         25    1    4    4    0    0  0.36595865285E+02 -0.18204690422E+02  0.31699421968E+03  0.34322516155E+03  0.12509000000E+03 0.  0.
         25    1    3    3    0    0 -0.55818952947E+02  0.66425431299E+02  0.96944755820E+03  0.98132775851E+03  0.12509000000E+03 0.  0.
<mgrwt>
<rscale>  2 0.45103925E+03</rscale>
<asrwt>0</asrwt>
<pdfrwt beam="1">  1       21 0.27929040E+00 0.45103925E+03</pdfrwt>
<pdfrwt beam="2">  1       21 0.39381735E-02 0.45103925E+03</pdfrwt>
<totfact> 0.15425337E+04</totfact>
</mgrwt>
</event>
<event>
 7    0  0.4737014E-002  0.4482086E+03  0.7546771E-02  0.1028258E+00
         21   -1    0    0  502  501  0.00000000000E+00  0.00000000000E+00  0.12935609134E+04  0.12935609134E+04  0.00000000000E+00 0.  1.
         21   -1    0    0  501  502 -0.00000000000E+00 -0.00000000000E+00 -0.38825178410E+02  0.38825178410E+02  0.00000000000E+00 0.  1.
      99926    2    1    2    0    0  0.00000000000E+00 -0.14210854715E-13  0.12547357350E+04  0.13323860918E+04  0.44820858201E+03 0.  0.
      99925    2    3    3    0    0  0.44548716907E+02 -0.96742139999E+02  0.81516477943E+03  0.86311669913E+03  0.26293190919E+03 0.  0.
         25    1    3    3    0    0 -0.44548716907E+02  0.96742139999E+02  0.43957095558E+03  0.46926939269E+03  0.12509000000E+03 0.  0.
         25    1    4    4    0    0  0.38537221952E+02 -0.83229205212E+02  0.39097025687E+03  0.42061558213E+03  0.12509000000E+03 0.  0.
         25    1    4    4    0    0  0.60114949552E+01 -0.13512934788E+02  0.42419452256E+03  0.44250111700E+03  0.12509000000E+03 0.  0.
<mgrwt>
<rscale>  2 0.44820858E+03</rscale>
<asrwt>0</asrwt>
<pdfrwt beam="1">  1       21 0.19022952E+00 0.44820858E+03</pdfrwt>
<pdfrwt beam="2">  1       21 0.57095859E-02 0.44820858E+03</pdfrwt>
<totfact> 0.29727578E+04</totfact>
</mgrwt>
</event>
<event>
 7    0  0.4737014E-002  0.4549043E+03  0.7546771E-02  0.1026270E+00
         21   -1    0    0  502  501  0.00000000000E+00  0.00000000000E+00  0.10079589206E+03  0.10079589206E+03  0.00000000000E+00 0. -1.
         21   -1    0    0  501  502 -0.00000000000E+00 -0.00000000000E+00 -0.51325987234E+03  0.51325987234E+03  0.00000000000E+00 0. -1.
      99926    2    1    2    0    0  0.14210854715E-13  0.00000000000E+00 -0.41246398028E+03  0.61405576440E+03  0.45490432704E+03 0.  0.
      99925    2    3    3    0    0  0.86083048929E+02  0.70200870792E+02 -0.23450165932E+03  0.36980886195E+03  0.26349404657E+03 0.  0.
         25    1    4    4    0    0  0.29243074141E+01  0.34984458189E+02 -0.87002019208E+02  0.15636279396E+03  0.12509000000E+03 0.  0.
         25    1    4    4    0    0  0.83158741514E+02  0.35216412603E+02 -0.14749964011E+03  0.21344606799E+03  0.12509000000E+03 0.  0.
         25    1    3    3    0    0 -0.86083048929E+02 -0.70200870792E+02 -0.17796232097E+03  0.24424690245E+03  0.12509000000E+03 0.  0.
<mgrwt>
<rscale>  2 0.45490433E+03</rscale>
<asrwt>0</asrwt>
<pdfrwt beam="1">  1       21 0.14822925E-01 0.45490433E+03</pdfrwt>
<pdfrwt beam="2">  1       21 0.75479393E-01 0.45490433E+03</pdfrwt>
<totfact> 0.57865048E+04</totfact>
</mgrwt>
</event>
<event>
 7    0  0.4737014E-002  0.4548268E+03  0.7546771E-02  0.1026292E+00
         21   -1    0    0  502  501  0.00000000000E+00  0.00000000000E+00  0.86093963325E+02  0.86093963325E+02  0.00000000000E+00 0. -1.
         21   -1    0    0  501  502 -0.00000000000E+00 -0.00000000000E+00 -0.60070241890E+03  0.60070241890E+03  0.00000000000E+00 0. -1.
      99926    2    1    2    0    0  0.71054273576E-14 -0.14210854715E-13 -0.51460845557E+03  0.68679638222E+03  0.45482678910E+03 0.  0.
      99925    2    3    3    0    0  0.37102012483E+02 -0.10111823206E+03 -0.37541824444E+03  0.47087306444E+03  0.26302305674E+03 0.  0.
         25    1    4    4    0    0 -0.15618178910E+02 -0.45384143687E+02 -0.14259460949E+03  0.19566394345E+03  0.12509000000E+03 0.  0.
         25    1    4    4    0    0  0.52720191394E+02 -0.55734088373E+02 -0.23282363495E+03  0.27520912100E+03  0.12509000000E+03 0.  0.
         25    1    3    3    0    0 -0.37102012483E+02  0.10111823206E+03 -0.13919021113E+03  0.21592331778E+03  0.12509000000E+03 0.  0.
<mgrwt>
<rscale>  2 0.45482679E+03</rscale>
<asrwt>0</asrwt>
<pdfrwt beam="1">  1       21 0.12660877E-01 0.45482679E+03</pdfrwt>
<pdfrwt beam="2">  1       21 0.88338590E-01 0.45482679E+03</pdfrwt>
<totfact> 0.53699075E+04</totfact>
</mgrwt>
</event>
<event>
 7    0  0.4737014E-002  0.4592188E+03  0.7546771E-02  0.1025008E+00
         21   -1    0    0  502  501  0.00000000000E+00  0.00000000000E+00  0.48584812659E+02  0.48584812659E+02  0.00000000000E+00 0.  1.
         21   -1    0    0  501  502 -0.00000000000E+00 -0.00000000000E+00 -0.10851223664E+04  0.10851223664E+04  0.00000000000E+00 0.  1.
      99926    2    1    2    0    0  0.00000000000E+00  0.00000000000E+00 -0.10365375537E+04  0.11337071790E+04  0.45921875781E+03 0.  0.
      99925    2    3    3    0    0  0.61664411210E+01  0.24971430617E+02 -0.93210973852E+03  0.96873968517E+03  0.26261457620E+03 0.  0.
         25    1    4    4    0    0  0.41178639458E+02  0.10864854580E+02 -0.42510258024E+03  0.44516675217E+03  0.12509000000E+03 0.  0.
         25    1    3    3    0    0 -0.61664411210E+01 -0.24971430617E+02 -0.10442781517E+03  0.16496749384E+03  0.12509000000E+03 0.  0.
         25    1    4    4    0    0 -0.35012198337E+02  0.14106576037E+02 -0.50700715829E+03  0.52357293300E+03  0.12509000000E+03 0.  0.
<mgrwt>
<rscale>  2 0.45921876E+03</rscale>
<asrwt>0</asrwt>
<pdfrwt beam="1">  1       21 0.71448262E-02 0.45921876E+03</pdfrwt>
<pdfrwt beam="2">  1       21 0.15957680E+00 0.45921876E+03</pdfrwt>
<totfact> 0.33224906E+04</totfact>
</mgrwt>
</event>
<event>
 7    0  0.4737014E-002  0.4502207E+03  0.7546771E-02  0.1027656E+00
         21   -1    0    0  502  501  0.00000000000E+00  0.00000000000E+00  0.69617146415E+02  0.69617146415E+02  0.00000000000E+00 0. -1.
         21   -1    0    0  501  502 -0.00000000000E+00 -0.00000000000E+00 -0.72790510308E+03  0.72790510308E+03  0.00000000000E+00 0. -1.
      99926    2    1    2    0    0  0.35527136788E-14  0.00000000000E+00 -0.65828795667E+03  0.79752224950E+03  0.45022072870E+03 0.  0.
      99925    2    3    3    0    0 -0.17348230264E+02 -0.99668925684E+02 -0.48644653988E+03  0.56212506076E+03  0.26290586136E+03 0.  0.
         25    1    4    4    0    0 -0.32880299671E+02 -0.66397386791E+02 -0.19856194430E+03  0.24609770601E+03  0.12509000000E+03 0.  0.
         25    1    4    4    0    0  0.15532069407E+02 -0.33271538893E+02 -0.28788459558E+03  0.31602735476E+03  0.12509000000E+03 0.  0.
         25    1    3    3    0    0  0.17348230264E+02  0.99668925684E+02 -0.17184141679E+03  0.23539718873E+03  0.12509000000E+03 0.  0.
<mgrwt>
<rscale>  2 0.45022073E+03</rscale>
<asrwt>0</asrwt>
<pdfrwt beam="1">  1       21 0.10237816E-01 0.45022073E+03</pdfrwt>
<pdfrwt beam="2">  1       21 0.10704487E+00 0.45022073E+03</pdfrwt>
<totfact> 0.49723848E+04</totfact>
</mgrwt>
</event>
<event>
 7    0  0.4737014E-002  0.4556418E+03  0.7546771E-02  0.1026053E+00
         21   -1    0    0  502  501  0.00000000000E+00  0.00000000000E+00  0.19895049917E+03  0.19895049917E+03  0.00000000000E+00 0. -1.
         21   -1    0    0  501  502 -0.00000000000E+00 -0.00000000000E+00 -0.26088079327E+03  0.26088079327E+03  0.00000000000E+00 0. -1.
      99926    2    1    2    0    0  0.35527136788E-14  0.00000000000E+00 -0.61930294096E+02  0.45983129244E+03  0.45564180688E+03 0.  0.
      99925    2    3    3    0    0 -0.26137148529E+02  0.10090229722E+03  0.70658423842E+01  0.28299125436E+03  0.26300133041E+03 0.  0.
         25    1    4    4    0    0 -0.11485015575E+01  0.62395915145E+02 -0.33414998498E+02  0.14373113618E+03  0.12509000000E+03 0.  0.
         25    1    4    4    0    0 -0.24988646971E+02  0.38506382077E+02  0.40480840882E+02  0.13926011818E+03  0.12509000000E+03 0.  0.
         25    1    3    3    0    0  0.26137148529E+02 -0.10090229722E+03 -0.68996136480E+02  0.17684003808E+03  0.12509000000E+03 0.  0.
<mgrwt>
<rscale>  2 0.45564181E+03</rscale>
<asrwt>0</asrwt>
<pdfrwt beam="1">  1       21 0.29257426E-01 0.45564181E+03</pdfrwt>
<pdfrwt beam="2">  1       21 0.38364822E-01 0.45564181E+03</pdfrwt>
<totfact> 0.67844951E+04</totfact>
</mgrwt>
</event>
<event>
 7    0  0.4737014E-002  0.4628589E+03  0.7546771E-02  0.1023955E+00
         21   -1    0    0  502  501  0.00000000000E+00  0.00000000000E+00  0.77976640250E+02  0.77976640250E+02  0.00000000000E+00 0. -1.
         21   -1    0    0  501  502 -0.00000000000E+00 -0.00000000000E+00 -0.68686707891E+03  0.68686707891E+03  0.00000000000E+00 0. -1.
      99926    2    1    2    0    0 -0.44408920985E-15  0.14210854715E-13 -0.60889043866E+03  0.76484371916E+03  0.46285888611E+03 0.  0.
      99925    2    3    3    0    0  0.30317682980E+01 -0.87844630927E+02 -0.51641396486E+03  0.58616725986E+03  0.26302623942E+03 0.  0.
         25    1    4    4    0    0 -0.32867276235E+01 -0.62583613276E+02 -0.19257983020E+03  0.23803783382E+03  0.12509000000E+03 0.  0.
         25    1    4    4    0    0  0.63184959214E+01 -0.25261017651E+02 -0.32383413467E+03  0.34812942605E+03  0.12509000000E+03 0.  0.
         25    1    3    3    0    0 -0.30317682980E+01  0.87844630927E+02 -0.92476473798E+02  0.17867645930E+03  0.12509000000E+03 0.  0.
<mgrwt>
<rscale>  2 0.46285889E+03</rscale>
<asrwt>0</asrwt>
<pdfrwt beam="1">  1       21 0.11467152E-01 0.46285889E+03</pdfrwt>
<pdfrwt beam="2">  1       21 0.10100987E+00 0.46285889E+03</pdfrwt>
<totfact> 0.46571566E+04</totfact>
</mgrwt>
</event>
<event>
 7    0  0.4737014E-002  0.4531901E+03  0.7546771E-02  0.1026775E+00
         21   -1    0    0  502  501  0.00000000000E+00  0.00000000000E+00  0.11029855076E+03  0.11029855076E+03  0.00000000000E+00 0.  1.
         21   -1    0    0  501  502 -0.00000000000E+00 -0.00000000000E+00 -0.46551209715E+03  0.46551209715E+03  0.00000000000E+00 0.  1.
      99926    2    1    2    0    0  0.00000000000E+00  0.00000000000E+00 -0.35521354639E+03  0.57581064791E+03  0.45319006908E+03 0.  0.
      99925    2    3    3    0    0 -0.64268283547E+02 -0.69965687796E+02 -0.14931536522E+03  0.31683733106E+03  0.26280259953E+03 0.  0.
         25    1    3    3    0    0  0.64268283547E+02  0.69965687796E+02 -0.20589818116E+03  0.25897331686E+03  0.12509000000E+03 0.  0.
         25    1    4    4    0    0 -0.76099392879E+01 -0.39486775834E+02 -0.10841163325E+03  0.17034584517E+03  0.12509000000E+03 0.  0.
         25    1    4    4    0    0 -0.56658344259E+02 -0.30478911962E+02 -0.40903731976E+02  0.14649148589E+03  0.12509000000E+03 0.  0.
<mgrwt>
<rscale>  2 0.45319007E+03</rscale>
<asrwt>0</asrwt>
<pdfrwt beam="1">  1       21 0.16220375E-01 0.45319007E+03</pdfrwt>
<pdfrwt beam="2">  1       21 0.68457663E-01 0.45319007E+03</pdfrwt>
<totfact> 0.61061579E+04</totfact>
</mgrwt>
</event>
<event>
 7    0  0.4737014E-002  0.4720735E+03  0.7546771E-02  0.1021337E+00
         21   -1    0    0  502  501  0.00000000000E+00  0.00000000000E+00  0.73409512670E+03  0.73409512670E+03  0.00000000000E+00 0. -1.
         21   -1    0    0  501  502 -0.00000000000E+00 -0.00000000000E+00 -0.75893897333E+02  0.75893897333E+02  0.00000000000E+00 0. -1.
      99926    2    1    2    0    0  0.00000000000E+00  0.71054273576E-14  0.65820122937E+03  0.80998902403E+03  0.47207346961E+03 0.  0.
      99925    2    3    3    0    0 -0.10626982897E+03  0.42266116912E+02  0.30741553088E+03  0.42040229999E+03  0.26297164110E+03 0.  0.
         25    1    3    3    0    0  0.10626982897E+03 -0.42266116912E+02  0.35078569849E+03  0.38958672404E+03  0.12509000000E+03 0.  0.
         25    1    4    4    0    0 -0.55371309283E+02  0.52522693959E+02  0.12131378184E+03  0.19023447910E+03  0.12509000000E+03 0.  0.
         25    1    4    4    0    0 -0.50898519687E+02 -0.10256577047E+02  0.18610174904E+03  0.23016782089E+03  0.12509000000E+03 0.  0.
<mgrwt>
<rscale>  2 0.47207347E+03</rscale>
<asrwt>0</asrwt>
<pdfrwt beam="1">  1       21 0.10795516E+00 0.47207347E+03</pdfrwt>
<pdfrwt beam="2">  1       21 0.11160868E-01 0.47207347E+03</pdfrwt>
<totfact> 0.41447057E+04</totfact>
</mgrwt>
</event>
<event>
 7    0  0.4737014E-002  0.4380726E+03  0.7546771E-02  0.1031340E+00
         21   -1    0    0  502  501  0.00000000000E+00  0.00000000000E+00  0.17825725861E+03  0.17825725861E+03  0.00000000000E+00 0.  1.
         21   -1    0    0  501  502 -0.00000000000E+00 -0.00000000000E+00 -0.26914414557E+03  0.26914414557E+03  0.00000000000E+00 0.  1.
      99926    2    1    2    0    0  0.39968028887E-14 -0.88817841970E-15 -0.90886886960E+02  0.44740140419E+03  0.43807258559E+03 0.  0.
      99925    2    3    3    0    0 -0.39261515035E+01  0.30435207404E+01 -0.15647758646E+03  0.30607084965E+03  0.26300085981E+03 0.  0.
         25    1    4    4    0    0 -0.39717652908E+02  0.12627442658E+02 -0.67215013914E+02  0.14799429197E+03  0.12509000000E+03 0.  0.
         25    1    3    3    0    0  0.39261515035E+01 -0.30435207404E+01  0.65590699496E+02  0.14133055453E+03  0.12509000000E+03 0.  0.
         25    1    4    4    0    0  0.35791501405E+02 -0.95839219180E+01 -0.89262572542E+02  0.15807655768E+03  0.12509000000E+03 0.  0.
<mgrwt>
<rscale>  2 0.43807259E+03</rscale>
<asrwt>0</asrwt>
<pdfrwt beam="1">  1       21 0.26214303E-01 0.43807259E+03</pdfrwt>
<pdfrwt beam="2">  1       21 0.39580021E-01 0.43807259E+03</pdfrwt>
<totfact> 0.79275110E+04</totfact>
</mgrwt>
</event>
<event>
 7    0  0.4737014E-002  0.4538828E+03  0.7546771E-02  0.1026570E+00
         21   -1    0    0  502  501  0.00000000000E+00  0.00000000000E+00  0.26354474582E+03  0.26354474582E+03  0.00000000000E+00 0.  1.
         21   -1    0    0  501  502 -0.00000000000E+00 -0.00000000000E+00 -0.19542187579E+03  0.19542187579E+03  0.00000000000E+00 0.  1.
      99926    2    1    2    0    0  0.00000000000E+00  0.00000000000E+00  0.68122870038E+02  0.45896662161E+03  0.45388284207E+03 0.  0.
      99925    2    3    3    0    0 -0.42911249660E+02 -0.38020851357E+02 -0.53909219104E+02  0.27504734756E+03  0.26354862741E+03 0.  0.
         25    1    3    3    0    0  0.42911249660E+02  0.38020851357E+02  0.12203208914E+03  0.18391927405E+03  0.12509000000E+03 0.  0.
         25    1    4    4    0    0 -0.10851695864E+02 -0.59220252472E+02 -0.29668594175E+02  0.14195961111E+03  0.12509000000E+03 0.  0.
         25    1    4    4    0    0 -0.32059553796E+02  0.21199401115E+02 -0.24240624929E+02  0.13308773645E+03  0.12509000000E+03 0.  0.
<mgrwt>
<rscale>  2 0.45388284E+03</rscale>
<asrwt>0</asrwt>
<pdfrwt beam="1">  1       21 0.38756580E-01 0.45388284E+03</pdfrwt>
<pdfrwt beam="2">  1       21 0.28738511E-01 0.45388284E+03</pdfrwt>
<totfact> 0.68867438E+04</totfact>
</mgrwt>
</event>
<event>
 7    0  0.4737014E-002  0.4539532E+03  0.7546771E-02  0.1026550E+00
         21   -1    0    0  502  501  0.00000000000E+00  0.00000000000E+00  0.72035751569E+02  0.72035751569E+02  0.00000000000E+00 0.  1.
         21   -1    0    0  501  502 -0.00000000000E+00 -0.00000000000E+00 -0.71517776601E+03  0.71517776601E+03  0.00000000000E+00 0.  1.
      99926    2    1    2    0    0  0.00000000000E+00 -0.17763568394E-14 -0.64314201444E+03  0.78721351758E+03  0.45395316005E+03 0.  0.
      99925    2    3    3    0    0  0.93820829559E+02 -0.84437613914E+01 -0.29885078163E+03  0.40898394939E+03  0.26283537815E+03 0.  0.
         25    1    4    4    0    0  0.52346984201E+02  0.29129199893E+02 -0.11814470844E+03  0.18219329646E+03  0.12509000000E+03 0.  0.
         25    1    3    3    0    0 -0.93820829559E+02  0.84437613914E+01 -0.34429123281E+03  0.37822956819E+03  0.12509000000E+03 0.  0.
         25    1    4    4    0    0  0.41473845358E+02 -0.37572961285E+02 -0.18070607319E+03  0.22679065293E+03  0.12509000000E+03 0.  0.
<mgrwt>
<rscale>  2 0.45395316E+03</rscale>
<asrwt>0</asrwt>
<pdfrwt beam="1">  1       21 0.10593493E-01 0.45395316E+03</pdfrwt>
<pdfrwt beam="2">  1       21 0.10517320E+00 0.45395316E+03</pdfrwt>
<totfact> 0.48789154E+04</totfact>
</mgrwt>
</event>
<event>
 7    0  0.4737014E-002  0.4593360E+03  0.7546771E-02  0.1024974E+00
         21   -1    0    0  502  501  0.00000000000E+00  0.00000000000E+00  0.76483681243E+02  0.76483681243E+02  0.00000000000E+00 0. -1.
         21   -1    0    0  501  502 -0.00000000000E+00 -0.00000000000E+00 -0.68965563276E+03  0.68965563276E+03  0.00000000000E+00 0. -1.
      99926    2    1    2    0    0 -0.35527136788E-14  0.00000000000E+00 -0.61317195152E+03  0.76613931400E+03  0.45933604946E+03 0.  0.
      99925    2    3    3    0    0  0.31856137775E+02  0.11304268214E+03 -0.38464347364E+03  0.48036626629E+03  0.26269314128E+03 0.  0.
         25    1    4    4    0    0  0.15918546419E+02  0.17544519781E+02 -0.20170168243E+03  0.23852104119E+03  0.12509000000E+03 0.  0.
         25    1    3    3    0    0 -0.31856137775E+02 -0.11304268214E+03 -0.22852847788E+03  0.28577304771E+03  0.12509000000E+03 0.  0.
         25    1    4    4    0    0  0.15937591356E+02  0.95498162359E+02 -0.18294179121E+03  0.24184522510E+03  0.12509000000E+03 0.  0.
<mgrwt>
<rscale>  2 0.45933605E+03</rscale>
<asrwt>0</asrwt>
<pdfrwt beam="1">  1       21 0.11247601E-01 0.45933605E+03</pdfrwt>
<pdfrwt beam="2">  1       21 0.10141994E+00 0.45933605E+03</pdfrwt>
<totfact> 0.47798113E+04</totfact>
</mgrwt>
</event>
<event>
 7    0  0.4737014E-002  0.4607006E+03  0.7546771E-02  0.1024578E+00
         21   -1    0    0  502  501  0.00000000000E+00  0.00000000000E+00  0.20149383680E+03  0.20149383680E+03  0.00000000000E+00 0. -1.
         21   -1    0    0  501  502 -0.00000000000E+00 -0.00000000000E+00 -0.26333941075E+03  0.26333941075E+03  0.00000000000E+00 0. -1.
      99926    2    1    2    0    0 -0.14210854715E-13  0.71054273576E-14 -0.61845573947E+02  0.46483324755E+03  0.46070063274E+03 0.  0.
      99925    2    3    3    0    0  0.86672101593E+02  0.43385974870E+02 -0.10752586892E+03  0.30012564766E+03  0.26290529833E+03 0.  0.
         25    1    3    3    0    0 -0.86672101593E+02 -0.43385974870E+02  0.45680294976E+02  0.16470759988E+03  0.12509000000E+03 0.  0.
         25    1    4    4    0    0  0.56779418043E+02  0.39146414641E+02 -0.19384300164E+02  0.14415132079E+03  0.12509000000E+03 0.  0.
         25    1    4    4    0    0  0.29892683551E+02  0.42395602298E+01 -0.88141568758E+02  0.15597432687E+03  0.12509000000E+03 0.  0.
<mgrwt>
<rscale>  2 0.46070063E+03</rscale>
<asrwt>0</asrwt>
<pdfrwt beam="1">  1       21 0.29631447E-01 0.46070063E+03</pdfrwt>
<pdfrwt beam="2">  1       21 0.38726384E-01 0.46070063E+03</pdfrwt>
<totfact> 0.64831888E+04</totfact>
</mgrwt>
</event>
<event>
 7    0  0.4737014E-002  0.4487334E+03  0.7546771E-02  0.1028100E+00
         21   -1    0    0  502  501  0.00000000000E+00  0.00000000000E+00  0.13562069442E+03  0.13562069442E+03  0.00000000000E+00 0.  1.
         21   -1    0    0  501  502 -0.00000000000E+00 -0.00000000000E+00 -0.37118533852E+03  0.37118533852E+03  0.00000000000E+00 0.  1.
      99926    2    1    2    0    0  0.00000000000E+00  0.00000000000E+00 -0.23556464410E+03  0.50680603295E+03  0.44873338797E+03 0.  0.
      99925    2    3    3    0    0  0.36354300438E+02 -0.87427716768E+02 -0.93319581708E+02  0.29503633092E+03  0.26338688543E+03 0.  0.
         25    1    4    4    0    0 -0.10112198750E+02 -0.47658473475E+02 -0.14472884400E+02  0.13502058784E+03  0.12509000000E+03 0.  0.
         25    1    4    4    0    0  0.46466499188E+02 -0.39769243293E+02 -0.78846697308E+02  0.16001574309E+03  0.12509000000E+03 0.  0.
         25    1    3    3    0    0 -0.36354300438E+02  0.87427716768E+02 -0.14224506239E+03  0.21176970202E+03  0.12509000000E+03 0.  0.
<mgrwt>
<rscale>  2 0.44873339E+03</rscale>
<asrwt>0</asrwt>
<pdfrwt beam="1">  1       21 0.19944220E-01 0.44873339E+03</pdfrwt>
<pdfrwt beam="2">  1       21 0.54586078E-01 0.44873339E+03</pdfrwt>
<totfact> 0.68120425E+04</totfact>
</mgrwt>
</event>
<event>
 7    0  0.4737014E-002  0.4532518E+03  0.7546771E-02  0.1026757E+00
         21   -1    0    0  502  501  0.00000000000E+00  0.00000000000E+00  0.40340699479E+02  0.40340699479E+02  0.00000000000E+00 0. -1.
         21   -1    0    0  501  502 -0.00000000000E+00 -0.00000000000E+00 -0.12731387263E+04  0.12731387263E+04  0.00000000000E+00 0. -1.
      99926    2    1    2    0    0  0.00000000000E+00  0.00000000000E+00 -0.12327980268E+04  0.13134794258E+04  0.45325183619E+03 0.  0.
      99925    2    3    3    0    0 -0.45438244962E+02  0.91972352167E+02 -0.65071307407E+03  0.70933213580E+03  0.26306087973E+03 0.  0.
         25    1    4    4    0    0 -0.78112419174E+00  0.20101092531E+02 -0.36156739568E+03  0.38312289646E+03  0.12509000000E+03 0.  0.
         25    1    3    3    0    0  0.45438244962E+02 -0.91972352167E+02 -0.58208495276E+03  0.60414728998E+03  0.12509000000E+03 0.  0.
         25    1    4    4    0    0 -0.44657120771E+02  0.71871259637E+02 -0.28914567839E+03  0.32620923934E+03  0.12509000000E+03 0.  0.
<mgrwt>
<rscale>  2 0.45325184E+03</rscale>
<asrwt>0</asrwt>
<pdfrwt beam="1">  1       21 0.59324559E-02 0.45325184E+03</pdfrwt>
<pdfrwt beam="2">  1       21 0.18722628E+00 0.45325184E+03</pdfrwt>
<totfact> 0.29119572E+04</totfact>
</mgrwt>
</event>
<event>
 7    0  0.4737014E-002  0.4425836E+03  0.7546771E-02  0.1029957E+00
         21   -1    0    0  502  501  0.00000000000E+00  0.00000000000E+00  0.10466248617E+03  0.10466248617E+03  0.00000000000E+00 0.  1.
         21   -1    0    0  501  502 -0.00000000000E+00 -0.00000000000E+00 -0.46788559700E+03  0.46788559700E+03  0.00000000000E+00 0.  1.
      99926    2    1    2    0    0  0.71054273576E-14  0.71054273576E-14 -0.36322311083E+03  0.57254808317E+03  0.44258364102E+03 0.  0.
      99925    2    3    3    0    0  0.34106468649E+02  0.56902087610E+02 -0.13299092773E+03  0.30226033833E+03  0.26319883451E+03 0.  0.
         25    1    4    4    0    0 -0.39420228556E+01  0.64209281555E+01 -0.94386226507E+02  0.15688542226E+03  0.12509000000E+03 0.  0.
         25    1    3    3    0    0 -0.34106468649E+02 -0.56902087610E+02 -0.23023218310E+03  0.27028774485E+03  0.12509000000E+03 0.  0.
         25    1    4    4    0    0  0.38048491504E+02  0.50481159454E+02 -0.38604701226E+02  0.14537491607E+03  0.12509000000E+03 0.  0.
<mgrwt>
<rscale>  2 0.44258364E+03</rscale>
<asrwt>0</asrwt>
<pdfrwt beam="1">  1       21 0.15391542E-01 0.44258364E+03</pdfrwt>
<pdfrwt beam="2">  1       21 0.68806705E-01 0.44258364E+03</pdfrwt>
<totfact> 0.66713000E+04</totfact>
</mgrwt>
</event>
<event>
 7    0  0.4737014E-002  0.4585389E+03  0.7546771E-02  0.1025206E+00
         21   -1    0    0  502  501  0.00000000000E+00  0.00000000000E+00  0.67002850141E+02  0.67002850141E+02  0.00000000000E+00 0. -1.
         21   -1    0    0  501  502 -0.00000000000E+00 -0.00000000000E+00 -0.78451122359E+03  0.78451122359E+03  0.00000000000E+00 0. -1.
      99926    2    1    2    0    0 -0.35527136788E-14  0.00000000000E+00 -0.71750837345E+03  0.85151407373E+03  0.45853893160E+03 0.  0.
      99925    2    3    3    0    0  0.25954696069E+02 -0.75856768691E+02 -0.60694384459E+03  0.66631170132E+03  0.26298775110E+03 0.  0.
         25    1    3    3    0    0 -0.25954696069E+02  0.75856768691E+02 -0.11056452886E+03  0.18520237241E+03  0.12509000000E+03 0.  0.
         25    1    4    4    0    0 -0.14795976207E+02 -0.51038713496E+02 -0.36982961331E+03  0.39401182998E+03  0.12509000000E+03 0.  0.
         25    1    4    4    0    0  0.40750672276E+02 -0.24818055195E+02 -0.23711423128E+03  0.27229987134E+03  0.12509000000E+03 0.  0.
<mgrwt>
<rscale>  2 0.45853893E+03</rscale>
<asrwt>0</asrwt>
<pdfrwt beam="1">  1       21 0.98533602E-02 0.45853893E+03</pdfrwt>
<pdfrwt beam="2">  1       21 0.11536930E+00 0.45853893E+03</pdfrwt>
<totfact> 0.44133705E+04</totfact>
</mgrwt>
</event>
<event>
 7    0  0.4737014E-002  0.4780380E+03  0.7546771E-02  0.1019676E+00
         21   -1    0    0  502  501  0.00000000000E+00  0.00000000000E+00  0.10827956289E+04  0.10827956289E+04  0.00000000000E+00 0. -1.
         21   -1    0    0  501  502 -0.00000000000E+00 -0.00000000000E+00 -0.52761642849E+02  0.52761642849E+02  0.00000000000E+00 0. -1.
      99926    2    1    2    0    0  0.17763568394E-14  0.00000000000E+00  0.10300339861E+04  0.11355572718E+04  0.47803797444E+03 0.  0.
      99925    2    3    3    0    0 -0.81644907355E+01  0.11761504282E+03  0.78493765381E+03  0.83619181385E+03  0.26303929740E+03 0.  0.
         25    1    4    4    0    0 -0.42700454509E+02  0.45562374166E+02  0.37695871266E+03  0.40205054148E+03  0.12509000000E+03 0.  0.
         25    1    3    3    0    0  0.81644907355E+01 -0.11761504282E+03  0.24509633225E+03  0.29936545791E+03  0.12509000000E+03 0.  0.
         25    1    4    4    0    0  0.34535963773E+02  0.72052668652E+02  0.40797894115E+03  0.43414127237E+03  0.12509000000E+03 0.  0.
<mgrwt>
<rscale>  2 0.47803797E+03</rscale>
<asrwt>0</asrwt>
<pdfrwt beam="1">  1       21 0.15923464E+00 0.47803797E+03</pdfrwt>
<pdfrwt beam="2">  1       21 0.77590658E-02 0.47803797E+03</pdfrwt>
<totfact> 0.28748121E+04</totfact>
</mgrwt>
</event>
<event>
 7    0  0.4737014E-002  0.4583471E+03  0.7546771E-02  0.1025262E+00
         21   -1    0    0  502  501  0.00000000000E+00  0.00000000000E+00  0.73862950588E+02  0.73862950588E+02  0.00000000000E+00 0. -1.
         21   -1    0    0  501  502 -0.00000000000E+00 -0.00000000000E+00 -0.71105344418E+03  0.71105344418E+03  0.00000000000E+00 0. -1.
      99926    2    1    2    0    0 -0.88817841970E-15  0.00000000000E+00 -0.63719049359E+03  0.78491639477E+03  0.45834705372E+03 0.  0.
      99925    2    3    3    0    0  0.56554926869E+01 -0.73574521110E+02 -0.24586158262E+03  0.36750650100E+03  0.26299793861E+03 0.  0.
         25    1    3    3    0    0 -0.56554926869E+01  0.73574521110E+02 -0.39132891097E+03  0.41740989377E+03  0.12509000000E+03 0.  0.
         25    1    4    4    0    0 -0.96299767007E+00 -0.78633799723E+02 -0.13023157932E+03  0.19695678250E+03  0.12509000000E+03 0.  0.
         25    1    4    4    0    0  0.66184903570E+01  0.50592786130E+01 -0.11563000331E+03  0.17054971850E+03  0.12509000000E+03 0.  0.
<mgrwt>
<rscale>  2 0.45834705E+03</rscale>
<asrwt>0</asrwt>
<pdfrwt beam="1">  1       21 0.10862200E-01 0.45834705E+03</pdfrwt>
<pdfrwt beam="2">  1       21 0.10456667E+00 0.45834705E+03</pdfrwt>
<totfact> 0.47249537E+04</totfact>
</mgrwt>
</event>
<event>
 7    0  0.4737014E-002  0.4520363E+03  0.7546771E-02  0.1027117E+00
         21   -1    0    0  502  501  0.00000000000E+00  0.00000000000E+00  0.35729207393E+03  0.35729207393E+03  0.00000000000E+00 0.  1.
         21   -1    0    0  501  502 -0.00000000000E+00 -0.00000000000E+00 -0.14297602919E+03  0.14297602919E+03  0.00000000000E+00 0.  1.
      99926    2    1    2    0    0  0.00000000000E+00  0.00000000000E+00  0.21431604474E+03  0.50026810312E+03  0.45203629054E+03 0.  0.
      99925    2    3    3    0    0 -0.36879447667E+02 -0.43810979158E+02  0.30826994060E+02  0.27093159191E+03  0.26300974959E+03 0.  0.
         25    1    3    3    0    0  0.36879447667E+02  0.43810979158E+02  0.18348905068E+03  0.22933651121E+03  0.12509000000E+03 0.  0.
         25    1    4    4    0    0 -0.39430742807E+02 -0.57454351410E+02  0.20519985092E+02  0.14465256258E+03  0.12509000000E+03 0.  0.
         25    1    4    4    0    0  0.25512951402E+01  0.13643372252E+02  0.10307008969E+02  0.12627902932E+03  0.12509000000E+03 0.  0.
<mgrwt>
<rscale>  2 0.45203629E+03</rscale>
<asrwt>0</asrwt>
<pdfrwt beam="1">  1       21 0.52542952E-01 0.45203629E+03</pdfrwt>
<pdfrwt beam="2">  1       21 0.21025887E-01 0.45203629E+03</pdfrwt>
<totfact> 0.66809769E+04</totfact>
</mgrwt>
</event>
<event>
 7    0  0.4737014E-002  0.4489768E+03  0.7546771E-02  0.1028028E+00
         21   -1    0    0  502  501  0.00000000000E+00  0.00000000000E+00  0.25435875387E+03  0.25435875387E+03  0.00000000000E+00 0. -1.
         21   -1    0    0  501  502 -0.00000000000E+00 -0.00000000000E+00 -0.19812584447E+03  0.19812584447E+03  0.00000000000E+00 0. -1.
      99926    2    1    2    0    0  0.00000000000E+00  0.71054273576E-14  0.56232909395E+02  0.45248459834E+03  0.44897680523E+03 0.  0.
      99925    2    3    3    0    0  0.28899967412E+02  0.63857065094E+02  0.11761746058E+03  0.29650862551E+03  0.26300297544E+03 0.  0.
         25    1    4    4    0    0 -0.16309304816E+01  0.51697946700E+02  0.94598075326E+02  0.16514127765E+03  0.12509000000E+03 0.  0.
         25    1    3    3    0    0 -0.28899967412E+02 -0.63857065094E+02 -0.61384551183E+02  0.15597597284E+03  0.12509000000E+03 0.  0.
         25    1    4    4    0    0  0.30530897893E+02  0.12159118393E+02  0.23019385252E+02  0.13136734786E+03  0.12509000000E+03 0.  0.
<mgrwt>
<rscale>  2 0.44897681E+03</rscale>
<asrwt>0</asrwt>
<pdfrwt beam="1">  1       21 0.37405699E-01 0.44897681E+03</pdfrwt>
<pdfrwt beam="2">  1       21 0.29136154E-01 0.44897681E+03</pdfrwt>
<totfact> 0.72134919E+04</totfact>
</mgrwt>
</event>
<event>
 7    0  0.4737014E-002  0.4713215E+03  0.7546771E-02  0.1021548E+00
         21   -1    0    0  502  501  0.00000000000E+00  0.00000000000E+00  0.73121211265E+03  0.73121211265E+03  0.00000000000E+00 0. -1.
         21   -1    0    0  501  502 -0.00000000000E+00 -0.00000000000E+00 -0.75950574795E+02  0.75950574795E+02  0.00000000000E+00 0. -1.
      99926    2    1    2    0    0  0.00000000000E+00  0.00000000000E+00  0.65526153786E+03  0.80716268745E+03  0.47132146250E+03 0.  0.
      99925    2    3    3    0    0  0.44587733356E+02 -0.18013932142E+02  0.60948605540E+03  0.66554534878E+03  0.26299199958E+03 0.  0.
         25    1    3    3    0    0 -0.44587733356E+02  0.18013932142E+02  0.45775482461E+02  0.14161733867E+03  0.12509000000E+03 0.  0.
         25    1    4    4    0    0  0.35989842915E+02 -0.40100858901E+02  0.25859306033E+03  0.29226909968E+03  0.12509000000E+03 0.  0.
         25    1    4    4    0    0  0.85978904413E+01  0.22086926759E+02  0.35089299507E+03  0.37327624910E+03  0.12509000000E+03 0.  0.
<mgrwt>
<rscale>  2 0.47132146E+03</rscale>
<asrwt>0</asrwt>
<pdfrwt beam="1">  1       21 0.10753119E+00 0.47132146E+03</pdfrwt>
<pdfrwt beam="2">  1       21 0.11169203E-01 0.47132146E+03</pdfrwt>
<totfact> 0.41803368E+04</totfact>
</mgrwt>
</event>
<event>
 7    0  0.4737014E-002  0.4628069E+03  0.7546771E-02  0.1023970E+00
         21   -1    0    0  502  501  0.00000000000E+00  0.00000000000E+00  0.35553113521E+02  0.35553113521E+02  0.00000000000E+00 0. -1.
         21   -1    0    0  501  502 -0.00000000000E+00 -0.00000000000E+00 -0.15061282633E+04  0.15061282633E+04  0.00000000000E+00 0. -1.
      99926    2    1    2    0    0  0.00000000000E+00  0.00000000000E+00 -0.14705751498E+04  0.15416813769E+04  0.46280686738E+03 0.  0.
      99925    2    3    3    0    0 -0.24873562515E+02  0.40955124402E+02 -0.12867452075E+04  0.13142237498E+04  0.26301106271E+03 0.  0.
         25    1    3    3    0    0  0.24873562515E+02 -0.40955124402E+02 -0.18382994229E+03  0.22745762707E+03  0.12509000000E+03 0.  0.
         25    1    4    4    0    0  0.31442732867E+00  0.58988808256E+02 -0.64263540873E+03  0.65734888379E+03  0.12509000000E+03 0.  0.
         25    1    4    4    0    0 -0.25187989844E+02 -0.18033683854E+02 -0.64410979880E+03  0.65687486601E+03  0.12509000000E+03 0.  0.
<mgrwt>
<rscale>  2 0.46280687E+03</rscale>
<asrwt>0</asrwt>
<pdfrwt beam="1">  1       21 0.52284007E-02 0.46280687E+03</pdfrwt>
<pdfrwt beam="2">  1       21 0.22148938E+00 0.46280687E+03</pdfrwt>
<totfact> 0.21445796E+04</totfact>
</mgrwt>
</event>
<event>
 7    0  0.4737014E-002  0.4519453E+03  0.7546771E-02  0.1027144E+00
         21   -1    0    0  502  501  0.00000000000E+00  0.00000000000E+00  0.43360163173E+03  0.43360163173E+03  0.00000000000E+00 0.  1.
         21   -1    0    0  501  502 -0.00000000000E+00 -0.00000000000E+00 -0.11776623430E+03  0.11776623430E+03  0.00000000000E+00 0.  1.
      99926    2    1    2    0    0 -0.35527136788E-14  0.00000000000E+00  0.31583539742E+03  0.55136786603E+03  0.45194526817E+03 0.  0.
      99925    2    3    3    0    0  0.14129953927E+02  0.83071038864E+01  0.66283938140E+02  0.27173935800E+03  0.26302101562E+03 0.  0.
         25    1    4    4    0    0 -0.33262157450E+02  0.91606360972E+01  0.32206966346E+02  0.13369773803E+03  0.12509000000E+03 0.  0.
         25    1    3    3    0    0 -0.14129953927E+02 -0.83071038864E+01  0.24955145928E+03  0.27962850803E+03  0.12509000000E+03 0.  0.
         25    1    4    4    0    0  0.47392111377E+02 -0.85353221073E+00  0.34076971794E+02  0.13804161997E+03  0.12509000000E+03 0.  0.
<mgrwt>
<rscale>  2 0.45194527E+03</rscale>
<asrwt>0</asrwt>
<pdfrwt beam="1">  1       21 0.63764945E-01 0.45194527E+03</pdfrwt>
<pdfrwt beam="2">  1       21 0.17318564E-01 0.45194527E+03</pdfrwt>
<totfact> 0.63292026E+04</totfact>
</mgrwt>
</event>
<event>
 7    0  0.4737014E-002  0.4564742E+03  0.7546771E-02  0.1025809E+00
         21   -1    0    0  502  501  0.00000000000E+00  0.00000000000E+00  0.61175726190E+02  0.61175726190E+02  0.00000000000E+00 0.  1.
         21   -1    0    0  501  502 -0.00000000000E+00 -0.00000000000E+00 -0.85151719169E+03  0.85151719169E+03  0.00000000000E+00 0.  1.
      99926    2    1    2    0    0  0.17763568394E-14  0.00000000000E+00 -0.79034146550E+03  0.91269291788E+03  0.45647423833E+03 0.  0.
      99925    2    3    3    0    0 -0.13685588332E+02  0.10207237689E+03 -0.39669186469E+03  0.48700103192E+03  0.26305798625E+03 0.  0.
         25    1    3    3    0    0  0.13685588332E+02 -0.10207237689E+03 -0.39364960081E+03  0.42569188596E+03  0.12509000000E+03 0.  0.
         25    1    4    4    0    0  0.18132727924E+01  0.99707330103E+01 -0.15773672124E+03  0.20157153768E+03  0.12509000000E+03 0.  0.
         25    1    4    4    0    0 -0.15498861124E+02  0.92101643883E+02 -0.23895514345E+03  0.28542949424E+03  0.12509000000E+03 0.  0.
<mgrwt>
<rscale>  2 0.45647424E+03</rscale>
<asrwt>0</asrwt>
<pdfrwt beam="1">  1       21 0.89964307E-02 0.45647424E+03</pdfrwt>
<pdfrwt beam="2">  1       21 0.12522311E+00 0.45647424E+03</pdfrwt>
<totfact> 0.42200392E+04</totfact>
</mgrwt>
</event>
<event>
 7    0  0.4737014E-002  0.4515330E+03  0.7546771E-02  0.1027266E+00
         21   -1    0    0  502  501  0.00000000000E+00  0.00000000000E+00  0.38174821259E+03  0.38174821259E+03  0.00000000000E+00 0. -1.
         21   -1    0    0  501  502 -0.00000000000E+00 -0.00000000000E+00 -0.13351869577E+03  0.13351869577E+03  0.00000000000E+00 0. -1.
      99926    2    1    2    0    0 -0.14210854715E-13  0.00000000000E+00  0.24822951682E+03  0.51526690836E+03  0.45153304843E+03 0.  0.
      99925    2    3    3    0    0  0.10068320005E+03 -0.43143436885E+02  0.16653629356E+03  0.33001099416E+03  0.26301037294E+03 0.  0.
         25    1    4    4    0    0  0.99861189143E+01 -0.22430826173E+02  0.92051000012E+02  0.15723790649E+03  0.12509000000E+03 0.  0.
         25    1    3    3    0    0 -0.10068320005E+03  0.43143436885E+02  0.81693223263E+02  0.18525591420E+03  0.12509000000E+03 0.  0.
         25    1    4    4    0    0  0.90697081133E+02 -0.20712610711E+02  0.74485293549E+02  0.17277308767E+03  0.12509000000E+03 0.  0.
<mgrwt>
<rscale>  2 0.45153305E+03</rscale>
<asrwt>0</asrwt>
<pdfrwt beam="1">  1       21 0.56139443E-01 0.45153305E+03</pdfrwt>
<pdfrwt beam="2">  1       21 0.19635102E-01 0.45153305E+03</pdfrwt>
<totfact> 0.66008064E+04</totfact>
</mgrwt>
</event>
<event>
 7    0  0.4737014E-002  0.4494228E+03  0.7546771E-02  0.1027894E+00
         21   -1    0    0  502  501  0.00000000000E+00  0.00000000000E+00  0.45021351473E+03  0.45021351473E+03  0.00000000000E+00 0. -1.
         21   -1    0    0  501  502 -0.00000000000E+00 -0.00000000000E+00 -0.11215836414E+03  0.11215836414E+03  0.00000000000E+00 0. -1.
      99926    2    1    2    0    0  0.00000000000E+00  0.00000000000E+00  0.33805515059E+03  0.56237187886E+03  0.44942279125E+03 0.  0.
      99925    2    3    3    0    0  0.17662341223E+02 -0.81341900187E+02  0.12778875113E+03  0.30393827063E+03  0.26290691207E+03 0.  0.
         25    1    3    3    0    0 -0.17662341223E+02  0.81341900187E+02  0.21026639946E+03  0.25843360824E+03  0.12509000000E+03 0.  0.
         25    1    4    4    0    0 -0.24684128921E+02 -0.16724137944E+02  0.64629172255E+02  0.14392164888E+03  0.12509000000E+03 0.  0.
         25    1    4    4    0    0  0.42346470145E+02 -0.64617762243E+02  0.63159578874E+02  0.16001662174E+03  0.12509000000E+03 0.  0.
<mgrwt>
<rscale>  2 0.44942279E+03</rscale>
<asrwt>0</asrwt>
<pdfrwt beam="1">  1       21 0.66207869E-01 0.44942279E+03</pdfrwt>
<pdfrwt beam="2">  1       21 0.16493877E-01 0.44942279E+03</pdfrwt>
<totfact> 0.63825506E+04</totfact>
</mgrwt>
</event>
<event>
 7    0  0.4737014E-002  0.4574186E+03  0.7546771E-02  0.1025533E+00
         21   -1    0    0  502  501  0.00000000000E+00  0.00000000000E+00  0.16503218854E+02  0.16503218854E+02  0.00000000000E+00 0.  1.
         21   -1    0    0  501  502 -0.00000000000E+00 -0.00000000000E+00 -0.31695605697E+04  0.31695605697E+04  0.00000000000E+00 0.  1.
      99926    2    1    2    0    0  0.00000000000E+00  0.00000000000E+00 -0.31530573509E+04  0.31860637886E+04  0.45741863431E+03 0.  0.
      99925    2    3    3    0    0  0.13417035924E+02 -0.19454120022E+02 -0.11923639440E+04  0.12212420095E+04  0.26294826718E+03 0.  0.
         25    1    4    4    0    0  0.19021832499E+02  0.28832041826E+02 -0.57644352525E+03  0.59087034335E+03  0.12509000000E+03 0.  0.
         25    1    4    4    0    0 -0.56047965750E+01 -0.48286161848E+02 -0.61592041874E+03  0.63037166615E+03  0.12509000000E+03 0.  0.
         25    1    3    3    0    0 -0.13417035924E+02  0.19454120022E+02 -0.19606934069E+04  0.19648217791E+04  0.12509000000E+03 0.  0.
<mgrwt>
<rscale>  2 0.45741863E+03</rscale>
<asrwt>0</asrwt>
<pdfrwt beam="1">  1       21 0.24269418E-02 0.45741863E+03</pdfrwt>
<pdfrwt beam="2">  1       21 0.46611227E+00 0.45741863E+03</pdfrwt>
<totfact> 0.22947255E+03</totfact>
</mgrwt>
</event>
<event>
 7    0  0.4737014E-002  0.4536634E+03  0.7546771E-02  0.1026635E+00
         21   -1    0    0  502  501  0.00000000000E+00  0.00000000000E+00  0.42768412387E+03  0.42768412387E+03  0.00000000000E+00 0. -1.
         21   -1    0    0  501  502 -0.00000000000E+00 -0.00000000000E+00 -0.12030519103E+03  0.12030519103E+03  0.00000000000E+00 0. -1.
      99926    2    1    2    0    0  0.00000000000E+00  0.00000000000E+00  0.30737893284E+03  0.54798931490E+03  0.45366340043E+03 0.  0.
      99925    2    3    3    0    0  0.22122802161E+02 -0.19698008974E+02  0.63590495852E+02  0.27238499700E+03  0.26319651498E+03 0.  0.
         25    1    3    3    0    0 -0.22122802161E+02  0.19698008974E+02  0.24378843699E+03  0.27560431789E+03  0.12509000000E+03 0.  0.
         25    1    4    4    0    0 -0.32451451973E+01 -0.43210887182E+02  0.51468798928E+02  0.14203611196E+03  0.12509000000E+03 0.  0.
         25    1    4    4    0    0  0.25367947359E+02  0.23512878208E+02  0.12121696924E+02  0.13034888504E+03  0.12509000000E+03 0.  0.
<mgrwt>
<rscale>  2 0.45366340E+03</rscale>
<asrwt>0</asrwt>
<pdfrwt beam="1">  1       21 0.62894724E-01 0.45366340E+03</pdfrwt>
<pdfrwt beam="2">  1       21 0.17691940E-01 0.45366340E+03</pdfrwt>
<totfact> 0.62659611E+04</totfact>
</mgrwt>
</event>
<event>
 7    0  0.4737014E-002  0.4601157E+03  0.7546771E-02  0.1024748E+00
         21   -1    0    0  502  501  0.00000000000E+00  0.00000000000E+00  0.36443344517E+02  0.36443344517E+02  0.00000000000E+00 0.  1.
         21   -1    0    0  501  502 -0.00000000000E+00 -0.00000000000E+00 -0.14522982685E+04  0.14522982685E+04  0.00000000000E+00 0.  1.
      99926    2    1    2    0    0  0.00000000000E+00  0.00000000000E+00 -0.14158549240E+04  0.14887416131E+04  0.46011566434E+03 0.  0.
      99925    2    3    3    0    0 -0.78298934570E+02 -0.12422344325E+02 -0.11692510907E+04  0.12010855746E+04  0.26300837710E+03 0.  0.
         25    1    4    4    0    0 -0.31204181775E+02 -0.15160001114E+02 -0.74639437326E+03  0.75759857123E+03  0.12509000000E+03 0.  0.
         25    1    3    3    0    0  0.78298934570E+02  0.12422344325E+02 -0.24660383327E+03  0.28765603849E+03  0.12509000000E+03 0.  0.
         25    1    4    4    0    0 -0.47094752795E+02  0.27376567893E+01 -0.42285671749E+03  0.44348700334E+03  0.12509000000E+03 0.  0.
<mgrwt>
<rscale>  2 0.46011566E+03</rscale>
<asrwt>0</asrwt>
<pdfrwt beam="1">  1       21 0.53593137E-02 0.46011566E+03</pdfrwt>
<pdfrwt beam="2">  1       21 0.21357334E+00 0.46011566E+03</pdfrwt>
<totfact> 0.23123805E+04</totfact>
</mgrwt>
</event>
<event>
 7    0  0.4737014E-002  0.4553237E+03  0.7546771E-02  0.1026146E+00
         21   -1    0    0  502  501  0.00000000000E+00  0.00000000000E+00  0.17892798816E+04  0.17892798816E+04  0.00000000000E+00 0.  1.
         21   -1    0    0  501  502 -0.00000000000E+00 -0.00000000000E+00 -0.28966909832E+02  0.28966909832E+02  0.00000000000E+00 0.  1.
      99926    2    1    2    0    0  0.00000000000E+00  0.14210854715E-13  0.17603129718E+04  0.18182467914E+04  0.45532366068E+03 0.  0.
      99925    2    3    3    0    0  0.19006772124E+02  0.95522841668E+02  0.87393529150E+03  0.91780313920E+03  0.26289510823E+03 0.  0.
         25    1    4    4    0    0  0.37932295138E+01  0.18334102949E+02  0.30957889702E+03  0.33442058774E+03  0.12509000000E+03 0.  0.
         25    1    3    3    0    0 -0.19006772124E+02 -0.95522841668E+02  0.88637768026E+03  0.90044365222E+03  0.12509000000E+03 0.  0.
         25    1    4    4    0    0  0.15213542610E+02  0.77188738720E+02  0.56435639448E+03  0.58338255147E+03  0.12509000000E+03 0.  0.
<mgrwt>
<rscale>  2 0.45532366E+03</rscale>
<asrwt>0</asrwt>
<pdfrwt beam="1">  1       21 0.26312932E+00 0.45532366E+03</pdfrwt>
<pdfrwt beam="2">  1       21 0.42598409E-02 0.45532366E+03</pdfrwt>
<totfact> 0.16869077E+04</totfact>
</mgrwt>
</event>
<event>
 7    0  0.4737014E-002  0.4592683E+03  0.7546771E-02  0.1024994E+00
         21   -1    0    0  502  501  0.00000000000E+00  0.00000000000E+00  0.17326148990E+03  0.17326148990E+03  0.00000000000E+00 0.  1.
         21   -1    0    0  501  502 -0.00000000000E+00 -0.00000000000E+00 -0.30434829915E+03  0.30434829915E+03  0.00000000000E+00 0.  1.
      99926    2    1    2    0    0  0.00000000000E+00  0.00000000000E+00 -0.13108680925E+03  0.47760978905E+03  0.45926828656E+03 0.  0.
      99925    2    3    3    0    0  0.79614727302E+02  0.26532784448E+02  0.29700204362E+01  0.27596347706E+03  0.26287739765E+03 0.  0.
         25    1    3    3    0    0 -0.79614727302E+02 -0.26532784448E+02 -0.13405682969E+03  0.20164631199E+03  0.12509000000E+03 0.  0.
         25    1    4    4    0    0  0.19168930800E+02  0.14278959903E+02  0.36580215927E+02  0.13250266752E+03  0.12509000000E+03 0.  0.
         25    1    4    4    0    0  0.60445796502E+02  0.12253824545E+02 -0.33610195491E+02  0.14346080953E+03  0.12509000000E+03 0.  0.
<mgrwt>
<rscale>  2 0.45926829E+03</rscale>
<asrwt>0</asrwt>
<pdfrwt beam="1">  1       21 0.25479631E-01 0.45926829E+03</pdfrwt>
<pdfrwt beam="2">  1       21 0.44757102E-01 0.45926829E+03</pdfrwt>
<totfact> 0.64656525E+04</totfact>
</mgrwt>
</event>
<event>
 7    0  0.4737014E-002  0.4555710E+03  0.7546771E-02  0.1026074E+00
         21   -1    0    0  502  501  0.00000000000E+00  0.00000000000E+00  0.19454089371E+03  0.19454089371E+03  0.00000000000E+00 0.  1.
         21   -1    0    0  501  502 -0.00000000000E+00 -0.00000000000E+00 -0.26671122134E+03  0.26671122134E+03  0.00000000000E+00 0.  1.
      99926    2    1    2    0    0  0.00000000000E+00  0.00000000000E+00 -0.72170327631E+02  0.46125211504E+03  0.45557102349E+03 0.  0.
      99925    2    3    3    0    0  0.69428663662E+02  0.82530309178E+02 -0.88368298151E+01  0.28436166500E+03  0.26296744226E+03 0.  0.
         25    1    4    4    0    0  0.50338130284E+02  0.70256206056E+02 -0.31374071317E+02  0.15524722961E+03  0.12509000000E+03 0.  0.
         25    1    3    3    0    0 -0.69428663662E+02 -0.82530309178E+02 -0.63333497816E+02  0.17689045004E+03  0.12509000000E+03 0.  0.
         25    1    4    4    0    0  0.19090533378E+02  0.12274103123E+02  0.22537241502E+02  0.12911443539E+03  0.12509000000E+03 0.  0.
<mgrwt>
<rscale>  2 0.45557102E+03</rscale>
<asrwt>0</asrwt>
<pdfrwt beam="1">  1       21 0.28608955E-01 0.45557102E+03</pdfrwt>
<pdfrwt beam="2">  1       21 0.39222238E-01 0.45557102E+03</pdfrwt>
<totfact> 0.67780210E+04</totfact>
</mgrwt>
</event>
<event>
 7    0  0.4737014E-002  0.4488982E+03  0.7546771E-02  0.1028051E+00
         21   -1    0    0  502  501  0.00000000000E+00  0.00000000000E+00  0.16056085371E+03  0.16056085371E+03  0.00000000000E+00 0. -1.
         21   -1    0    0  501  502 -0.00000000000E+00 -0.00000000000E+00 -0.31375893223E+03  0.31375893223E+03  0.00000000000E+00 0. -1.
      99926    2    1    2    0    0  0.00000000000E+00  0.00000000000E+00 -0.15319807852E+03  0.47431978594E+03  0.44889821572E+03 0.  0.
      99925    2    3    3    0    0 -0.26069610513E+02 -0.81698877496E+02 -0.16545939614E+03  0.32216138432E+03  0.26278663321E+03 0.  0.
         25    1    3    3    0    0  0.26069610513E+02  0.81698877496E+02  0.12261317622E+02  0.15215840163E+03  0.12509000000E+03 0.  0.
         25    1    4    4    0    0 -0.42502280804E+02 -0.25793713454E+02 -0.10842033283E+03  0.17284165065E+03  0.12509000000E+03 0.  0.
         25    1    4    4    0    0  0.16432670292E+02 -0.55905164042E+02 -0.57039063313E+02  0.14931973367E+03  0.12509000000E+03 0.  0.
<mgrwt>
<rscale>  2 0.44889822E+03</rscale>
<asrwt>0</asrwt>
<pdfrwt beam="1">  1       21 0.23611891E-01 0.44889822E+03</pdfrwt>
<pdfrwt beam="2">  1       21 0.46141019E-01 0.44889822E+03</pdfrwt>
<totfact> 0.70467260E+04</totfact>
</mgrwt>
</event>
<event>
 7    0  0.4737014E-002  0.4599162E+03  0.7546771E-02  0.1024806E+00
         21   -1    0    0  502  501  0.00000000000E+00  0.00000000000E+00  0.86280145378E+03  0.86280145378E+03  0.00000000000E+00 0.  1.
         21   -1    0    0  501  502 -0.00000000000E+00 -0.00000000000E+00 -0.61289561774E+02  0.61289561774E+02  0.00000000000E+00 0.  1.
      99926    2    1    2    0    0  0.14210854715E-13  0.00000000000E+00  0.80151189201E+03  0.92409101556E+03  0.45991617932E+03 0.  0.
      99925    2    3    3    0    0 -0.11748632322E+03 -0.68708959311E+01  0.50458770284E+03  0.58107246275E+03  0.26303271994E+03 0.  0.
         25    1    3    3    0    0  0.11748632322E+03  0.68708959311E+01  0.29692418917E+03  0.34301855280E+03  0.12509000000E+03 0.  0.
         25    1    4    4    0    0 -0.34500071155E+02 -0.41537984929E+01  0.16639133326E+03  0.21104760798E+03  0.12509000000E+03 0.  0.
         25    1    4    4    0    0 -0.82986252062E+02 -0.27170974383E+01  0.33819636958E+03  0.37002485477E+03  0.12509000000E+03 0.  0.
<mgrwt>
<rscale>  2 0.45991618E+03</rscale>
<asrwt>0</asrwt>
<pdfrwt beam="1">  1       21 0.12688256E+00 0.45991618E+03</pdfrwt>
<pdfrwt beam="2">  1       21 0.90131714E-02 0.45991618E+03</pdfrwt>
<totfact> 0.40622840E+04</totfact>
</mgrwt>
</event>
<event>
 7    0  0.4737014E-002  0.4511667E+03  0.7546771E-02  0.1027375E+00
         21   -1    0    0  502  501  0.00000000000E+00  0.00000000000E+00  0.15765728635E+03  0.15765728635E+03  0.00000000000E+00 0.  1.
         21   -1    0    0  501  502 -0.00000000000E+00 -0.00000000000E+00 -0.32277512772E+03  0.32277512772E+03  0.00000000000E+00 0.  1.
      99926    2    1    2    0    0  0.00000000000E+00  0.00000000000E+00 -0.16511784137E+03  0.48043241406E+03  0.45116671303E+03 0.  0.
      99925    2    3    3    0    0  0.58316293745E+02  0.65926206382E+02 -0.35100938500E+02  0.27968641053E+03  0.26314512639E+03 0.  0.
         25    1    3    3    0    0 -0.58316293745E+02 -0.65926206382E+02 -0.13001690287E+03  0.20074600354E+03  0.12509000000E+03 0.  0.
         25    1    4    4    0    0  0.42677103229E+02  0.70895663981E+01 -0.46041109596E+02  0.14013882033E+03  0.12509000000E+03 0.  0.
         25    1    4    4    0    0  0.15639190516E+02  0.58836639984E+02  0.10940171096E+02  0.13954759019E+03  0.12509000000E+03 0.  0.
<mgrwt>
<rscale>  2 0.45116671E+03</rscale>
<asrwt>0</asrwt>
<pdfrwt beam="1">  1       21 0.23184895E-01 0.45116671E+03</pdfrwt>
<pdfrwt beam="2">  1       21 0.47466930E-01 0.45116671E+03</pdfrwt>
<totfact> 0.68736505E+04</totfact>
</mgrwt>
</event>
<event>
 7    0  0.4737014E-002  0.4523303E+03  0.7546771E-02  0.1027029E+00
         21   -1    0    0  502  501  0.00000000000E+00  0.00000000000E+00  0.43335053424E+03  0.43335053424E+03  0.00000000000E+00 0.  1.
         21   -1    0    0  501  502 -0.00000000000E+00 -0.00000000000E+00 -0.11803535391E+03  0.11803535391E+03  0.00000000000E+00 0.  1.
      99926    2    1    2    0    0  0.14210854715E-13  0.00000000000E+00  0.31531518033E+03  0.55138588815E+03  0.45233033803E+03 0.  0.
      99925    2    3    3    0    0  0.10261642220E+03 -0.21941255303E+02  0.24214963701E+03  0.37246620332E+03  0.26283659776E+03 0.  0.
         25    1    4    4    0    0  0.62156825747E+02 -0.22911351956E+02  0.17423989361E+03  0.22448930857E+03  0.12509000000E+03 0.  0.
         25    1    4    4    0    0  0.40459596456E+02  0.97009665331E+00  0.67909743402E+02  0.14797689476E+03  0.12509000000E+03 0.  0.
         25    1    3    3    0    0 -0.10261642220E+03  0.21941255303E+02  0.73165543320E+02  0.17891968483E+03  0.12509000000E+03 0.  0.
<mgrwt>
<rscale>  2 0.45233034E+03</rscale>
<asrwt>0</asrwt>
<pdfrwt beam="1">  1       21 0.63728019E-01 0.45233034E+03</pdfrwt>
<pdfrwt beam="2">  1       21 0.17358140E-01 0.45233034E+03</pdfrwt>
<totfact> 0.63097193E+04</totfact>
</mgrwt>
</event>
<event>
 7    0  0.4737014E-002  0.4521642E+03  0.7546771E-02  0.1027079E+00
         21   -1    0    0  502  501  0.00000000000E+00  0.00000000000E+00  0.75199677151E+02  0.75199677151E+02  0.00000000000E+00 0. -1.
         21   -1    0    0  501  502 -0.00000000000E+00 -0.00000000000E+00 -0.67969855616E+03  0.67969855616E+03  0.00000000000E+00 0. -1.
      99926    2    1    2    0    0  0.17763568394E-14 -0.14210854715E-13 -0.60449887901E+03  0.75489823331E+03  0.45216418250E+03 0.  0.
      99925    2    3    3    0    0  0.15738884321E+02  0.10923018457E+03 -0.37305328315E+03  0.46960274150E+03  0.26301908117E+03 0.  0.
         25    1    4    4    0    0  0.32782448154E+02  0.21839058761E+02 -0.18637870697E+03  0.22789507214E+03  0.12509000000E+03 0.  0.
         25    1    4    4    0    0 -0.17043563833E+02  0.87391125808E+02 -0.18667457618E+03  0.24170766937E+03  0.12509000000E+03 0.  0.
         25    1    3    3    0    0 -0.15738884321E+02 -0.10923018457E+03 -0.23144559586E+03  0.28529549180E+03  0.12509000000E+03 0.  0.
<mgrwt>
<rscale>  2 0.45216418E+03</rscale>
<asrwt>0</asrwt>
<pdfrwt beam="1">  1       21 0.11058776E-01 0.45216418E+03</pdfrwt>
<pdfrwt beam="2">  1       21 0.99955668E-01 0.45216418E+03</pdfrwt>
<totfact> 0.51152100E+04</totfact>
</mgrwt>
</event>
<event>
 6    0  0.4737014E-002  0.4536997E+03  0.7546771E-02  0.1026624E+00
         21   -1    0    0  502  501  0.00000000000E+00  0.00000000000E+00  0.37816725655E+03  0.37816725655E+03  0.00000000000E+00 0. -1.
         21   -1    0    0  501  502 -0.00000000000E+00 -0.00000000000E+00 -0.13607963554E+03  0.13607963554E+03  0.00000000000E+00 0. -1.
      99926    2    1    2    0    0  0.00000000000E+00  0.00000000000E+00  0.24208762101E+03  0.51424689209E+03  0.45369973526E+03 0.  0.
         25    1    3    3    0    0 -0.78640852344E+01  0.13346871202E+02  0.76203217881E+02  0.14729026215E+03  0.12509000000E+03 0.  0.
         25    1    3    3    0    0 -0.24639722630E+02 -0.85364584887E+02  0.15578682281E+03  0.21865788471E+03  0.12509000000E+03 0.  0.
         25    1    3    3    0    0  0.32503807864E+02  0.72017713685E+02  0.10097580316E+02  0.14829874524E+03  0.12509000000E+03 0.  0.
<mgrwt>
<rscale>  2 0.45369974E+03</rscale>
<asrwt>0</asrwt>
<pdfrwt beam="1">  1       21 0.55612832E-01 0.45369974E+03</pdfrwt>
<pdfrwt beam="2">  1       21 0.20011711E-01 0.45369974E+03</pdfrwt>
<totfact> 0.64948462E+04</totfact>
</mgrwt>
</event>
<event>
 7    0  0.4737014E-002  0.4568282E+03  0.7546771E-02  0.1025705E+00
         21   -1    0    0  502  501  0.00000000000E+00  0.00000000000E+00  0.17864944561E+03  0.17864944561E+03  0.00000000000E+00 0. -1.
         21   -1    0    0  501  502 -0.00000000000E+00 -0.00000000000E+00 -0.29204127585E+03  0.29204127585E+03  0.00000000000E+00 0. -1.
      99926    2    1    2    0    0  0.00000000000E+00 -0.17763568394E-14 -0.11339183024E+03  0.47069072145E+03  0.45682824792E+03 0.  0.
      99925    2    3    3    0    0 -0.24522365605E+02 -0.14469950403E+02  0.43415661051E+02  0.26809056522E+03  0.26301502934E+03 0.  0.
         25    1    4    4    0    0  0.27286501294E+02 -0.16758882138E+02  0.22582915518E+02  0.13108359721E+03  0.12509000000E+03 0.  0.
         25    1    4    4    0    0 -0.51808866899E+02  0.22889317355E+01  0.20832745533E+02  0.13700696801E+03  0.12509000000E+03 0.  0.
         25    1    3    3    0    0  0.24522365605E+02  0.14469950403E+02 -0.15680749129E+03  0.20260015623E+03  0.12509000000E+03 0.  0.
<mgrwt>
<rscale>  2 0.45682825E+03</rscale>
<asrwt>0</asrwt>
<pdfrwt beam="1">  1       21 0.26271978E-01 0.45682825E+03</pdfrwt>
<pdfrwt beam="2">  1       21 0.42947246E-01 0.45682825E+03</pdfrwt>
<totfact> 0.66415928E+04</totfact>
</mgrwt>
</event>
<event>
 7    0  0.4737014E-002  0.4514633E+03  0.7546771E-02  0.1027287E+00
         21   -1    0    0  502  501  0.00000000000E+00  0.00000000000E+00  0.10711613304E+03  0.10711613304E+03  0.00000000000E+00 0.  1.
         21   -1    0    0  501  502 -0.00000000000E+00 -0.00000000000E+00 -0.47569657591E+03  0.47569657591E+03  0.00000000000E+00 0.  1.
      99926    2    1    2    0    0  0.00000000000E+00  0.00000000000E+00 -0.36858044288E+03  0.58281270895E+03  0.45146329955E+03 0.  0.
      99925    2    3    3    0    0 -0.74293089846E+02  0.46655321296E+01 -0.12862594101E+03  0.30215829253E+03  0.26308510154E+03 0.  0.
         25    1    4    4    0    0 -0.30051076810E+02 -0.50949246557E+01 -0.19772128123E+02  0.13025924391E+03  0.12509000000E+03 0.  0.
         25    1    3    3    0    0  0.74293089846E+02 -0.46655321296E+01 -0.23995450187E+03  0.28065441642E+03  0.12509000000E+03 0.  0.
         25    1    4    4    0    0 -0.44242013036E+02  0.97604567853E+01 -0.10885381288E+03  0.17189904861E+03  0.12509000000E+03 0.  0.
<mgrwt>
<rscale>  2 0.45146330E+03</rscale>
<asrwt>0</asrwt>
<pdfrwt beam="1">  1       21 0.15752373E-01 0.45146330E+03</pdfrwt>
<pdfrwt beam="2">  1       21 0.69955379E-01 0.45146330E+03</pdfrwt>
<totfact> 0.61448888E+04</totfact>
</mgrwt>
</event>
<event>
 7    0  0.4737014E-002  0.4563247E+03  0.7546771E-02  0.1025853E+00
         21   -1    0    0  502  501  0.00000000000E+00  0.00000000000E+00  0.33500361282E+03  0.33500361282E+03  0.00000000000E+00 0.  1.
         21   -1    0    0  501  502 -0.00000000000E+00 -0.00000000000E+00 -0.15539553084E+03  0.15539553084E+03  0.00000000000E+00 0.  1.
      99926    2    1    2    0    0  0.26645352591E-14 -0.35527136788E-14  0.17960808198E+03  0.49039914366E+03  0.45632472757E+03 0.  0.
      99925    2    3    3    0    0  0.42221203434E+01  0.29314063032E+02  0.23165738650E+03  0.35171324390E+03  0.26298273825E+03 0.  0.
         25    1    4    4    0    0 -0.16298575596E+02  0.45452644884E+02  0.93170323952E+02  0.16327830186E+03  0.12509000000E+03 0.  0.
         25    1    3    3    0    0 -0.42221203434E+01 -0.29314063032E+02 -0.52049304528E+02  0.13868589976E+03  0.12509000000E+03 0.  0.
         25    1    4    4    0    0  0.20520695939E+02 -0.16138581853E+02  0.13848706255E+03  0.18843494204E+03  0.12509000000E+03 0.  0.
<mgrwt>
<rscale>  2 0.45632473E+03</rscale>
<asrwt>0</asrwt>
<pdfrwt beam="1">  1       21 0.49265237E-01 0.45632473E+03</pdfrwt>
<pdfrwt beam="2">  1       21 0.22852284E-01 0.45632473E+03</pdfrwt>
<totfact> 0.65261521E+04</totfact>
</mgrwt>
</event>
<event>
 7    0  0.4737014E-002  0.4528457E+03  0.7546771E-02  0.1026877E+00
         21   -1    0    0  502  501  0.00000000000E+00  0.00000000000E+00  0.42471836065E+03  0.42471836065E+03  0.00000000000E+00 0.  1.
         21   -1    0    0  501  502 -0.00000000000E+00 -0.00000000000E+00 -0.12070893182E+03  0.12070893182E+03  0.00000000000E+00 0.  1.
      99926    2    1    2    0    0 -0.14210854715E-13  0.00000000000E+00  0.30400942884E+03  0.54542729247E+03  0.45284566747E+03 0.  0.
      99925    2    3    3    0    0 -0.10114403664E+03 -0.23162770817E+02  0.23949262471E+03  0.37056575806E+03  0.26305062946E+03 0.  0.
         25    1    3    3    0    0  0.10114403664E+03  0.23162770817E+02  0.64516804130E+02  0.17486153441E+03  0.12509000000E+03 0.  0.
         25    1    4    4    0    0 -0.79288502644E+02 -0.72417045264E+01  0.16759455178E+03  0.22377343637E+03  0.12509000000E+03 0.  0.
         25    1    4    4    0    0 -0.21855534000E+02 -0.15921066291E+02  0.71898072924E+02  0.14679232169E+03  0.12509000000E+03 0.  0.
<mgrwt>
<rscale>  2 0.45284567E+03</rscale>
<asrwt>0</asrwt>
<pdfrwt beam="1">  1       21 0.62458582E-01 0.45284567E+03</pdfrwt>
<pdfrwt beam="2">  1       21 0.17751314E-01 0.45284567E+03</pdfrwt>
<totfact> 0.63240874E+04</totfact>
</mgrwt>
</event>
<event>
 7    0  0.4737014E-002  0.4530551E+03  0.7546771E-02  0.1026815E+00
         21   -1    0    0  502  501  0.00000000000E+00  0.00000000000E+00  0.31798414661E+03  0.31798414661E+03  0.00000000000E+00 0. -1.
         21   -1    0    0  501  502 -0.00000000000E+00 -0.00000000000E+00 -0.16137509299E+03  0.16137509299E+03  0.00000000000E+00 0. -1.
      99926    2    1    2    0    0 -0.35527136788E-14  0.00000000000E+00  0.15660905362E+03  0.47935923960E+03  0.45305505726E+03 0.  0.
      99925    2    3    3    0    0 -0.19926279961E+02 -0.10876470247E+03  0.10841815382E+03  0.30558729692E+03  0.26344313016E+03 0.  0.
         25    1    4    4    0    0 -0.32851070604E+02 -0.28820131985E+02  0.25099157475E+02  0.13486018187E+03  0.12509000000E+03 0.  0.
         25    1    4    4    0    0  0.12924790643E+02 -0.79944570487E+02  0.83318996342E+02  0.17072711506E+03  0.12509000000E+03 0.  0.
         25    1    3    3    0    0  0.19926279961E+02  0.10876470247E+03  0.48190899804E+02  0.17377194267E+03  0.12509000000E+03 0.  0.
<mgrwt>
<rscale>  2 0.45305506E+03</rscale>
<asrwt>0</asrwt>
<pdfrwt beam="1">  1       21 0.46762375E-01 0.45305506E+03</pdfrwt>
<pdfrwt beam="2">  1       21 0.23731631E-01 0.45305506E+03</pdfrwt>
<totfact> 0.67787247E+04</totfact>
</mgrwt>
</event>
<event>
 7    0  0.4737014E-002  0.4623632E+03  0.7546771E-02  0.1024098E+00
         21   -1    0    0  502  501  0.00000000000E+00  0.00000000000E+00  0.20297953227E+03  0.20297953227E+03  0.00000000000E+00 0. -1.
         21   -1    0    0  501  502 -0.00000000000E+00 -0.00000000000E+00 -0.26330206143E+03  0.26330206143E+03  0.00000000000E+00 0. -1.
      99926    2    1    2    0    0 -0.14210854715E-13  0.00000000000E+00 -0.60322529165E+02  0.46628159370E+03  0.46236318744E+03 0.  0.
      99925    2    3    3    0    0  0.11439348892E+03  0.14469624244E+02 -0.41198043135E+01  0.28711269374E+03  0.26290965327E+03 0.  0.
         25    1    4    4    0    0  0.96813054471E+02  0.13450809088E+02  0.14561764387E+02  0.15941532192E+03  0.12509000000E+03 0.  0.
         25    1    4    4    0    0  0.17580434450E+02  0.10188151557E+01 -0.18681568701E+02  0.12769737182E+03  0.12509000000E+03 0.  0.
         25    1    3    3    0    0 -0.11439348892E+03 -0.14469624244E+02 -0.56202724851E+02  0.17916889996E+03  0.12509000000E+03 0.  0.
<mgrwt>
<rscale>  2 0.46236319E+03</rscale>
<asrwt>0</asrwt>
<pdfrwt beam="1">  1       21 0.29849931E-01 0.46236319E+03</pdfrwt>
<pdfrwt beam="2">  1       21 0.38720891E-01 0.46236319E+03</pdfrwt>
<totfact> 0.63890279E+04</totfact>
</mgrwt>
</event>
<event>
 7    0  0.4737014E-002  0.4570044E+03  0.7546771E-02  0.1025654E+00
         21   -1    0    0  502  501  0.00000000000E+00  0.00000000000E+00  0.11140888046E+03  0.11140888046E+03  0.00000000000E+00 0. -1.
         21   -1    0    0  501  502 -0.00000000000E+00 -0.00000000000E+00 -0.46866327785E+03  0.46866327785E+03  0.00000000000E+00 0. -1.
      99926    2    1    2    0    0  0.00000000000E+00 -0.14210854715E-13 -0.35725439738E+03  0.58007215831E+03  0.45700438116E+03 0.  0.
      99925    2    3    3    0    0 -0.11496780248E+02  0.97144022962E+02 -0.30134848674E+03  0.41172098933E+03  0.26293369019E+03 0.  0.
         25    1    4    4    0    0 -0.24699215988E+02  0.38825398924E+02 -0.97285228006E+02  0.16501329207E+03  0.12509000000E+03 0.  0.
         25    1    3    3    0    0  0.11496780248E+02 -0.97144022962E+02 -0.55905910640E+02  0.16835116898E+03  0.12509000000E+03 0.  0.
         25    1    4    4    0    0  0.13202435739E+02  0.58318624038E+02 -0.20406325874E+03  0.24670769726E+03  0.12509000000E+03 0.  0.
<mgrwt>
<rscale>  2 0.45700438E+03</rscale>
<asrwt>0</asrwt>
<pdfrwt beam="1">  1       21 0.16383659E-01 0.45700438E+03</pdfrwt>
<pdfrwt beam="2">  1       21 0.68921069E-01 0.45700438E+03</pdfrwt>
<totfact> 0.58981752E+04</totfact>
</mgrwt>
</event>
<event>
 7    0  0.4737014E-002  0.4528230E+03  0.7546771E-02  0.1026884E+00
         21   -1    0    0  502  501  0.00000000000E+00  0.00000000000E+00  0.13125161033E+03  0.13125161033E+03  0.00000000000E+00 0.  1.
         21   -1    0    0  501  502 -0.00000000000E+00 -0.00000000000E+00 -0.39056406703E+03  0.39056406703E+03  0.00000000000E+00 0.  1.
      99926    2    1    2    0    0  0.00000000000E+00  0.00000000000E+00 -0.25931245671E+03  0.52181567736E+03  0.45282297969E+03 0.  0.
      99925    2    3    3    0    0 -0.23639380498E+02  0.78432479325E+02 -0.75726801583E+02  0.28504220969E+03  0.26230523957E+03 0.  0.
         25    1    4    4    0    0 -0.39750743600E+02  0.37197425540E+02 -0.67198859619E+02  0.15207552373E+03  0.12509000000E+03 0.  0.
         25    1    3    3    0    0  0.23639380498E+02 -0.78432479325E+02 -0.18358565513E+03  0.23677346767E+03  0.12509000000E+03 0.  0.
         25    1    4    4    0    0  0.16111363102E+02  0.41235053786E+02 -0.85279419645E+01  0.13296668596E+03  0.12509000000E+03 0.  0.
<mgrwt>
<rscale>  2 0.45282298E+03</rscale>
<asrwt>0</asrwt>
<pdfrwt beam="1">  1       21 0.19301707E-01 0.45282298E+03</pdfrwt>
<pdfrwt beam="2">  1       21 0.57435893E-01 0.45282298E+03</pdfrwt>
<totfact> 0.64876390E+04</totfact>
</mgrwt>
</event>
<event>
 7    0  0.4737014E-002  0.4436520E+03  0.7546771E-02  0.1029632E+00
         21   -1    0    0  502  501  0.00000000000E+00  0.00000000000E+00  0.64617624775E+02  0.64617624775E+02  0.00000000000E+00 0. -1.
         21   -1    0    0  501  502 -0.00000000000E+00 -0.00000000000E+00 -0.76150695278E+03  0.76150695278E+03  0.00000000000E+00 0. -1.
      99926    2    1    2    0    0 -0.14210854715E-13  0.88817841970E-15 -0.69688932801E+03  0.82612457756E+03  0.44365198315E+03 0.  0.
      99925    2    3    3    0    0  0.86004803192E+02 -0.66245158976E+01 -0.54513898074E+03  0.61137731593E+03  0.26299240240E+03 0.  0.
         25    1    3    3    0    0 -0.86004803192E+02  0.66245158976E+01 -0.15175034726E+03  0.21474726163E+03  0.12509000000E+03 0.  0.
         25    1    4    4    0    0  0.44605492321E+01  0.12799828062E+02 -0.26407147231E+03  0.29251492729E+03  0.12509000000E+03 0.  0.
         25    1    4    4    0    0  0.81544253960E+02 -0.19424343960E+02 -0.28106750843E+03  0.31886238864E+03  0.12509000000E+03 0.  0.
<mgrwt>
<rscale>  2 0.44365198E+03</rscale>
<asrwt>0</asrwt>
<pdfrwt beam="1">  1       21 0.95025924E-02 0.44365198E+03</pdfrwt>
<pdfrwt beam="2">  1       21 0.11198631E+00 0.44365198E+03</pdfrwt>
<totfact> 0.50910975E+04</totfact>
</mgrwt>
</event>
<event>
 7    0  0.4737014E-002  0.4467330E+03  0.7546771E-02  0.1028701E+00
         21   -1    0    0  502  501  0.00000000000E+00  0.00000000000E+00  0.20893568825E+02  0.20893568825E+02  0.00000000000E+00 0. -1.
         21   -1    0    0  501  502 -0.00000000000E+00 -0.00000000000E+00 -0.23879400515E+04  0.23879400515E+04  0.00000000000E+00 0. -1.
      99926    2    1    2    0    0  0.00000000000E+00  0.71054273576E-14 -0.23670464827E+04  0.24088336204E+04  0.44673298431E+03 0.  0.
      99925    2    3    3    0    0 -0.44186501047E+02  0.52978961214E+02 -0.10725781854E+04  0.11065068956E+04  0.26301013097E+03 0.  0.
         25    1    4    4    0    0  0.17673513965E+02  0.19201129609E+02 -0.54012912323E+03  0.55503875030E+03  0.12509000000E+03 0.  0.
         25    1    4    4    0    0 -0.61860015012E+02  0.33777831605E+02 -0.53244906219E+03  0.55146814531E+03  0.12509000000E+03 0.  0.
         25    1    3    3    0    0  0.44186501047E+02 -0.52978961214E+02 -0.12944682973E+04  0.13023267248E+04  0.12509000000E+03 0.  0.
<mgrwt>
<rscale>  2 0.44673298E+03</rscale>
<asrwt>0</asrwt>
<pdfrwt beam="1">  1       21 0.30725843E-02 0.44673298E+03</pdfrwt>
<pdfrwt beam="2">  1       21 0.35116757E+00 0.44673298E+03</pdfrwt>
<totfact> 0.86528175E+03</totfact>
</mgrwt>
</event>
<event>
 7    0  0.4737014E-002  0.4325661E+03  0.7546771E-02  0.1033052E+00
         21   -1    0    0  502  501  0.00000000000E+00  0.00000000000E+00  0.73075241589E+02  0.73075241589E+02  0.00000000000E+00 0.  1.
         21   -1    0    0  501  502 -0.00000000000E+00 -0.00000000000E+00 -0.64013948027E+03  0.64013948027E+03  0.00000000000E+00 0.  1.
      99926    2    1    2    0    0  0.00000000000E+00  0.00000000000E+00 -0.56706423868E+03  0.71321472186E+03  0.43256605124E+03 0.  0.
      99925    2    3    3    0    0  0.37458576981E+02  0.75048898193E+02 -0.42069986146E+03  0.50320157673E+03  0.26303606459E+03 0.  0.
         25    1    4    4    0    0  0.35242159990E+02  0.59906720664E+02 -0.16700166815E+03  0.21992701127E+03  0.12509000000E+03 0.  0.
         25    1    4    4    0    0  0.22164169906E+01  0.15142177529E+02 -0.25369819331E+03  0.28327456546E+03  0.12509000000E+03 0.  0.
         25    1    3    3    0    0 -0.37458576981E+02 -0.75048898193E+02 -0.14636437722E+03  0.21001314513E+03  0.12509000000E+03 0.  0.
<mgrwt>
<rscale>  2 0.43256605E+03</rscale>
<asrwt>0</asrwt>
<pdfrwt beam="1">  1       21 0.10746359E-01 0.43256605E+03</pdfrwt>
<pdfrwt beam="2">  1       21 0.94138161E-01 0.43256605E+03</pdfrwt>
<totfact> 0.62515192E+04</totfact>
</mgrwt>
</event>
<event>
 7    0  0.4737014E-002  0.4757967E+03  0.7546771E-02  0.1020297E+00
         21   -1    0    0  502  501  0.00000000000E+00  0.00000000000E+00  0.86845086912E+02  0.86845086912E+02  0.00000000000E+00 0.  1.
         21   -1    0    0  501  502 -0.00000000000E+00 -0.00000000000E+00 -0.65168473327E+03  0.65168473327E+03  0.00000000000E+00 0.  1.
      99926    2    1    2    0    0  0.71054273576E-14 -0.14210854715E-13 -0.56483964636E+03  0.73852982019E+03  0.47579666792E+03 0.  0.
      99925    2    3    3    0    0 -0.53212469593E+02  0.11484582858E+03 -0.29291487542E+03  0.41355025096E+03  0.26306568488E+03 0.  0.
         25    1    3    3    0    0  0.53212469593E+02 -0.11484582858E+03 -0.27192477094E+03  0.32497956923E+03  0.12509000000E+03 0.  0.
         25    1    4    4    0    0 -0.18734702524E+02  0.96399954639E+02 -0.18348009480E+03  0.24280937713E+03  0.12509000000E+03 0.  0.
         25    1    4    4    0    0 -0.34477767070E+02  0.18445873944E+02 -0.10943478062E+03  0.17074087383E+03  0.12509000000E+03 0.  0.
<mgrwt>
<rscale>  2 0.47579667E+03</rscale>
<asrwt>0</asrwt>
<pdfrwt beam="1">  1       21 0.12771337E-01 0.47579667E+03</pdfrwt>
<pdfrwt beam="2">  1       21 0.95835986E-01 0.47579667E+03</pdfrwt>
<totfact> 0.43329078E+04</totfact>
</mgrwt>
</event>
<event>
 7    0  0.4737014E-002  0.5003048E+03  0.7546771E-02  0.1013699E+00
         21   -1    0    0  502  501  0.00000000000E+00  0.00000000000E+00  0.18223623737E+03  0.18223623737E+03  0.00000000000E+00 0. -1.
         21   -1    0    0  501  502 -0.00000000000E+00 -0.00000000000E+00 -0.34337967507E+03  0.34337967507E+03  0.00000000000E+00 0. -1.
      99926    2    1    2    0    0  0.00000000000E+00 -0.44408920985E-15 -0.16114343770E+03  0.52561591244E+03  0.50030478700E+03 0.  0.
      99925    2    3    3    0    0  0.41788418223E+02 -0.94345968126E+00 -0.25117679870E+03  0.36592660094E+03  0.26280283685E+03 0.  0.
         25    1    4    4    0    0  0.17859186707E+02 -0.10002735558E+02 -0.17876409983E+03  0.21914177319E+03  0.12509000000E+03 0.  0.
         25    1    3    3    0    0 -0.41788418223E+02  0.94345968126E+00  0.90033360997E+02  0.15968931150E+03  0.12509000000E+03 0.  0.
         25    1    4    4    0    0  0.23929231516E+02  0.90592758770E+01 -0.72412698864E+02  0.14678482775E+03  0.12509000000E+03 0.  0.
<mgrwt>
<rscale>  2 0.50030479E+03</rscale>
<asrwt>0</asrwt>
<pdfrwt beam="1">  1       21 0.26799447E-01 0.50030479E+03</pdfrwt>
<pdfrwt beam="2">  1       21 0.50497010E-01 0.50030479E+03</pdfrwt>
<totfact> 0.45010171E+04</totfact>
</mgrwt>
</event>
<event>
 7    0  0.4737014E-002  0.4759853E+03  0.7546771E-02  0.1020244E+00
         21   -1    0    0  502  501  0.00000000000E+00  0.00000000000E+00  0.21914334926E+03  0.21914334926E+03  0.00000000000E+00 0. -1.
         21   -1    0    0  501  502 -0.00000000000E+00 -0.00000000000E+00 -0.25846324237E+03  0.25846324237E+03  0.00000000000E+00 0. -1.
      99926    2    1    2    0    0 -0.35527136788E-14  0.00000000000E+00 -0.39319893110E+02  0.47760659164E+03  0.47598529639E+03 0.  0.
      99925    2    3    3    0    0 -0.16311019674E+02  0.41728077058E+02  0.10017014746E+03  0.28496116269E+03  0.26298578673E+03 0.  0.
         25    1    4    4    0    0  0.43067754636E+00  0.32541803630E+02  0.10117416915E+02  0.12964962280E+03  0.12509000000E+03 0.  0.
         25    1    4    4    0    0 -0.16741697220E+02  0.91862734282E+01  0.90052730542E+02  0.15531153989E+03  0.12509000000E+03 0.  0.
         25    1    3    3    0    0  0.16311019674E+02 -0.41728077058E+02 -0.13949004057E+03  0.19264542895E+03  0.12509000000E+03 0.  0.
<mgrwt>
<rscale>  2 0.47598530E+03</rscale>
<asrwt>0</asrwt>
<pdfrwt beam="1">  1       21 0.32226963E-01 0.47598530E+03</pdfrwt>
<pdfrwt beam="2">  1       21 0.38009300E-01 0.47598530E+03</pdfrwt>
<totfact> 0.56797886E+04</totfact>
</mgrwt>
</event>
<event>
 7    0  0.4737014E-002  0.4517483E+03  0.7546771E-02  0.1027202E+00
         21   -1    0    0  502  501  0.00000000000E+00  0.00000000000E+00  0.10121027507E+03  0.10121027507E+03  0.00000000000E+00 0. -1.
         21   -1    0    0  501  502 -0.00000000000E+00 -0.00000000000E+00 -0.50409042620E+03  0.50409042620E+03  0.00000000000E+00 0. -1.
      99926    2    1    2    0    0  0.00000000000E+00  0.00000000000E+00 -0.40288015113E+03  0.60530070128E+03  0.45174829584E+03 0.  0.
      99925    2    3    3    0    0  0.98891649922E+02  0.43876507366E+02 -0.28135693661E+03  0.40006886629E+03  0.26303738456E+03 0.  0.
         25    1    4    4    0    0  0.51690313631E+02 -0.18805784777E+02 -0.12981209980E+03  0.18847873997E+03  0.12509000000E+03 0.  0.
         25    1    4    4    0    0  0.47201336291E+02  0.62682292143E+02 -0.15154483681E+03  0.21159012633E+03  0.12509000000E+03 0.  0.
         25    1    3    3    0    0 -0.98891649922E+02 -0.43876507366E+02 -0.12152321452E+03  0.20523183498E+03  0.12509000000E+03 0.  0.
<mgrwt>
<rscale>  2 0.45174830E+03</rscale>
<asrwt>0</asrwt>
<pdfrwt beam="1">  1       21 0.14883864E-01 0.45174830E+03</pdfrwt>
<pdfrwt beam="2">  1       21 0.74130945E-01 0.45174830E+03</pdfrwt>
<totfact> 0.59876533E+04</totfact>
</mgrwt>
</event>
<event>
 7    0  0.4737014E-002  0.4528195E+03  0.7546771E-02  0.1026885E+00
         21   -1    0    0  502  501  0.00000000000E+00  0.00000000000E+00  0.10818567926E+03  0.10818567926E+03  0.00000000000E+00 0.  1.
         21   -1    0    0  501  502 -0.00000000000E+00 -0.00000000000E+00 -0.47382775345E+03  0.47382775345E+03  0.00000000000E+00 0.  1.
      99926    2    1    2    0    0  0.71054273576E-14  0.00000000000E+00 -0.36564207419E+03  0.58201343272E+03  0.45281951089E+03 0.  0.
      99925    2    3    3    0    0 -0.63092121133E+02  0.88285187440E+02 -0.26146332580E+03  0.38637189882E+03  0.26295490751E+03 0.  0.
         25    1    4    4    0    0  0.67877473178E+01  0.44857206209E+02 -0.14404771177E+03  0.19610072368E+03  0.12509000000E+03 0.  0.
         25    1    3    3    0    0  0.63092121133E+02 -0.88285187440E+02 -0.10417874839E+03  0.19564153390E+03  0.12509000000E+03 0.  0.
         25    1    4    4    0    0 -0.69879868451E+02  0.43427981230E+02 -0.11741561403E+03  0.19027117513E+03  0.12509000000E+03 0.  0.
<mgrwt>
<rscale>  2 0.45281951E+03</rscale>
<asrwt>0</asrwt>
<pdfrwt beam="1">  1       21 0.15909659E-01 0.45281951E+03</pdfrwt>
<pdfrwt beam="2">  1       21 0.69680550E-01 0.45281951E+03</pdfrwt>
<totfact> 0.60841246E+04</totfact>
</mgrwt>
</event>
<event>
 7    0  0.4737014E-002  0.4619093E+03  0.7546771E-02  0.1024229E+00
         21   -1    0    0  502  501  0.00000000000E+00  0.00000000000E+00  0.17747392698E+03  0.17747392698E+03  0.00000000000E+00 0.  1.
         21   -1    0    0  501  502 -0.00000000000E+00 -0.00000000000E+00 -0.30055141535E+03  0.30055141535E+03  0.00000000000E+00 0.  1.
      99926    2    1    2    0    0  0.00000000000E+00  0.00000000000E+00 -0.12307748838E+03  0.47802534233E+03  0.46190925491E+03 0.  0.
      99925    2    3    3    0    0  0.75169584777E+02 -0.92419303915E+02 -0.70685614080E+02  0.29751437091E+03  0.26329935558E+03 0.  0.
         25    1    3    3    0    0 -0.75169584777E+02  0.92419303915E+02 -0.52391874296E+02  0.18051097142E+03  0.12509000000E+03 0.  0.
         25    1    4    4    0    0  0.37789978667E+02 -0.68933428857E+02 -0.11559550097E+01  0.14774553947E+03  0.12509000000E+03 0.  0.
         25    1    4    4    0    0  0.37379606110E+02 -0.23485875059E+02 -0.69529659071E+02  0.14976883144E+03  0.12509000000E+03 0.  0.
<mgrwt>
<rscale>  2 0.46190925E+03</rscale>
<asrwt>0</asrwt>
<pdfrwt beam="1">  1       21 0.26099107E-01 0.46190925E+03</pdfrwt>
<pdfrwt beam="2">  1       21 0.44198737E-01 0.46190925E+03</pdfrwt>
<totfact> 0.63301650E+04</totfact>
</mgrwt>
</event>
<event>
 7    0  0.4737014E-002  0.4530985E+03  0.7546771E-02  0.1026802E+00
         21   -1    0    0  502  501  0.00000000000E+00  0.00000000000E+00  0.79873684417E+02  0.79873684417E+02  0.00000000000E+00 0. -1.
         21   -1    0    0  501  502 -0.00000000000E+00 -0.00000000000E+00 -0.64257160368E+03  0.64257160368E+03  0.00000000000E+00 0. -1.
      99926    2    1    2    0    0  0.00000000000E+00  0.00000000000E+00 -0.56269791927E+03  0.72244528810E+03  0.45309849476E+03 0.  0.
      99925    2    3    3    0    0  0.97329585259E+02 -0.41555746795E+02 -0.29932430299E+03  0.41226292544E+03  0.26299382706E+03 0.  0.
         25    1    4    4    0    0  0.62180137909E+01 -0.23694315570E+02 -0.12627219404E+03  0.17942201474E+03  0.12509000000E+03 0.  0.
         25    1    3    3    0    0 -0.97329585259E+02  0.41555746795E+02 -0.26337361627E+03  0.31018236266E+03  0.12509000000E+03 0.  0.
         25    1    4    4    0    0  0.91111571468E+02 -0.17861431225E+02 -0.17305210896E+03  0.23284091070E+03  0.12509000000E+03 0.  0.
<mgrwt>
<rscale>  2 0.45309849E+03</rscale>
<asrwt>0</asrwt>
<pdfrwt beam="1">  1       21 0.11746130E-01 0.45309849E+03</pdfrwt>
<pdfrwt beam="2">  1       21 0.94495827E-01 0.45309849E+03</pdfrwt>
<totfact> 0.52481744E+04</totfact>
</mgrwt>
</event>
<event>
 7    0  0.4737014E-002  0.4371953E+03  0.7546771E-02  0.1031611E+00
         21   -1    0    0  502  501  0.00000000000E+00  0.00000000000E+00  0.74789032544E+03  0.74789032544E+03  0.00000000000E+00 0.  1.
         21   -1    0    0  501  502 -0.00000000000E+00 -0.00000000000E+00 -0.63892954925E+02  0.63892954925E+02  0.00000000000E+00 0.  1.
      99926    2    1    2    0    0  0.44408920985E-15 -0.14210854715E-13  0.68399737052E+03  0.81178328037E+03  0.43719525547E+03 0.  0.
      99925    2    3    3    0    0 -0.31201132987E+01  0.70768876057E+02  0.31928353178E+03  0.41976075399E+03  0.26313332741E+03 0.  0.
         25    1    4    4    0    0  0.34354444304E+02  0.52298252496E+02  0.17987916730E+03  0.22785819710E+03  0.12509000000E+03 0.  0.
         25    1    3    3    0    0  0.31201132987E+01 -0.70768876057E+02  0.36471383873E+03  0.39202252638E+03  0.12509000000E+03 0.  0.
         25    1    4    4    0    0 -0.37474557602E+02  0.18470623561E+02  0.13940436448E+03  0.19190255688E+03  0.12509000000E+03 0.  0.
<mgrwt>
<rscale>  2 0.43719526E+03</rscale>
<asrwt>0</asrwt>
<pdfrwt beam="1">  1       21 0.10998387E+00 0.43719526E+03</pdfrwt>
<pdfrwt beam="2">  1       21 0.93960232E-02 0.43719526E+03</pdfrwt>
<totfact> 0.54413561E+04</totfact>
</mgrwt>
</event>
<event>
 7    0  0.4737014E-002  0.4538819E+03  0.7546771E-02  0.1026571E+00
         21   -1    0    0  502  501  0.00000000000E+00  0.00000000000E+00  0.93494825410E+02  0.93494825410E+02  0.00000000000E+00 0.  1.
         21   -1    0    0  501  502 -0.00000000000E+00 -0.00000000000E+00 -0.55085606400E+03  0.55085606400E+03  0.00000000000E+00 0.  1.
      99926    2    1    2    0    0  0.00000000000E+00  0.00000000000E+00 -0.45736123859E+03  0.64435088941E+03  0.45388188565E+03 0.  0.
      99925    2    3    3    0    0  0.13921835401E+02  0.69490793782E+02 -0.16486339831E+03  0.31842868613E+03  0.26304771454E+03 0.  0.
         25    1    3    3    0    0 -0.13921835401E+02 -0.69490793782E+02 -0.29249784028E+03  0.32592220328E+03  0.12509000000E+03 0.  0.
         25    1    4    4    0    0 -0.26889961476E+01  0.64398023123E+02 -0.55159901454E+02  0.15114383517E+03  0.12509000000E+03 0.  0.
         25    1    4    4    0    0  0.16610831548E+02  0.50927706589E+01 -0.10970349685E+03  0.16728485095E+03  0.12509000000E+03 0.  0.
<mgrwt>
<rscale>  2 0.45388189E+03</rscale>
<asrwt>0</asrwt>
<pdfrwt beam="1">  1       21 0.13749239E-01 0.45388189E+03</pdfrwt>
<pdfrwt beam="2">  1       21 0.81008243E-01 0.45388189E+03</pdfrwt>
<totfact> 0.56525146E+04</totfact>
</mgrwt>
</event>
<event>
 7    0  0.4737014E-002  0.4563112E+03  0.7546771E-02  0.1025857E+00
         21   -1    0    0  502  501  0.00000000000E+00  0.00000000000E+00  0.18271725694E+03  0.18271725694E+03  0.00000000000E+00 0. -1.
         21   -1    0    0  501  502 -0.00000000000E+00 -0.00000000000E+00 -0.28489358879E+03  0.28489358879E+03  0.00000000000E+00 0. -1.
      99926    2    1    2    0    0  0.00000000000E+00 -0.17763568394E-14 -0.10217633185E+03  0.46761084573E+03  0.45631118796E+03 0.  0.
      99925    2    3    3    0    0  0.58221762423E+02  0.15901920207E+02 -0.16376483505E+03  0.31567896457E+03  0.26304304360E+03 0.  0.
         25    1    3    3    0    0 -0.58221762423E+02 -0.15901920207E+02  0.61588503204E+02  0.15193188116E+03  0.12509000000E+03 0.  0.
         25    1    4    4    0    0  0.46249469967E+02  0.41313590450E+02 -0.10474020593E+03  0.17453895000E+03  0.12509000000E+03 0.  0.
         25    1    4    4    0    0  0.11972292456E+02 -0.25411670242E+02 -0.59024629127E+02  0.14114001458E+03  0.12509000000E+03 0.  0.
<mgrwt>
<rscale>  2 0.45631119E+03</rscale>
<asrwt>0</asrwt>
<pdfrwt beam="1">  1       21 0.26870185E-01 0.45631119E+03</pdfrwt>
<pdfrwt beam="2">  1       21 0.41896115E-01 0.45631119E+03</pdfrwt>
<totfact> 0.66915511E+04</totfact>
</mgrwt>
</event>
<event>
 7    0  0.4737014E-002  0.4728362E+03  0.7546771E-02  0.1021123E+00
         21   -1    0    0  502  501  0.00000000000E+00  0.00000000000E+00  0.12639061157E+03  0.12639061157E+03  0.00000000000E+00 0. -1.
         21   -1    0    0  501  502 -0.00000000000E+00 -0.00000000000E+00 -0.44222834150E+03  0.44222834150E+03  0.00000000000E+00 0. -1.
      99926    2    1    2    0    0  0.00000000000E+00  0.00000000000E+00 -0.31583772993E+03  0.56861895308E+03  0.47283616840E+03 0.  0.
      99925    2    3    3    0    0  0.11388822390E+03  0.23125282743E+02 -0.12805249262E+03  0.31481566370E+03  0.26307062740E+03 0.  0.
         25    1    3    3    0    0 -0.11388822390E+03 -0.23125282743E+02 -0.18778523732E+03  0.25380328938E+03  0.12509000000E+03 0.  0.
         25    1    4    4    0    0  0.49095136240E+02  0.50780544445E+02 -0.72118799262E+02  0.16074086414E+03  0.12509000000E+03 0.  0.
         25    1    4    4    0    0  0.64793087657E+02 -0.27655261702E+02 -0.55933693353E+02  0.15407479956E+03  0.12509000000E+03 0.  0.
<mgrwt>
<rscale>  2 0.47283617E+03</rscale>
<asrwt>0</asrwt>
<pdfrwt beam="1">  1       21 0.18586855E-01 0.47283617E+03</pdfrwt>
<pdfrwt beam="2">  1       21 0.65033579E-01 0.47283617E+03</pdfrwt>
<totfact> 0.52801010E+04</totfact>
</mgrwt>
</event>
<event>
 7    0  0.4737014E-002  0.4530306E+03  0.7546771E-02  0.1026822E+00
         21   -1    0    0  502  501  0.00000000000E+00  0.00000000000E+00  0.34151803933E+02  0.34151803933E+02  0.00000000000E+00 0. -1.
         21   -1    0    0  501  502 -0.00000000000E+00 -0.00000000000E+00 -0.15023854515E+04  0.15023854515E+04  0.00000000000E+00 0. -1.
      99926    2    1    2    0    0  0.00000000000E+00  0.00000000000E+00 -0.14682336475E+04  0.15365372554E+04  0.45303056572E+03 0.  0.
      99925    2    3    3    0    0 -0.92617895233E+02  0.59859244246E+02 -0.87527399304E+03  0.92057470492E+03  0.26304376214E+03 0.  0.
         25    1    4    4    0    0 -0.65264048927E+02  0.40031137459E+02 -0.57748961399E+03  0.59582182774E+03  0.12509000000E+03 0.  0.
         25    1    4    4    0    0 -0.27353846305E+02  0.19828106787E+02 -0.29778437905E+03  0.32475287718E+03  0.12509000000E+03 0.  0.
         25    1    3    3    0    0  0.92617895233E+02 -0.59859244246E+02 -0.59295965448E+03  0.61596255047E+03  0.12509000000E+03 0.  0.
<mgrwt>
<rscale>  2 0.45303057E+03</rscale>
<asrwt>0</asrwt>
<pdfrwt beam="1">  1       21 0.50223249E-02 0.45303057E+03</pdfrwt>
<pdfrwt beam="2">  1       21 0.22093900E+00 0.45303057E+03</pdfrwt>
<totfact> 0.23251328E+04</totfact>
</mgrwt>
</event>
<event>
 7    0  0.4737014E-002  0.4449155E+03  0.7546771E-02  0.1029249E+00
         21   -1    0    0  502  501  0.00000000000E+00  0.00000000000E+00  0.98972573958E+03  0.98972573958E+03  0.00000000000E+00 0.  1.
         21   -1    0    0  501  502 -0.00000000000E+00 -0.00000000000E+00 -0.50001169882E+02  0.50001169882E+02  0.00000000000E+00 0.  1.
      99926    2    1    2    0    0  0.00000000000E+00  0.00000000000E+00  0.93972456970E+03  0.10397269095E+04  0.44491547440E+03 0.  0.
      99925    2    3    3    0    0  0.51260939245E+02 -0.18328222042E+02  0.39127871212E+03  0.47456854723E+03  0.26296894843E+03 0.  0.
         25    1    3    3    0    0 -0.51260939245E+02  0.18328222042E+02  0.54844585757E+03  0.56515836223E+03  0.12509000000E+03 0.  0.
         25    1    4    4    0    0  0.19955802851E+01  0.22484537623E+02  0.16616698505E+03  0.20920925360E+03  0.12509000000E+03 0.  0.
         25    1    4    4    0    0  0.49265358960E+02 -0.40812759664E+02  0.22511172708E+03  0.26535929362E+03  0.12509000000E+03 0.  0.
<mgrwt>
<rscale>  2 0.44491547E+03</rscale>
<asrwt>0</asrwt>
<pdfrwt beam="1">  1       21 0.14554789E+00 0.44491547E+03</pdfrwt>
<pdfrwt beam="2">  1       21 0.73531139E-02 0.44491547E+03</pdfrwt>
<totfact> 0.40772945E+04</totfact>
</mgrwt>
</event>
<event>
 7    0  0.4737014E-002  0.4747254E+03  0.7546771E-02  0.1020595E+00
         21   -1    0    0  502  501  0.00000000000E+00  0.00000000000E+00  0.25594876801E+04  0.25594876801E+04  0.00000000000E+00 0.  1.
         21   -1    0    0  501  502 -0.00000000000E+00 -0.00000000000E+00 -0.22012626527E+02  0.22012626527E+02  0.00000000000E+00 0.  1.
      99926    2    1    2    0    0  0.00000000000E+00  0.14210854715E-13  0.25374750536E+04  0.25815003066E+04  0.47472537914E+03 0.  0.
      99925    2    3    3    0    0  0.19973816889E+02 -0.80356946218E+02  0.10195876063E+04  0.10562180367E+04  0.26302369100E+03 0.  0.
         25    1    4    4    0    0  0.10945984478E+02 -0.44078911846E+02  0.66904811733E+03  0.68215515570E+03  0.12509000000E+03 0.  0.
         25    1    3    3    0    0 -0.19973816889E+02  0.80356946218E+02  0.15178874473E+04  0.15252822699E+04  0.12509000000E+03 0.  0.
         25    1    4    4    0    0  0.90278324114E+01 -0.36278034372E+02  0.35053948893E+03  0.37406288099E+03  0.12509000000E+03 0.  0.
<mgrwt>
<rscale>  2 0.47472538E+03</rscale>
<asrwt>0</asrwt>
<pdfrwt beam="1">  1       21 0.37639504E+00 0.47472538E+03</pdfrwt>
<pdfrwt beam="2">  1       21 0.32371527E-02 0.47472538E+03</pdfrwt>
<totfact> 0.54486152E+03</totfact>
</mgrwt>
</event>
<event>
 7    0  0.4737014E-002  0.4554360E+03  0.7546771E-02  0.1026113E+00
         21   -1    0    0  502  501  0.00000000000E+00  0.00000000000E+00  0.13135776091E+04  0.13135776091E+04  0.00000000000E+00 0.  1.
         21   -1    0    0  501  502 -0.00000000000E+00 -0.00000000000E+00 -0.39476528142E+02  0.39476528142E+02  0.00000000000E+00 0.  1.
      99926    2    1    2    0    0  0.00000000000E+00 -0.17763568394E-14  0.12741010809E+04  0.13530541372E+04  0.45543598212E+03 0.  0.
      99925    2    3    3    0    0 -0.45526100085E+02 -0.15496204967E+02  0.49647982627E+03  0.56396917223E+03  0.26316582449E+03 0.  0.
         25    1    3    3    0    0  0.45526100085E+02  0.15496204967E+02  0.77762125467E+03  0.78908496499E+03  0.12509000000E+03 0.  0.
         25    1    4    4    0    0 -0.46069859763E+02 -0.16922669113E+00  0.18555936886E+03  0.22847811293E+03  0.12509000000E+03 0.  0.
         25    1    4    4    0    0  0.54375967799E+00 -0.15326978276E+02  0.31092045741E+03  0.33549105930E+03  0.12509000000E+03 0.  0.
<mgrwt>
<rscale>  2 0.45543598E+03</rscale>
<asrwt>0</asrwt>
<pdfrwt beam="1">  1       21 0.19317315E+00 0.45543598E+03</pdfrwt>
<pdfrwt beam="2">  1       21 0.58053727E-02 0.45543598E+03</pdfrwt>
<totfact> 0.27516951E+04</totfact>
</mgrwt>
</event>
<event>
 7    0  0.4737014E-002  0.4502371E+03  0.7546771E-02  0.1027651E+00
         21   -1    0    0  502  501  0.00000000000E+00  0.00000000000E+00  0.10047466204E+04  0.10047466204E+04  0.00000000000E+00 0.  1.
         21   -1    0    0  501  502 -0.00000000000E+00 -0.00000000000E+00 -0.50438940633E+02  0.50438940633E+02  0.00000000000E+00 0.  1.
      99926    2    1    2    0    0 -0.71054273576E-14 -0.14210854715E-13  0.95430767979E+03  0.10551855611E+04  0.45023707150E+03 0.  0.
      99925    2    3    3    0    0  0.51320793847E+02  0.85424297038E+02  0.70520010362E+03  0.75915646281E+03  0.26283115201E+03 0.  0.
         25    1    4    4    0    0  0.32917633570E+02  0.17075351624E+01  0.33421725725E+03  0.35837852812E+03  0.12509000000E+03 0.  0.
         25    1    4    4    0    0  0.18403160277E+02  0.83716761876E+02  0.37098284638E+03  0.40077793469E+03  0.12509000000E+03 0.  0.
         25    1    3    3    0    0 -0.51320793847E+02 -0.85424297038E+02  0.24910757617E+03  0.29602909825E+03  0.12509000000E+03 0.  0.
<mgrwt>
<rscale>  2 0.45023707E+03</rscale>
<asrwt>0</asrwt>
<pdfrwt beam="1">  1       21 0.14775684E+00 0.45023707E+03</pdfrwt>
<pdfrwt beam="2">  1       21 0.74174919E-02 0.45023707E+03</pdfrwt>
<totfact> 0.38499048E+04</totfact>
</mgrwt>
</event>
<event>
 7    0  0.4737014E-002  0.4600387E+03  0.7546771E-02  0.1024770E+00
         21   -1    0    0  502  501  0.00000000000E+00  0.00000000000E+00  0.25899537194E+03  0.25899537194E+03  0.00000000000E+00 0.  1.
         21   -1    0    0  501  502 -0.00000000000E+00 -0.00000000000E+00 -0.20428510508E+03  0.20428510508E+03  0.00000000000E+00 0.  1.
      99926    2    1    2    0    0  0.00000000000E+00  0.00000000000E+00  0.54710266864E+02  0.46328047702E+03  0.46003868000E+03 0.  0.
      99925    2    3    3    0    0 -0.75877895393E+02 -0.30734320500E+02 -0.51014636252E+02  0.28017581650E+03  0.26304741317E+03 0.  0.
         25    1    3    3    0    0  0.75877895393E+02  0.30734320500E+02  0.10572490312E+03  0.18310466052E+03  0.12509000000E+03 0.  0.
         25    1    4    4    0    0 -0.63749200111E+02 -0.38678277220E+02 -0.50843371322E+02  0.15424826142E+03  0.12509000000E+03 0.  0.
         25    1    4    4    0    0 -0.12128695282E+02  0.79439567203E+01 -0.17126493072E+00  0.12592755508E+03  0.12509000000E+03 0.  0.
<mgrwt>
<rscale>  2 0.46003868E+03</rscale>
<asrwt>0</asrwt>
<pdfrwt beam="1">  1       21 0.38087555E-01 0.46003868E+03</pdfrwt>
<pdfrwt beam="2">  1       21 0.30041927E-01 0.46003868E+03</pdfrwt>
<totfact> 0.65279261E+04</totfact>
</mgrwt>
</event>
<event>
 7    0  0.4737014E-002  0.4369233E+03  0.7546771E-02  0.1031695E+00
         21   -1    0    0  502  501  0.00000000000E+00  0.00000000000E+00  0.36717192115E+02  0.36717192115E+02  0.00000000000E+00 0.  1.
         21   -1    0    0  501  502 -0.00000000000E+00 -0.00000000000E+00 -0.12998133754E+04  0.12998133754E+04  0.00000000000E+00 0.  1.
      99926    2    1    2    0    0  0.00000000000E+00  0.00000000000E+00 -0.12630961833E+04  0.13365305675E+04  0.43692332241E+03 0.  0.
      99925    2    3    3    0    0  0.48939957703E+02  0.45458881181E+02 -0.60176391435E+03  0.66016564576E+03  0.26312970546E+03 0.  0.
         25    1    4    4    0    0 -0.52597297639E+01  0.28144752086E+01 -0.33359125108E+03  0.35632319168E+03  0.12509000000E+03 0.  0.
         25    1    4    4    0    0  0.54199687467E+02  0.42644405972E+02 -0.26817266326E+03  0.30384245409E+03  0.12509000000E+03 0.  0.
         25    1    3    3    0    0 -0.48939957703E+02 -0.45458881181E+02 -0.66133226892E+03  0.67636492173E+03  0.12509000000E+03 0.  0.
<mgrwt>
<rscale>  2 0.43692332E+03</rscale>
<asrwt>0</asrwt>
<pdfrwt beam="1">  1       21 0.53995877E-02 0.43692332E+03</pdfrwt>
<pdfrwt beam="2">  1       21 0.19114900E+00 0.43692332E+03</pdfrwt>
<totfact> 0.32390944E+04</totfact>
</mgrwt>
</event>
<event>
 7    0  0.4737014E-002  0.4553715E+03  0.7546771E-02  0.1026132E+00
         21   -1    0    0  502  501  0.00000000000E+00  0.00000000000E+00  0.36611704091E+03  0.36611704091E+03  0.00000000000E+00 0.  1.
         21   -1    0    0  501  502 -0.00000000000E+00 -0.00000000000E+00 -0.14159622335E+03  0.14159622335E+03  0.00000000000E+00 0.  1.
      99926    2    1    2    0    0  0.00000000000E+00 -0.35527136788E-14  0.22452081757E+03  0.50771326426E+03  0.45537145407E+03 0.  0.
      99925    2    3    3    0    0  0.80821766855E+02  0.31378386595E+02  0.22361142884E+03  0.35551242250E+03  0.26243142019E+03 0.  0.
         25    1    4    4    0    0  0.61381676881E+02  0.32027810179E+02  0.79101537381E+02  0.16339538610E+03  0.12509000000E+03 0.  0.
         25    1    3    3    0    0 -0.80821766855E+02 -0.31378386595E+02  0.90938872890E+00  0.15220084175E+03  0.12509000000E+03 0.  0.
         25    1    4    4    0    0  0.19440089974E+02 -0.64942358380E+00  0.14450989146E+03  0.19211703641E+03  0.12509000000E+03 0.  0.
<mgrwt>
<rscale>  2 0.45537145E+03</rscale>
<asrwt>0</asrwt>
<pdfrwt beam="1">  1       21 0.53840741E-01 0.45537145E+03</pdfrwt>
<pdfrwt beam="2">  1       21 0.20822974E-01 0.45537145E+03</pdfrwt>
<totfact> 0.64541618E+04</totfact>
</mgrwt>
</event>
<event>
 7    0  0.4737014E-002  0.4576633E+03  0.7546771E-02  0.1025461E+00
         21   -1    0    0  502  501  0.00000000000E+00  0.00000000000E+00  0.18983556726E+03  0.18983556726E+03  0.00000000000E+00 0. -1.
         21   -1    0    0  501  502 -0.00000000000E+00 -0.00000000000E+00 -0.27583833270E+03  0.27583833270E+03  0.00000000000E+00 0. -1.
      99926    2    1    2    0    0  0.00000000000E+00  0.00000000000E+00 -0.86002765438E+02  0.46567389996E+03  0.45766331013E+03 0.  0.
      99925    2    3    3    0    0 -0.68733011668E+02  0.80581094060E+02 -0.10118104005E+03  0.30106701149E+03  0.26303270315E+03 0.  0.
         25    1    3    3    0    0  0.68733011668E+02 -0.80581094060E+02  0.15178274613E+02  0.16460688847E+03  0.12509000000E+03 0.  0.
         25    1    4    4    0    0  0.25950573741E+01  0.18336229887E+02 -0.39171988096E+02  0.13238166187E+03  0.12509000000E+03 0.  0.
         25    1    4    4    0    0 -0.71328069042E+02  0.62244864173E+02 -0.62009051956E+02  0.16868534961E+03  0.12509000000E+03 0.  0.
<mgrwt>
<rscale>  2 0.45766331E+03</rscale>
<asrwt>0</asrwt>
<pdfrwt beam="1">  1       21 0.27916995E-01 0.45766331E+03</pdfrwt>
<pdfrwt beam="2">  1       21 0.40564461E-01 0.45766331E+03</pdfrwt>
<totfact> 0.66344401E+04</totfact>
</mgrwt>
</event>
<event>
 7    0  0.4737014E-002  0.4489462E+03  0.7546771E-02  0.1028037E+00
         21   -1    0    0  502  501  0.00000000000E+00  0.00000000000E+00  0.13771749706E+03  0.13771749706E+03  0.00000000000E+00 0.  1.
         21   -1    0    0  501  502 -0.00000000000E+00 -0.00000000000E+00 -0.36588063056E+03  0.36588063056E+03  0.00000000000E+00 0.  1.
      99926    2    1    2    0    0 -0.35527136788E-14 -0.14210854715E-13 -0.22816313349E+03  0.50359812762E+03  0.44894616454E+03 0.  0.
      99925    2    3    3    0    0  0.26892815298E+02  0.70681772619E+02 -0.22968990178E+03  0.35741681685E+03  0.26319231276E+03 0.  0.
         25    1    3    3    0    0 -0.26892815298E+02 -0.70681772619E+02  0.15267682860E+01  0.14618131076E+03  0.12509000000E+03 0.  0.
         25    1    4    4    0    0  0.89568628746E+01 -0.41858481854E+01 -0.87422665856E+02  0.15293128301E+03  0.12509000000E+03 0.  0.
         25    1    4    4    0    0  0.17935952424E+02  0.74867620805E+02 -0.14226723592E+03  0.20448553384E+03  0.12509000000E+03 0.  0.
<mgrwt>
<rscale>  2 0.44894616E+03</rscale>
<asrwt>0</asrwt>
<pdfrwt beam="1">  1       21 0.20252573E-01 0.44894616E+03</pdfrwt>
<pdfrwt beam="2">  1       21 0.53805975E-01 0.44894616E+03</pdfrwt>
<totfact> 0.68238927E+04</totfact>
</mgrwt>
</event>
<event>
 7    0  0.4737014E-002  0.4588335E+03  0.7546771E-02  0.1025120E+00
         21   -1    0    0  502  501  0.00000000000E+00  0.00000000000E+00  0.17750837515E+03  0.17750837515E+03  0.00000000000E+00 0. -1.
         21   -1    0    0  501  502 -0.00000000000E+00 -0.00000000000E+00 -0.29650455194E+03  0.29650455194E+03  0.00000000000E+00 0. -1.
      99926    2    1    2    0    0  0.00000000000E+00 -0.43021142204E-15 -0.11899617679E+03  0.47401292709E+03  0.45883348282E+03 0.  0.
      99925    2    3    3    0    0  0.11217604124E+03  0.10420092351E+00 -0.41129116915E+02  0.28882582657E+03  0.26295489870E+03 0.  0.
         25    1    4    4    0    0  0.58465169803E+02  0.96853691706E+01 -0.60362056768E+02  0.15100684903E+03  0.12509000000E+03 0.  0.
         25    1    4    4    0    0  0.53710871435E+02 -0.95811682471E+01  0.19232939854E+02  0.13781897754E+03  0.12509000000E+03 0.  0.
         25    1    3    3    0    0 -0.11217604124E+03 -0.10420092351E+00 -0.77867059873E+02  0.18518710052E+03  0.12509000000E+03 0.  0.
<mgrwt>
<rscale>  2 0.45883348E+03</rscale>
<asrwt>0</asrwt>
<pdfrwt beam="1">  1       21 0.26104173E-01 0.45883348E+03</pdfrwt>
<pdfrwt beam="2">  1       21 0.43603610E-01 0.45883348E+03</pdfrwt>
<totfact> 0.65134846E+04</totfact>
</mgrwt>
</event>
<event>
 7    0  0.4737014E-002  0.4532542E+03  0.7546771E-02  0.1026756E+00
         21   -1    0    0  502  501  0.00000000000E+00  0.00000000000E+00  0.55526261446E+03  0.55526261446E+03  0.00000000000E+00 0. -1.
         21   -1    0    0  501  502 -0.00000000000E+00 -0.00000000000E+00 -0.92496488194E+02  0.92496488194E+02  0.00000000000E+00 0. -1.
      99926    2    1    2    0    0  0.71054273576E-14 -0.71054273576E-14  0.46276612626E+03  0.64775910265E+03  0.45325419739E+03 0.  0.
      99925    2    3    3    0    0 -0.47634143084E+02  0.63532088087E+02  0.40356792039E+03  0.48820574643E+03  0.26300655253E+03 0.  0.
         25    1    4    4    0    0  0.15203629734E+02  0.30795917456E+02  0.16828491763E+03  0.21247790589E+03  0.12509000000E+03 0.  0.
         25    1    4    4    0    0 -0.62837772818E+02  0.32736170631E+02  0.23528300276E+03  0.27572784054E+03  0.12509000000E+03 0.  0.
         25    1    3    3    0    0  0.47634143084E+02 -0.63532088087E+02  0.59198205873E+02  0.15955335622E+03  0.12509000000E+03 0.  0.
<mgrwt>
<rscale>  2 0.45325420E+03</rscale>
<asrwt>0</asrwt>
<pdfrwt beam="1">  1       21 0.81656265E-01 0.45325420E+03</pdfrwt>
<pdfrwt beam="2">  1       21 0.13602425E-01 0.45325420E+03</pdfrwt>
<totfact> 0.56606414E+04</totfact>
</mgrwt>
</event>
<event>
 7    0  0.4737014E-002  0.4545016E+03  0.7546771E-02  0.1026388E+00
         21   -1    0    0  502  501  0.00000000000E+00  0.00000000000E+00  0.71037315840E+02  0.71037315840E+02  0.00000000000E+00 0.  1.
         21   -1    0    0  501  502 -0.00000000000E+00 -0.00000000000E+00 -0.72698297509E+03  0.72698297509E+03  0.00000000000E+00 0.  1.
      99926    2    1    2    0    0  0.00000000000E+00  0.00000000000E+00 -0.65594565925E+03  0.79802029093E+03  0.45450156969E+03 0.  0.
      99925    2    3    3    0    0 -0.10853264833E+03  0.29339986706E+02 -0.41984431491E+03  0.50813837795E+03  0.26323979906E+03 0.  0.
         25    1    3    3    0    0  0.10853264833E+03 -0.29339986706E+02 -0.23610134434E+03  0.28988191298E+03  0.12509000000E+03 0.  0.
         25    1    4    4    0    0 -0.28076898466E+02  0.20399994268E+02 -0.25360073019E+03  0.28489526224E+03  0.12509000000E+03 0.  0.
         25    1    4    4    0    0 -0.80455749867E+02  0.89399924379E+01 -0.16624358472E+03  0.22324311571E+03  0.12509000000E+03 0.  0.
<mgrwt>
<rscale>  2 0.45450157E+03</rscale>
<asrwt>0</asrwt>
<pdfrwt beam="1">  1       21 0.10446664E-01 0.45450157E+03</pdfrwt>
<pdfrwt beam="2">  1       21 0.10690926E+00 0.45450157E+03</pdfrwt>
<totfact> 0.48048388E+04</totfact>
</mgrwt>
</event>
<event>
 7    0  0.4737014E-002  0.4535679E+03  0.7546771E-02  0.1026663E+00
         21   -1    0    0  502  501  0.00000000000E+00  0.00000000000E+00  0.14196420986E+03  0.14196420986E+03  0.00000000000E+00 0.  1.
         21   -1    0    0  501  502 -0.00000000000E+00 -0.00000000000E+00 -0.36228123695E+03  0.36228123695E+03  0.00000000000E+00 0.  1.
      99926    2    1    2    0    0  0.00000000000E+00  0.00000000000E+00 -0.22031702709E+03  0.50424544680E+03  0.45356794220E+03 0.  0.
      99925    2    3    3    0    0  0.65973333489E+02 -0.17669161818E+02 -0.23725384993E+03  0.36072177601E+03  0.26299454437E+03 0.  0.
         25    1    4    4    0    0  0.30371897936E+01 -0.17032640004E+01 -0.75369937801E+02  0.14608306286E+03  0.12509000000E+03 0.  0.
         25    1    4    4    0    0  0.62936143696E+02 -0.15965897818E+02 -0.16188391212E+03  0.21463871315E+03  0.12509000000E+03 0.  0.
         25    1    3    3    0    0 -0.65973333489E+02  0.17669161818E+02  0.16936822836E+02  0.14352367080E+03  0.12509000000E+03 0.  0.
<mgrwt>
<rscale>  2 0.45356794E+03</rscale>
<asrwt>0</asrwt>
<pdfrwt beam="1">  1       21 0.20877090E-01 0.45356794E+03</pdfrwt>
<pdfrwt beam="2">  1       21 0.53276652E-01 0.45356794E+03</pdfrwt>
<totfact> 0.65717238E+04</totfact>
</mgrwt>
</event>
<event>
 7    0  0.4737014E-002  0.4626093E+03  0.7546771E-02  0.1024027E+00
         21   -1    0    0  502  501  0.00000000000E+00  0.00000000000E+00  0.15251974226E+03  0.15251974226E+03  0.00000000000E+00 0. -1.
         21   -1    0    0  501  502 -0.00000000000E+00 -0.00000000000E+00 -0.35078633213E+03  0.35078633213E+03  0.00000000000E+00 0. -1.
      99926    2    1    2    0    0 -0.71054273576E-14  0.14210854715E-13 -0.19826658987E+03  0.50330607439E+03  0.46260929937E+03 0.  0.
      99925    2    3    3    0    0  0.41877067605E+02 -0.69817779941E+02 -0.21992944068E+03  0.35249162418E+03  0.26315997996E+03 0.  0.
         25    1    4    4    0    0  0.44425689577E+02 -0.46771747664E+02 -0.15601703086E+03  0.21011915737E+03  0.12509000000E+03 0.  0.
         25    1    3    3    0    0 -0.41877067605E+02  0.69817779941E+02  0.21662850810E+02  0.15081445021E+03  0.12509000000E+03 0.  0.
         25    1    4    4    0    0 -0.25486219724E+01 -0.23046032277E+02 -0.63912409818E+02  0.14237246681E+03  0.12509000000E+03 0.  0.
<mgrwt>
<rscale>  2 0.46260930E+03</rscale>
<asrwt>0</asrwt>
<pdfrwt beam="1">  1       21 0.22429374E-01 0.46260930E+03</pdfrwt>
<pdfrwt beam="2">  1       21 0.51586225E-01 0.46260930E+03</pdfrwt>
<totfact> 0.61254553E+04</totfact>
</mgrwt>
</event>
<event>
 7    0  0.4737014E-002  0.4482999E+03  0.7546771E-02  0.1028230E+00
         21   -1    0    0  502  501  0.00000000000E+00  0.00000000000E+00  0.13207479433E+04  0.13207479433E+04  0.00000000000E+00 0. -1.
         21   -1    0    0  501  502 -0.00000000000E+00 -0.00000000000E+00 -0.38041469340E+02  0.38041469340E+02  0.00000000000E+00 0. -1.
      99926    2    1    2    0    0  0.44408920985E-14  0.00000000000E+00  0.12827064740E+04  0.13587894127E+04  0.44829986568E+03 0.  0.
      99925    2    3    3    0    0 -0.81133364085E+00 -0.37015009230E+02  0.11157416609E+04  0.11469037688E+04  0.26294111861E+03 0.  0.
         25    1    4    4    0    0 -0.40121828974E+02 -0.25184021581E+02  0.57965294487E+03  0.59488573751E+03  0.12509000000E+03 0.  0.
         25    1    4    4    0    0  0.39310495333E+02 -0.11830987649E+02  0.53608871600E+03  0.55201803126E+03  0.12509000000E+03 0.  0.
         25    1    3    3    0    0  0.81133364085E+00  0.37015009230E+02  0.16696481314E+03  0.21188564392E+03  0.12509000000E+03 0.  0.
<mgrwt>
<rscale>  2 0.44829987E+03</rscale>
<asrwt>0</asrwt>
<pdfrwt beam="1">  1       21 0.19422761E+00 0.44829987E+03</pdfrwt>
<pdfrwt beam="2">  1       21 0.55943346E-02 0.44829987E+03</pdfrwt>
<totfact> 0.28928719E+04</totfact>
</mgrwt>
</event>
<event>
 7    0  0.4737014E-002  0.4636483E+03  0.7546771E-02  0.1023728E+00
         21   -1    0    0  502  501  0.00000000000E+00  0.00000000000E+00  0.90759896680E+03  0.90759896680E+03  0.00000000000E+00 0. -1.
         21   -1    0    0  501  502 -0.00000000000E+00 -0.00000000000E+00 -0.59213852755E+02  0.59213852755E+02  0.00000000000E+00 0. -1.
      99926    2    1    2    0    0  0.00000000000E+00 -0.17763568394E-14  0.84838511404E+03  0.96681281955E+03  0.46364827868E+03 0.  0.
      99925    2    3    3    0    0 -0.81891802511E+02 -0.99795464562E+01  0.71472451633E+03  0.76601809316E+03  0.26295765084E+03 0.  0.
         25    1    4    4    0    0 -0.71484718513E+02 -0.31040716215E+02  0.41482059729E+03  0.44022406463E+03  0.12509000000E+03 0.  0.
         25    1    4    4    0    0 -0.10407083999E+02  0.21061169759E+02  0.29990391904E+03  0.32579402853E+03  0.12509000000E+03 0.  0.
         25    1    3    3    0    0  0.81891802511E+02  0.99795464562E+01  0.13366059771E+03  0.20079472639E+03  0.12509000000E+03 0.  0.
<mgrwt>
<rscale>  2 0.46364828E+03</rscale>
<asrwt>0</asrwt>
<pdfrwt beam="1">  1       21 0.13347043E+00 0.46364828E+03</pdfrwt>
<pdfrwt beam="2">  1       21 0.87079201E-02 0.46364828E+03</pdfrwt>
<totfact> 0.37843097E+04</totfact>
</mgrwt>
</event>
<event>
 7    0  0.4737014E-002  0.4338306E+03  0.7546771E-02  0.1032657E+00
         21   -1    0    0  502  501  0.00000000000E+00  0.00000000000E+00  0.33662304889E+02  0.33662304889E+02  0.00000000000E+00 0.  1.
         21   -1    0    0  501  502 -0.00000000000E+00 -0.00000000000E+00 -0.13977728110E+04  0.13977728110E+04  0.00000000000E+00 0.  1.
      99926    2    1    2    0    0  0.17763568394E-14  0.14210854715E-13 -0.13641105061E+04  0.14314351159E+04  0.43383063298E+03 0.  0.
      99925    2    3    3    0    0  0.14720258916E+02  0.73311788471E+02 -0.10525410216E+04  0.10874665765E+04  0.26296320725E+03 0.  0.
         25    1    3    3    0    0 -0.14720258916E+02 -0.73311788471E+02 -0.31156948447E+03  0.34396853942E+03  0.12509000000E+03 0.  0.
         25    1    4    4    0    0  0.79400864142E+01  0.19368019918E+01 -0.39981768277E+03  0.41900893037E+03  0.12509000000E+03 0.  0.
         25    1    4    4    0    0  0.67801725021E+01  0.71374986479E+02 -0.65272333885E+03  0.66845764609E+03  0.12509000000E+03 0.  0.
<mgrwt>
<rscale>  2 0.43383063E+03</rscale>
<asrwt>0</asrwt>
<pdfrwt beam="1">  1       21 0.49503390E-02 0.43383063E+03</pdfrwt>
<pdfrwt beam="2">  1       21 0.20555482E+00 0.43383063E+03</pdfrwt>
<totfact> 0.30172631E+04</totfact>
</mgrwt>
</event>
<event>
 7    0  0.4737014E-002  0.4487544E+03  0.7546771E-02  0.1028094E+00
         21   -1    0    0  502  501  0.00000000000E+00  0.00000000000E+00  0.60956860797E+02  0.60956860797E+02  0.00000000000E+00 0.  1.
         21   -1    0    0  501  502 -0.00000000000E+00 -0.00000000000E+00 -0.82591409692E+03  0.82591409692E+03  0.00000000000E+00 0.  1.
      99926    2    1    2    0    0  0.00000000000E+00  0.00000000000E+00 -0.76495723613E+03  0.88687095772E+03  0.44875441228E+03 0.  0.
      99925    2    3    3    0    0 -0.48997011841E+02 -0.72119282509E+02 -0.36163547762E+03  0.45568903896E+03  0.26319267368E+03 0.  0.
         25    1    4    4    0    0 -0.39921005530E+02 -0.76072097178E+02 -0.20111863808E+03  0.25194615562E+03  0.12509000000E+03 0.  0.
         25    1    3    3    0    0  0.48997011841E+02  0.72119282509E+02 -0.40332175851E+03  0.43118191876E+03  0.12509000000E+03 0.  0.
         25    1    4    4    0    0 -0.90760063103E+01  0.39528146683E+01 -0.16051683954E+03  0.20374288334E+03  0.12509000000E+03 0.  0.
<mgrwt>
<rscale>  2 0.44875441E+03</rscale>
<asrwt>0</asrwt>
<pdfrwt beam="1">  1       21 0.89642441E-02 0.44875441E+03</pdfrwt>
<pdfrwt beam="2">  1       21 0.12145796E+00 0.44875441E+03</pdfrwt>
<totfact> 0.46015867E+04</totfact>
</mgrwt>
</event>
<event>
 7    0  0.4737014E-002  0.4544491E+03  0.7546771E-02  0.1026404E+00
         21   -1    0    0  502  501  0.00000000000E+00  0.00000000000E+00  0.62997201125E+02  0.62997201125E+02  0.00000000000E+00 0.  1.
         21   -1    0    0  501  502 -0.00000000000E+00 -0.00000000000E+00 -0.81957604960E+03  0.81957604960E+03  0.00000000000E+00 0.  1.
      99926    2    1    2    0    0  0.00000000000E+00 -0.14210854715E-13 -0.75657884847E+03  0.88257325073E+03  0.45444910489E+03 0.  0.
      99925    2    3    3    0    0 -0.67949744155E+02  0.88445174133E+02 -0.44545664737E+03  0.52918359514E+03  0.26299037267E+03 0.  0.
         25    1    3    3    0    0  0.67949744155E+02 -0.88445174133E+02 -0.31112220110E+03  0.35338965559E+03  0.12509000000E+03 0.  0.
         25    1    4    4    0    0 -0.49646793517E+02  0.81053036677E+02 -0.27678119471E+03  0.31826048562E+03  0.12509000000E+03 0.  0.
         25    1    4    4    0    0 -0.18302950638E+02  0.73921374555E+01 -0.16867545266E+03  0.21092310952E+03  0.12509000000E+03 0.  0.
<mgrwt>
<rscale>  2 0.45444910E+03</rscale>
<asrwt>0</asrwt>
<pdfrwt beam="1">  1       21 0.92642948E-02 0.45444910E+03</pdfrwt>
<pdfrwt beam="2">  1       21 0.12052588E+00 0.45444910E+03</pdfrwt>
<totfact> 0.44186090E+04</totfact>
</mgrwt>
</event>
<event>
 7    0  0.4737014E-002  0.4548173E+03  0.7546771E-02  0.1026295E+00
         21   -1    0    0  502  501  0.00000000000E+00  0.00000000000E+00  0.92002598064E+03  0.92002598064E+03  0.00000000000E+00 0.  1.
         21   -1    0    0  501  502 -0.00000000000E+00 -0.00000000000E+00 -0.56210031713E+02  0.56210031713E+02  0.00000000000E+00 0.  1.
      99926    2    1    2    0    0 -0.71054273576E-14  0.71054273576E-14  0.86381594892E+03  0.97623601235E+03  0.45481728001E+03 0.  0.
      99925    2    3    3    0    0  0.62329677280E+02 -0.51043355247E+02  0.71447358969E+03  0.76542552602E+03  0.26251345248E+03 0.  0.
         25    1    3    3    0    0 -0.62329677280E+02  0.51043355247E+02  0.14934235923E+03  0.21081048633E+03  0.12509000000E+03 0.  0.
         25    1    4    4    0    0  0.50825383870E+02  0.40515665410E+01  0.40446885270E+03  0.42642959060E+03  0.12509000000E+03 0.  0.
         25    1    4    4    0    0  0.11504293411E+02 -0.55094921788E+02  0.31000473700E+03  0.33899593542E+03  0.12509000000E+03 0.  0.
<mgrwt>
<rscale>  2 0.45481728E+03</rscale>
<asrwt>0</asrwt>
<pdfrwt beam="1">  1       21 0.13529793E+00 0.45481728E+03</pdfrwt>
<pdfrwt beam="2">  1       21 0.82661817E-02 0.45481728E+03</pdfrwt>
<totfact> 0.40153570E+04</totfact>
</mgrwt>
</event>
<event>
 7    0  0.4737014E-002  0.4382193E+03  0.7546771E-02  0.1031295E+00
         21   -1    0    0  502  501  0.00000000000E+00  0.00000000000E+00  0.10888220119E+03  0.10888220119E+03  0.00000000000E+00 0.  1.
         21   -1    0    0  501  502 -0.00000000000E+00 -0.00000000000E+00 -0.44092642353E+03  0.44092642353E+03  0.00000000000E+00 0.  1.
      99926    2    1    2    0    0 -0.71054273576E-14  0.00000000000E+00 -0.33204422234E+03  0.54980862472E+03  0.43821930381E+03 0.  0.
      99925    2    3    3    0    0 -0.62729538864E+02  0.57065566682E+02 -0.27014643341E+03  0.38649812806E+03  0.26307837912E+03 0.  0.
         25    1    4    4    0    0 -0.66619255103E+02  0.34272546838E+02 -0.17415813261E+03  0.22713717413E+03  0.12509000000E+03 0.  0.
         25    1    3    3    0    0  0.62729538864E+02 -0.57065566682E+02 -0.61897788934E+02  0.16331049667E+03  0.12509000000E+03 0.  0.
         25    1    4    4    0    0  0.38897162393E+01  0.22793019844E+02 -0.95988300799E+02  0.15936095393E+03  0.12509000000E+03 0.  0.
<mgrwt>
<rscale>  2 0.43821930E+03</rscale>
<asrwt>0</asrwt>
<pdfrwt beam="1">  1       21 0.16012089E-01 0.43821930E+03</pdfrwt>
<pdfrwt beam="2">  1       21 0.64842120E-01 0.43821930E+03</pdfrwt>
<totfact> 0.70824116E+04</totfact>
</mgrwt>
</event>
<event>
 7    0  0.4737014E-002  0.4557726E+03  0.7546771E-02  0.1026014E+00
         21   -1    0    0  502  501  0.00000000000E+00  0.00000000000E+00  0.73999463884E+03  0.73999463884E+03  0.00000000000E+00 0.  1.
         21   -1    0    0  501  502 -0.00000000000E+00 -0.00000000000E+00 -0.70179102103E+02  0.70179102103E+02  0.00000000000E+00 0.  1.
      99926    2    1    2    0    0 -0.71054273576E-14 -0.14210854715E-13  0.66981553674E+03  0.81017374094E+03  0.45577257186E+03 0.  0.
      99925    2    3    3    0    0  0.39834728629E+02  0.76741699637E+02  0.55286338446E+03  0.61833680996E+03  0.26307108280E+03 0.  0.
         25    1    4    4    0    0  0.21679074200E+01  0.51577789626E+02  0.20239865144E+03  0.24347010167E+03  0.12509000000E+03 0.  0.
         25    1    3    3    0    0 -0.39834728629E+02 -0.76741699637E+02  0.11695215228E+03  0.19183693099E+03  0.12509000000E+03 0.  0.
         25    1    4    4    0    0  0.37666821209E+02  0.25163910011E+02  0.35046473302E+03  0.37486670828E+03  0.12509000000E+03 0.  0.
<mgrwt>
<rscale>  2 0.45577257E+03</rscale>
<asrwt>0</asrwt>
<pdfrwt beam="1">  1       21 0.10882274E+00 0.45577257E+03</pdfrwt>
<pdfrwt beam="2">  1       21 0.10320457E-01 0.45577257E+03</pdfrwt>
<totfact> 0.46991119E+04</totfact>
</mgrwt>
</event>
<event>
 7    0  0.4737014E-002  0.4447230E+03  0.7546771E-02  0.1029307E+00
         21   -1    0    0  502  501  0.00000000000E+00  0.00000000000E+00  0.25241492360E+03  0.25241492360E+03  0.00000000000E+00 0. -1.
         21   -1    0    0  501  502 -0.00000000000E+00 -0.00000000000E+00 -0.19588635908E+03  0.19588635908E+03  0.00000000000E+00 0. -1.
      99926    2    1    2    0    0  0.00000000000E+00  0.71054273576E-14  0.56528564525E+02  0.44830128268E+03  0.44472301655E+03 0.  0.
      99925    2    3    3    0    0 -0.90852526443E+02 -0.36844613346E+02  0.30538800811E+01  0.28061479822E+03  0.26291373434E+03 0.  0.
         25    1    3    3    0    0  0.90852526443E+02  0.36844613346E+02  0.53474684444E+02  0.16768648446E+03  0.12509000000E+03 0.  0.
         25    1    4    4    0    0 -0.72058188370E+02 -0.35260764120E+02  0.29177936407E+02  0.15144161935E+03  0.12509000000E+03 0.  0.
         25    1    4    4    0    0 -0.18794338072E+02 -0.15838492254E+01 -0.26124056325E+02  0.12917317888E+03  0.12509000000E+03 0.  0.
<mgrwt>
<rscale>  2 0.44472302E+03</rscale>
<asrwt>0</asrwt>
<pdfrwt beam="1">  1       21 0.37119842E-01 0.44472302E+03</pdfrwt>
<pdfrwt beam="2">  1       21 0.28806817E-01 0.44472302E+03</pdfrwt>
<totfact> 0.75002772E+04</totfact>
</mgrwt>
</event>
<event>
 7    0  0.4737014E-002  0.4452389E+03  0.7546771E-02  0.1029151E+00
         21   -1    0    0  502  501  0.00000000000E+00  0.00000000000E+00  0.13433030856E+04  0.13433030856E+04  0.00000000000E+00 0. -1.
         21   -1    0    0  501  502 -0.00000000000E+00 -0.00000000000E+00 -0.36893696600E+02  0.36893696600E+02  0.00000000000E+00 0. -1.
      99926    2    1    2    0    0  0.00000000000E+00  0.88817841970E-15  0.13064093890E+04  0.13801967822E+04  0.44523888636E+03 0.  0.
      99925    2    3    3    0    0  0.96584738327E+02  0.45172516537E+01  0.71222721290E+03  0.76533990151E+03  0.26292307773E+03 0.  0.
         25    1    4    4    0    0  0.60746909296E+02  0.36262839463E+02  0.41929254164E+03  0.44323687131E+03  0.12509000000E+03 0.  0.
         25    1    4    4    0    0  0.35837829031E+02 -0.31745587810E+02  0.29293467126E+03  0.32210303020E+03  0.12509000000E+03 0.  0.
         25    1    3    3    0    0 -0.96584738327E+02 -0.45172516537E+01  0.59418217607E+03  0.61485688066E+03  0.12509000000E+03 0.  0.
<mgrwt>
<rscale>  2 0.44523889E+03</rscale>
<asrwt>0</asrwt>
<pdfrwt beam="1">  1       21 0.19754454E+00 0.44523889E+03</pdfrwt>
<pdfrwt beam="2">  1       21 0.54255445E-02 0.44523889E+03</pdfrwt>
<totfact> 0.29003229E+04</totfact>
</mgrwt>
</event>
<event>
 7    0  0.4737014E-002  0.4436244E+03  0.7546771E-02  0.1029641E+00
         21   -1    0    0  502  501  0.00000000000E+00  0.00000000000E+00  0.19485026035E+03  0.19485026035E+03  0.00000000000E+00 0.  1.
         21   -1    0    0  501  502 -0.00000000000E+00 -0.00000000000E+00 -0.25250489850E+03  0.25250489850E+03  0.00000000000E+00 0.  1.
      99926    2    1    2    0    0  0.00000000000E+00  0.14210854715E-13 -0.57654638141E+02  0.44735515885E+03  0.44362436909E+03 0.  0.
      99925    2    3    3    0    0  0.73246942343E+02  0.70427176805E+02 -0.47993033708E+02  0.28590561102E+03  0.26289462781E+03 0.  0.
         25    1    3    3    0    0 -0.73246942343E+02 -0.70427176805E+02 -0.96616044329E+01  0.16144954783E+03  0.12509000000E+03 0.  0.
         25    1    4    4    0    0  0.48807402025E+02 -0.32699698156E+00 -0.39125231658E+02  0.13985907647E+03  0.12509000000E+03 0.  0.
         25    1    4    4    0    0  0.24439540318E+02  0.70754173786E+02 -0.88678020494E+01  0.14604653454E+03  0.12509000000E+03 0.  0.
<mgrwt>
<rscale>  2 0.44362437E+03</rscale>
<asrwt>0</asrwt>
<pdfrwt beam="1">  1       21 0.28654450E-01 0.44362437E+03</pdfrwt>
<pdfrwt beam="2">  1       21 0.37133073E-01 0.44362437E+03</pdfrwt>
<totfact> 0.75754692E+04</totfact>
</mgrwt>
</event>
<event>
 7    0  0.4737014E-002  0.4549225E+03  0.7546771E-02  0.1026264E+00
         21   -1    0    0  502  501  0.00000000000E+00  0.00000000000E+00  0.14709058641E+03  0.14709058641E+03  0.00000000000E+00 0. -1.
         21   -1    0    0  501  502 -0.00000000000E+00 -0.00000000000E+00 -0.35174658870E+03  0.35174658870E+03  0.00000000000E+00 0. -1.
      99926    2    1    2    0    0  0.00000000000E+00  0.00000000000E+00 -0.20465600229E+03  0.49883717511E+03  0.45492246373E+03 0.  0.
      99925    2    3    3    0    0  0.70197040659E+02 -0.48419855588E+02 -0.47029548905E+02  0.28028348872E+03  0.26282113432E+03 0.  0.
         25    1    4    4    0    0  0.50234514794E+02 -0.25123095375E+02 -0.62250554832E+02  0.15058989367E+03  0.12509000000E+03 0.  0.
         25    1    4    4    0    0  0.19962525865E+02 -0.23296760213E+02  0.15221005927E+02  0.12969359505E+03  0.12509000000E+03 0.  0.
         25    1    3    3    0    0 -0.70197040659E+02  0.48419855588E+02 -0.15762645338E+03  0.21855368640E+03  0.12509000000E+03 0.  0.
<mgrwt>
<rscale>  2 0.45492246E+03</rscale>
<asrwt>0</asrwt>
<pdfrwt beam="1">  1       21 0.21630969E-01 0.45492246E+03</pdfrwt>
<pdfrwt beam="2">  1       21 0.51727440E-01 0.45492246E+03</pdfrwt>
<totfact> 0.65392669E+04</totfact>
</mgrwt>
</event>
<event>
 7    0  0.4737014E-002  0.4528487E+03  0.7546771E-02  0.1026876E+00
         21   -1    0    0  502  501  0.00000000000E+00  0.00000000000E+00  0.16540786802E+04  0.16540786802E+04  0.00000000000E+00 0.  1.
         21   -1    0    0  501  502 -0.00000000000E+00 -0.00000000000E+00 -0.30994883134E+02  0.30994883134E+02  0.00000000000E+00 0.  1.
      99926    2    1    2    0    0  0.00000000000E+00  0.35527136788E-14  0.16230837970E+04  0.16850735633E+04  0.45284865192E+03 0.  0.
      99925    2    3    3    0    0 -0.90062120788E+02 -0.20204325431E+02  0.12537357014E+04  0.12843430750E+04  0.26299149244E+03 0.  0.
         25    1    4    4    0    0 -0.69177064316E+02  0.22884421748E+02  0.64509700907E+03  0.66114054648E+03  0.12509000000E+03 0.  0.
         25    1    3    3    0    0  0.90062120788E+02  0.20204325431E+02  0.36934809564E+03  0.40073048826E+03  0.12509000000E+03 0.  0.
         25    1    4    4    0    0 -0.20885056473E+02 -0.43088747179E+02  0.60863869231E+03  0.62320252855E+03  0.12509000000E+03 0.  0.
<mgrwt>
<rscale>  2 0.45284865E+03</rscale>
<asrwt>0</asrwt>
<pdfrwt beam="1">  1       21 0.24324681E+00 0.45284865E+03</pdfrwt>
<pdfrwt beam="2">  1       21 0.45580722E-02 0.45284865E+03</pdfrwt>
<totfact> 0.19904343E+04</totfact>
</mgrwt>
</event>
<event>
 7    0  0.4737014E-002  0.4588797E+03  0.7546771E-02  0.1025107E+00
         21   -1    0    0  502  501  0.00000000000E+00  0.00000000000E+00  0.63957454134E+02  0.63957454134E+02  0.00000000000E+00 0.  1.
         21   -1    0    0  501  502 -0.00000000000E+00 -0.00000000000E+00 -0.82308850871E+03  0.82308850871E+03  0.00000000000E+00 0.  1.
      99926    2    1    2    0    0  0.35527136788E-14  0.00000000000E+00 -0.75913105457E+03  0.88704596284E+03  0.45887970338E+03 0.  0.
      99925    2    3    3    0    0 -0.14540654433E+02 -0.81933131929E+02 -0.31756806878E+03  0.42062357137E+03  0.26296433550E+03 0.  0.
         25    1    4    4    0    0 -0.35795088821E+02 -0.37321361592E+02 -0.20275911835E+03  0.24378872121E+03  0.12509000000E+03 0.  0.
         25    1    3    3    0    0  0.14540654433E+02  0.81933131929E+02 -0.44156298580E+03  0.46642239147E+03  0.12509000000E+03 0.  0.
         25    1    4    4    0    0  0.21254434388E+02 -0.44611770337E+02 -0.11480895043E+03  0.17683485016E+03  0.12509000000E+03 0.  0.
<mgrwt>
<rscale>  2 0.45887970E+03</rscale>
<asrwt>0</asrwt>
<pdfrwt beam="1">  1       21 0.94055082E-02 0.45887970E+03</pdfrwt>
<pdfrwt beam="2">  1       21 0.12104242E+00 0.45887970E+03</pdfrwt>
<totfact> 0.42492723E+04</totfact>
</mgrwt>
</event>
<event>
 7    0  0.4737014E-002  0.4704848E+03  0.7546771E-02  0.1021783E+00
         21   -1    0    0  502  501  0.00000000000E+00  0.00000000000E+00  0.27028180884E+03  0.27028180884E+03  0.00000000000E+00 0. -1.
         21   -1    0    0  501  502 -0.00000000000E+00 -0.00000000000E+00 -0.20474548515E+03  0.20474548515E+03  0.00000000000E+00 0. -1.
      99926    2    1    2    0    0  0.00000000000E+00  0.00000000000E+00  0.65536323687E+02  0.47502729399E+03  0.47048477160E+03 0.  0.
      99925    2    3    3    0    0 -0.13339204286E+02 -0.30316315195E+02  0.16453745936E+03  0.31209863996E+03  0.26312729276E+03 0.  0.
         25    1    4    4    0    0  0.21445376893E+02 -0.44727658515E+02  0.82621391361E+02  0.15790588981E+03  0.12509000000E+03 0.  0.
         25    1    3    3    0    0  0.13339204286E+02  0.30316315195E+02 -0.99001135668E+02  0.16292865402E+03  0.12509000000E+03 0.  0.
         25    1    4    4    0    0 -0.34784581179E+02  0.14411343319E+02  0.81916067994E+02  0.15419275015E+03  0.12509000000E+03 0.  0.
<mgrwt>
<rscale>  2 0.47048477E+03</rscale>
<asrwt>0</asrwt>
<pdfrwt beam="1">  1       21 0.39747325E-01 0.47048477E+03</pdfrwt>
<pdfrwt beam="2">  1       21 0.30109630E-01 0.47048477E+03</pdfrwt>
<totfact> 0.59414878E+04</totfact>
</mgrwt>
</event>
<event>
 7    0  0.4737014E-002  0.4556057E+03  0.7546771E-02  0.1026063E+00
         21   -1    0    0  502  501  0.00000000000E+00  0.00000000000E+00  0.43117878180E+02  0.43117878180E+02  0.00000000000E+00 0. -1.
         21   -1    0    0  501  502 -0.00000000000E+00 -0.00000000000E+00 -0.12035411316E+04  0.12035411316E+04  0.00000000000E+00 0. -1.
      99926    2    1    2    0    0  0.00000000000E+00  0.00000000000E+00 -0.11604232535E+04  0.12466590098E+04  0.45560570628E+03 0.  0.
      99925    2    3    3    0    0  0.45626472786E+02  0.10207259839E+03 -0.65835981394E+03  0.71730487905E+03  0.26189321208E+03 0.  0.
         25    1    3    3    0    0 -0.45626472786E+02 -0.10207259839E+03 -0.50206343953E+03  0.52935413078E+03  0.12509000000E+03 0.  0.
         25    1    4    4    0    0  0.29875512407E+02  0.75692973960E+02 -0.27495534781E+03  0.31284169150E+03  0.12509000000E+03 0.  0.
         25    1    4    4    0    0  0.15750960379E+02  0.26379624433E+02 -0.38340446613E+03  0.40446318755E+03  0.12509000000E+03 0.  0.
<mgrwt>
<rscale>  2 0.45560571E+03</rscale>
<asrwt>0</asrwt>
<pdfrwt beam="1">  1       21 0.63408650E-02 0.45560571E+03</pdfrwt>
<pdfrwt beam="2">  1       21 0.17699133E+00 0.45560571E+03</pdfrwt>
<totfact> 0.30559671E+04</totfact>
</mgrwt>
</event>
<event>
 7    0  0.4737014E-002  0.4534068E+03  0.7546771E-02  0.1026711E+00
         21   -1    0    0  502  501  0.00000000000E+00  0.00000000000E+00  0.30660766269E+03  0.30660766269E+03  0.00000000000E+00 0.  1.
         21   -1    0    0  501  502 -0.00000000000E+00 -0.00000000000E+00 -0.16762279097E+03  0.16762279097E+03  0.00000000000E+00 0.  1.
      99926    2    1    2    0    0  0.00000000000E+00 -0.71054273576E-14  0.13898487172E+03  0.47423045366E+03  0.45340680257E+03 0.  0.
      99925    2    3    3    0    0  0.79261847121E+02  0.48261694766E+02  0.15245198801E+03  0.31789586724E+03  0.26306756199E+03 0.  0.
         25    1    3    3    0    0 -0.79261847121E+02 -0.48261694766E+02 -0.13467116291E+02  0.15633458642E+03  0.12509000000E+03 0.  0.
         25    1    4    4    0    0  0.78225577389E+01 -0.46689427030E+01  0.65144085365E+02  0.14133029185E+03  0.12509000000E+03 0.  0.
         25    1    4    4    0    0  0.71439289382E+02  0.52930637469E+02  0.87307902645E+02  0.17656557539E+03  0.12509000000E+03 0.  0.
<mgrwt>
<rscale>  2 0.45340680E+03</rscale>
<asrwt>0</asrwt>
<pdfrwt beam="1">  1       21 0.45089363E-01 0.45340680E+03</pdfrwt>
<pdfrwt beam="2">  1       21 0.24650410E-01 0.45340680E+03</pdfrwt>
<totfact> 0.67977962E+04</totfact>
</mgrwt>
</event>
<event>
 7    0  0.4737014E-002  0.4458165E+03  0.7546771E-02  0.1028977E+00
         21   -1    0    0  502  501  0.00000000000E+00  0.00000000000E+00  0.40267157335E+03  0.40267157335E+03  0.00000000000E+00 0. -1.
         21   -1    0    0  501  502 -0.00000000000E+00 -0.00000000000E+00 -0.12339608246E+03  0.12339608246E+03  0.00000000000E+00 0. -1.
      99926    2    1    2    0    0  0.00000000000E+00  0.00000000000E+00  0.27927549090E+03  0.52606765581E+03  0.44581653028E+03 0.  0.
      99925    2    3    3    0    0 -0.37682023432E+02  0.96351529372E+02  0.19381225298E+03  0.34261459577E+03  0.26290306146E+03 0.  0.
         25    1    3    3    0    0  0.37682023432E+02 -0.96351529372E+02  0.85463237912E+02  0.18345306004E+03  0.12509000000E+03 0.  0.
         25    1    4    4    0    0 -0.14436718634E+02  0.70679067648E+02  0.60529098543E+02  0.15657339914E+03  0.12509000000E+03 0.  0.
         25    1    4    4    0    0 -0.23245304798E+02  0.25672461725E+02  0.13328315444E+03  0.18604119663E+03  0.12509000000E+03 0.  0.
<mgrwt>
<rscale>  2 0.44581653E+03</rscale>
<asrwt>0</asrwt>
<pdfrwt beam="1">  1       21 0.59216407E-01 0.44581653E+03</pdfrwt>
<pdfrwt beam="2">  1       21 0.18146483E-01 0.44581653E+03</pdfrwt>
<totfact> 0.68308577E+04</totfact>
</mgrwt>
</event>
<event>
 7    0  0.4737014E-002  0.4571696E+03  0.7546771E-02  0.1025605E+00
         21   -1    0    0  502  501  0.00000000000E+00  0.00000000000E+00  0.83349763857E+02  0.83349763857E+02  0.00000000000E+00 0. -1.
         21   -1    0    0  501  502 -0.00000000000E+00 -0.00000000000E+00 -0.62688852120E+03  0.62688852120E+03  0.00000000000E+00 0. -1.
      99926    2    1    2    0    0  0.00000000000E+00  0.00000000000E+00 -0.54353875734E+03  0.71023828505E+03  0.45716959744E+03 0.  0.
      99925    2    3    3    0    0  0.28034385317E+01 -0.11407681381E+03 -0.32027343809E+03  0.43003070201E+03  0.26330581233E+03 0.  0.
         25    1    4    4    0    0  0.22557907104E+00 -0.91584849757E+02 -0.13641935476E+03  0.20650807259E+03  0.12509000000E+03 0.  0.
         25    1    3    3    0    0 -0.28034385317E+01  0.11407681381E+03 -0.22326531924E+03  0.28020758304E+03  0.12509000000E+03 0.  0.
         25    1    4    4    0    0  0.25778594606E+01 -0.22491964053E+02 -0.18385408333E+03  0.22352262942E+03  0.12509000000E+03 0.  0.
<mgrwt>
<rscale>  2 0.45716960E+03</rscale>
<asrwt>0</asrwt>
<pdfrwt beam="1">  1       21 0.12257318E-01 0.45716960E+03</pdfrwt>
<pdfrwt beam="2">  1       21 0.92189488E-01 0.45716960E+03</pdfrwt>
<totfact> 0.51466462E+04</totfact>
</mgrwt>
</event>
<event>
 7    0  0.4737014E-002  0.4514916E+03  0.7546771E-02  0.1027278E+00
         21   -1    0    0  502  501  0.00000000000E+00  0.00000000000E+00  0.93546621803E+03  0.93546621803E+03  0.00000000000E+00 0. -1.
         21   -1    0    0  501  502 -0.00000000000E+00 -0.00000000000E+00 -0.54476750240E+02  0.54476750240E+02  0.00000000000E+00 0. -1.
      99926    2    1    2    0    0  0.00000000000E+00  0.00000000000E+00  0.88098946779E+03  0.98994296827E+03  0.45149157032E+03 0.  0.
      99925    2    3    3    0    0 -0.39875293446E+02 -0.17373007027E+02  0.77737557083E+03  0.82179063215E+03  0.26293574227E+03 0.  0.
         25    1    4    4    0    0  0.19537773165E+01 -0.37042202625E+02  0.32642312483E+03  0.35153308030E+03  0.12509000000E+03 0.  0.
         25    1    3    3    0    0  0.39875293446E+02  0.17373007027E+02  0.10361389696E+03  0.16815233612E+03  0.12509000000E+03 0.  0.
         25    1    4    4    0    0 -0.41829070762E+02  0.19669195598E+02  0.45095244600E+03  0.47025755185E+03  0.12509000000E+03 0.  0.
<mgrwt>
<rscale>  2 0.45149157E+03</rscale>
<asrwt>0</asrwt>
<pdfrwt beam="1">  1       21 0.13756855E+00 0.45149157E+03</pdfrwt>
<pdfrwt beam="2">  1       21 0.80112873E-02 0.45149157E+03</pdfrwt>
<totfact> 0.40663149E+04</totfact>
</mgrwt>
</event>
<event>
 7    0  0.4737014E-002  0.4612057E+03  0.7546771E-02  0.1024432E+00
         21   -1    0    0  502  501  0.00000000000E+00  0.00000000000E+00  0.14102403565E+04  0.14102403565E+04  0.00000000000E+00 0.  1.
         21   -1    0    0  501  502 -0.00000000000E+00 -0.00000000000E+00 -0.37708237868E+02  0.37708237868E+02  0.00000000000E+00 0.  1.
      99926    2    1    2    0    0  0.00000000000E+00  0.00000000000E+00  0.13725321187E+04  0.14479485944E+04  0.46120571903E+03 0.  0.
      99925    2    3    3    0    0 -0.10164317859E+03  0.45354207507E+02  0.99016573077E+03  0.10305280600E+04  0.26300488219E+03 0.  0.
         25    1    4    4    0    0 -0.69739580348E+02  0.53494873131E+02  0.45692132476E+03  0.48181938072E+03  0.12509000000E+03 0.  0.
         25    1    4    4    0    0 -0.31903598240E+02 -0.81406656243E+01  0.53324440601E+03  0.54870867923E+03  0.12509000000E+03 0.  0.
         25    1    3    3    0    0  0.10164317859E+03 -0.45354207507E+02  0.38236638790E+03  0.41742053446E+03  0.12509000000E+03 0.  0.
<mgrwt>
<rscale>  2 0.46120572E+03</rscale>
<asrwt>0</asrwt>
<pdfrwt beam="1">  1       21 0.20738825E+00 0.46120572E+03</pdfrwt>
<pdfrwt beam="2">  1       21 0.55453300E-02 0.46120572E+03</pdfrwt>
<totfact> 0.23908105E+04</totfact>
</mgrwt>
</event>
<event>
 7    0  0.4737014E-002  0.4525834E+03  0.7546771E-02  0.1026954E+00
         21   -1    0    0  502  501  0.00000000000E+00  0.00000000000E+00  0.30862001448E+03  0.30862001448E+03  0.00000000000E+00 0.  1.
         21   -1    0    0  501  502 -0.00000000000E+00 -0.00000000000E+00 -0.16592552278E+03  0.16592552278E+03  0.00000000000E+00 0.  1.
      99926    2    1    2    0    0 -0.17763568394E-14  0.00000000000E+00  0.14269449170E+03  0.47454553726E+03  0.45258341658E+03 0.  0.
      99925    2    3    3    0    0 -0.12303366473E+02  0.18633467438E+02 -0.23045223736E+02  0.26570171927E+03  0.26375697593E+03 0.  0.
         25    1    4    4    0    0 -0.31022777948E+01 -0.20830686405E+02 -0.40268363249E+02  0.13308865768E+03  0.12509000000E+03 0.  0.
         25    1    4    4    0    0 -0.92010886786E+01  0.39464153843E+02  0.17223139513E+02  0.13261306160E+03  0.12509000000E+03 0.  0.
         25    1    3    3    0    0  0.12303366473E+02 -0.18633467438E+02  0.16573971544E+03  0.20884381798E+03  0.12509000000E+03 0.  0.
<mgrwt>
<rscale>  2 0.45258342E+03</rscale>
<asrwt>0</asrwt>
<pdfrwt beam="1">  1       21 0.45385296E-01 0.45258342E+03</pdfrwt>
<pdfrwt beam="2">  1       21 0.24400812E-01 0.45258342E+03</pdfrwt>
<totfact> 0.68401797E+04</totfact>
</mgrwt>
</event>
<event>
 7    0  0.4737014E-002  0.4560180E+03  0.7546771E-02  0.1025942E+00
         21   -1    0    0  502  501  0.00000000000E+00  0.00000000000E+00  0.70059625131E+02  0.70059625131E+02  0.00000000000E+00 0. -1.
         21   -1    0    0  501  502 -0.00000000000E+00 -0.00000000000E+00 -0.74205505508E+03  0.74205505508E+03  0.00000000000E+00 0. -1.
      99926    2    1    2    0    0  0.00000000000E+00  0.00000000000E+00 -0.67199542994E+03  0.81211468021E+03  0.45601797765E+03 0.  0.
      99925    2    3    3    0    0 -0.46097768463E+02  0.40138619255E+02 -0.25077535598E+03  0.36848198098E+03  0.26297258056E+03 0.  0.
         25    1    3    3    0    0  0.46097768463E+02 -0.40138619255E+02 -0.42122007396E+03  0.44363269922E+03  0.12509000000E+03 0.  0.
         25    1    4    4    0    0 -0.42400064488E+02  0.45672212350E+02 -0.16710118973E+03  0.21783946419E+03  0.12509000000E+03 0.  0.
         25    1    4    4    0    0 -0.36977039752E+01 -0.55335930951E+01 -0.83674166251E+02  0.15064251679E+03  0.12509000000E+03 0.  0.
<mgrwt>
<rscale>  2 0.45601798E+03</rscale>
<asrwt>0</asrwt>
<pdfrwt beam="1">  1       21 0.10302886E-01 0.45601798E+03</pdfrwt>
<pdfrwt beam="2">  1       21 0.10912574E+00 0.45601798E+03</pdfrwt>
<totfact> 0.46809372E+04</totfact>
</mgrwt>
</event>
<event>
 7    0  0.4737014E-002  0.4120113E+03  0.7546771E-02  0.1039698E+00
         21   -1    0    0  502  501  0.00000000000E+00  0.00000000000E+00  0.11813349759E+04  0.11813349759E+04  0.00000000000E+00 0. -1.
         21   -1    0    0  501  502 -0.00000000000E+00 -0.00000000000E+00 -0.35924033874E+02  0.35924033874E+02  0.00000000000E+00 0. -1.
      99926    2    1    2    0    0  0.35527136788E-14  0.00000000000E+00  0.11454109420E+04  0.12172590098E+04  0.41201125077E+03 0.  0.
      99925    2    3    3    0    0  0.24721565204E+02  0.32041477353E+02  0.90459627162E+03  0.94289241990E+03  0.26289520501E+03 0.  0.
         25    1    4    4    0    0 -0.42313180302E+01  0.15160613336E+02  0.57731401098E+03  0.59092023457E+03  0.12509000000E+03 0.  0.
         25    1    3    3    0    0 -0.24721565204E+02 -0.32041477353E+02  0.24081467043E+03  0.27436658989E+03  0.12509000000E+03 0.  0.
         25    1    4    4    0    0  0.28952883234E+02  0.16880864016E+02  0.32728226064E+03  0.35197218533E+03  0.12509000000E+03 0.  0.
<mgrwt>
<rscale>  2 0.41201125E+03</rscale>
<asrwt>0</asrwt>
<pdfrwt beam="1">  1       21 0.17372571E+00 0.41201125E+03</pdfrwt>
<pdfrwt beam="2">  1       21 0.52829469E-02 0.41201125E+03</pdfrwt>
<totfact> 0.44846964E+04</totfact>
</mgrwt>
</event>
<event>
 7    0  0.4737014E-002  0.4513197E+03  0.7546771E-02  0.1027329E+00
         21   -1    0    0  502  501  0.00000000000E+00  0.00000000000E+00  0.73159987839E+02  0.73159987839E+02  0.00000000000E+00 0.  1.
         21   -1    0    0  501  502 -0.00000000000E+00 -0.00000000000E+00 -0.69604136951E+03  0.69604136951E+03  0.00000000000E+00 0.  1.
      99926    2    1    2    0    0 -0.71054273576E-14  0.00000000000E+00 -0.62288138168E+03  0.76920135735E+03  0.45131974532E+03 0.  0.
      99925    2    3    3    0    0  0.44236710180E+02 -0.39192756910E+02 -0.55039886887E+03  0.61301498956E+03  0.26335433137E+03 0.  0.
         25    1    3    3    0    0 -0.44236710180E+02  0.39192756910E+02 -0.72482512803E+02  0.15618636779E+03  0.12509000000E+03 0.  0.
         25    1    4    4    0    0  0.21706679333E+02 -0.23390054358E+01 -0.35493336583E+03  0.37696399451E+03  0.12509000000E+03 0.  0.
         25    1    4    4    0    0  0.22530030847E+02 -0.36853751474E+02 -0.19546550304E+03  0.23605099506E+03  0.12509000000E+03 0.  0.
<mgrwt>
<rscale>  2 0.45131975E+03</rscale>
<asrwt>0</asrwt>
<pdfrwt beam="1">  1       21 0.10758823E-01 0.45131975E+03</pdfrwt>
<pdfrwt beam="2">  1       21 0.10235902E+00 0.45131975E+03</pdfrwt>
<totfact> 0.50740653E+04</totfact>
</mgrwt>
</event>
<event>
 7    0  0.4737014E-002  0.4509151E+03  0.7546771E-02  0.1027449E+00
         21   -1    0    0  502  501  0.00000000000E+00  0.00000000000E+00  0.61898265131E+02  0.61898265131E+02  0.00000000000E+00 0.  1.
         21   -1    0    0  501  502 -0.00000000000E+00 -0.00000000000E+00 -0.82120410300E+03  0.82120410300E+03  0.00000000000E+00 0.  1.
      99926    2    1    2    0    0  0.31086244690E-14 -0.17763568394E-14 -0.75930583787E+03  0.88310236813E+03  0.45091511083E+03 0.  0.
      99925    2    3    3    0    0  0.14302163203E+01 -0.15948365961E+02 -0.69145006014E+03  0.73989513868E+03  0.26284070210E+03 0.  0.
         25    1    3    3    0    0 -0.14302163203E+01  0.15948365961E+02 -0.67855777728E+02  0.14320722945E+03  0.12509000000E+03 0.  0.
         25    1    4    4    0    0  0.38203770486E+02 -0.17653237410E+02 -0.37925606408E+03  0.40156423535E+03  0.12509000000E+03 0.  0.
         25    1    4    4    0    0 -0.36773554166E+02  0.17048714485E+01 -0.31219399607E+03  0.33833090334E+03  0.12509000000E+03 0.  0.
<mgrwt>
<rscale>  2 0.45091511E+03</rscale>
<asrwt>0</asrwt>
<pdfrwt beam="1">  1       21 0.91026872E-02 0.45091511E+03</pdfrwt>
<pdfrwt beam="2">  1       21 0.12076529E+00 0.45091511E+03</pdfrwt>
<totfact> 0.45407660E+04</totfact>
</mgrwt>
</event>
<event>
 7    0  0.4737014E-002  0.4667543E+03  0.7546771E-02  0.1022840E+00
         21   -1    0    0  502  501  0.00000000000E+00  0.00000000000E+00  0.95730593207E+03  0.95730593207E+03  0.00000000000E+00 0.  1.
         21   -1    0    0  501  502 -0.00000000000E+00 -0.00000000000E+00 -0.56893925622E+02  0.56893925622E+02  0.00000000000E+00 0.  1.
      99926    2    1    2    0    0  0.35527136788E-14  0.00000000000E+00  0.90041200644E+03  0.10141998577E+04  0.46675429295E+03 0.  0.
      99925    2    3    3    0    0 -0.14698887121E+02 -0.10238804630E+03  0.70898942959E+03  0.76322280627E+03  0.26295184243E+03 0.  0.
         25    1    4    4    0    0  0.21627730919E+02 -0.20208907101E+02  0.32007565664E+03  0.34492331429E+03  0.12509000000E+03 0.  0.
         25    1    3    3    0    0  0.14698887121E+02  0.10238804630E+03  0.19142257685E+03  0.25097705141E+03  0.12509000000E+03 0.  0.
         25    1    4    4    0    0 -0.36326618040E+02 -0.82179139199E+02  0.38891377295E+03  0.41829949198E+03  0.12509000000E+03 0.  0.
<mgrwt>
<rscale>  2 0.46675429E+03</rscale>
<asrwt>0</asrwt>
<pdfrwt beam="1">  1       21 0.14078027E+00 0.46675429E+03</pdfrwt>
<pdfrwt beam="2">  1       21 0.83667544E-02 0.46675429E+03</pdfrwt>
<totfact> 0.35268936E+04</totfact>
</mgrwt>
</event>
<event>
 7    0  0.4737014E-002  0.4521849E+03  0.7546771E-02  0.1027072E+00
         21   -1    0    0  502  501  0.00000000000E+00  0.00000000000E+00  0.59781320216E+02  0.59781320216E+02  0.00000000000E+00 0. -1.
         21   -1    0    0  501  502 -0.00000000000E+00 -0.00000000000E+00 -0.85507978402E+03  0.85507978402E+03  0.00000000000E+00 0. -1.
      99926    2    1    2    0    0 -0.14210854715E-13  0.71054273576E-14 -0.79529846380E+03  0.91486110423E+03  0.45218491075E+03 0.  0.
      99925    2    3    3    0    0 -0.95279940956E+02  0.38438202492E+02 -0.58378735052E+03  0.64851504794E+03  0.26307476926E+03 0.  0.
         25    1    4    4    0    0 -0.55966536996E+02 -0.20653117162E+02 -0.28299953065E+03  0.31511116603E+03  0.12509000000E+03 0.  0.
         25    1    4    4    0    0 -0.39313403960E+02  0.59091319654E+02 -0.30078781987E+03  0.33340388191E+03  0.12509000000E+03 0.  0.
         25    1    3    3    0    0  0.95279940956E+02 -0.38438202492E+02 -0.21151111328E+03  0.26634605629E+03  0.12509000000E+03 0.  0.
<mgrwt>
<rscale>  2 0.45218491E+03</rscale>
<asrwt>0</asrwt>
<pdfrwt beam="1">  1       21 0.87913707E-02 0.45218491E+03</pdfrwt>
<pdfrwt beam="2">  1       21 0.12574703E+00 0.45218491E+03</pdfrwt>
<totfact> 0.43548662E+04</totfact>
</mgrwt>
</event>
<event>
 7    0  0.4737014E-002  0.4538285E+03  0.7546771E-02  0.1026586E+00
         21   -1    0    0  502  501  0.00000000000E+00  0.00000000000E+00  0.58967415147E+03  0.58967415147E+03  0.00000000000E+00 0. -1.
         21   -1    0    0  501  502 -0.00000000000E+00 -0.00000000000E+00 -0.87319561112E+02  0.87319561112E+02  0.00000000000E+00 0. -1.
      99926    2    1    2    0    0  0.00000000000E+00  0.00000000000E+00  0.50235459036E+03  0.67699371258E+03  0.45382854959E+03 0.  0.
      99925    2    3    3    0    0 -0.21442867333E+02 -0.30551916865E+02  0.15854798937E+03  0.30923876270E+03  0.26286485356E+03 0.  0.
         25    1    4    4    0    0  0.23613778788E+02 -0.34661212550E+02  0.88872542275E+02  0.15907497312E+03  0.12509000000E+03 0.  0.
         25    1    3    3    0    0  0.21442867333E+02  0.30551916865E+02  0.34380660098E+03  0.36775494988E+03  0.12509000000E+03 0.  0.
         25    1    4    4    0    0 -0.45056646121E+02  0.41092956852E+01  0.69675447100E+02  0.15016378957E+03  0.12509000000E+03 0.  0.
<mgrwt>
<rscale>  2 0.45382855E+03</rscale>
<asrwt>0</asrwt>
<pdfrwt beam="1">  1       21 0.86716785E-01 0.45382855E+03</pdfrwt>
<pdfrwt beam="2">  1       21 0.12841112E-01 0.45382855E+03</pdfrwt>
<totfact> 0.54673128E+04</totfact>
</mgrwt>
</event>
<event>
 7    0  0.4737014E-002  0.4571371E+03  0.7546771E-02  0.1025615E+00
         21   -1    0    0  502  501  0.00000000000E+00  0.00000000000E+00  0.32094628380E+03  0.32094628380E+03  0.00000000000E+00 0.  1.
         21   -1    0    0  501  502 -0.00000000000E+00 -0.00000000000E+00 -0.16277981743E+03  0.16277981743E+03  0.00000000000E+00 0.  1.
      99926    2    1    2    0    0  0.00000000000E+00 -0.71054273576E-14  0.15816646637E+03  0.48372610123E+03  0.45713708002E+03 0.  0.
      99925    2    3    3    0    0  0.98340396423E+01 -0.58122219299E+02 -0.44686701536E+01  0.27024871029E+03  0.26370342373E+03 0.  0.
         25    1    3    3    0    0 -0.98340396423E+01  0.58122219299E+02  0.16263513652E+03  0.21347739094E+03  0.12509000000E+03 0.  0.
         25    1    4    4    0    0  0.78936110477E+01 -0.77088060460E+01 -0.38119167135E+02  0.13123381344E+03  0.12509000000E+03 0.  0.
         25    1    4    4    0    0  0.19404285945E+01 -0.50413413253E+02  0.33650496982E+02  0.13901489685E+03  0.12509000000E+03 0.  0.
<mgrwt>
<rscale>  2 0.45713708E+03</rscale>
<asrwt>0</asrwt>
<pdfrwt beam="1">  1       21 0.47197983E-01 0.45713708E+03</pdfrwt>
<pdfrwt beam="2">  1       21 0.23938208E-01 0.45713708E+03</pdfrwt>
<totfact> 0.65314795E+04</totfact>
</mgrwt>
</event>
<event>
 7    0  0.4737014E-002  0.4584754E+03  0.7546771E-02  0.1025224E+00
         21   -1    0    0  502  501  0.00000000000E+00  0.00000000000E+00  0.38143881897E+03  0.38143881897E+03  0.00000000000E+00 0.  1.
         21   -1    0    0  501  502 -0.00000000000E+00 -0.00000000000E+00 -0.13776765343E+03  0.13776765343E+03  0.00000000000E+00 0.  1.
      99926    2    1    2    0    0  0.35527136788E-14  0.14210854715E-13  0.24367116555E+03  0.51920647240E+03  0.45847543453E+03 0.  0.
      99925    2    3    3    0    0 -0.19217295459E+02 -0.11378101188E+03  0.13520481515E+03  0.31739497526E+03  0.26295209672E+03 0.  0.
         25    1    3    3    0    0  0.19217295459E+02  0.11378101188E+03  0.10846635040E+03  0.20181149714E+03  0.12509000000E+03 0.  0.
         25    1    4    4    0    0 -0.26937487452E+02 -0.59562923733E+02  0.10904623280E+03  0.17835907350E+03  0.12509000000E+03 0.  0.
         25    1    4    4    0    0  0.77201919936E+01 -0.54218088148E+02  0.26158582352E+02  0.13903590176E+03  0.12509000000E+03 0.  0.
<mgrwt>
<rscale>  2 0.45847543E+03</rscale>
<asrwt>0</asrwt>
<pdfrwt beam="1">  1       21 0.56093944E-01 0.45847543E+03</pdfrwt>
<pdfrwt beam="2">  1       21 0.20259949E-01 0.45847543E+03</pdfrwt>
<totfact> 0.62208140E+04</totfact>
</mgrwt>
</event>
<event>
 7    0  0.4737014E-002  0.4433859E+03  0.7546771E-02  0.1029713E+00
         21   -1    0    0  502  501  0.00000000000E+00  0.00000000000E+00  0.45847627771E+03  0.45847627771E+03  0.00000000000E+00 0. -1.
         21   -1    0    0  501  502 -0.00000000000E+00 -0.00000000000E+00 -0.10719804251E+03  0.10719804251E+03  0.00000000000E+00 0. -1.
      99926    2    1    2    0    0 -0.17763568394E-14  0.35527136788E-14  0.35127823520E+03  0.56567432023E+03  0.44338587939E+03 0.  0.
      99925    2    3    3    0    0  0.47629869764E+00  0.26067875821E+02  0.34913345665E+03  0.43787811846E+03  0.26298919192E+03 0.  0.
         25    1    4    4    0    0 -0.19464402036E+02 -0.17053400761E+02  0.13921003662E+03  0.18893550174E+03  0.12509000000E+03 0.  0.
         25    1    3    3    0    0 -0.47629869764E+00 -0.26067875821E+02  0.21447785474E+01  0.12779620176E+03  0.12509000000E+03 0.  0.
         25    1    4    4    0    0  0.19940700733E+02  0.43121276582E+02  0.20992342003E+03  0.24894261672E+03  0.12509000000E+03 0.  0.
<mgrwt>
<rscale>  2 0.44338588E+03</rscale>
<asrwt>0</asrwt>
<pdfrwt beam="1">  1       21 0.67422981E-01 0.44338588E+03</pdfrwt>
<pdfrwt beam="2">  1       21 0.15764418E-01 0.44338588E+03</pdfrwt>
<totfact> 0.66766959E+04</totfact>
</mgrwt>
</event>
<event>
 7    0  0.4737014E-002  0.4569640E+03  0.7546771E-02  0.1025665E+00
         21   -1    0    0  502  501  0.00000000000E+00  0.00000000000E+00  0.15681685873E+03  0.15681685873E+03  0.00000000000E+00 0. -1.
         21   -1    0    0  501  502 -0.00000000000E+00 -0.00000000000E+00 -0.33289809742E+03  0.33289809742E+03  0.00000000000E+00 0. -1.
      99926    2    1    2    0    0 -0.14210854715E-13  0.00000000000E+00 -0.17608123869E+03  0.48971495615E+03  0.45696404198E+03 0.  0.
      99925    2    3    3    0    0  0.11274616716E+03 -0.18802934223E+02 -0.12394912439E+03  0.31242842540E+03  0.26302639984E+03 0.  0.
         25    1    4    4    0    0  0.72152119718E+02 -0.23463595760E+02 -0.26503113585E+02  0.14868218399E+03  0.12509000000E+03 0.  0.
         25    1    3    3    0    0 -0.11274616716E+03  0.18802934223E+02 -0.52132114300E+02  0.17728653075E+03  0.12509000000E+03 0.  0.
         25    1    4    4    0    0  0.40594047446E+02  0.46606615365E+01 -0.97446010802E+02  0.16374624141E+03  0.12509000000E+03 0.  0.
<mgrwt>
<rscale>  2 0.45696404E+03</rscale>
<asrwt>0</asrwt>
<pdfrwt beam="1">  1       21 0.23061303E-01 0.45696404E+03</pdfrwt>
<pdfrwt beam="2">  1       21 0.48955602E-01 0.45696404E+03</pdfrwt>
<totfact> 0.64980346E+04</totfact>
</mgrwt>
</event>
<event>
 7    0  0.4737014E-002  0.4538554E+03  0.7546771E-02  0.1026579E+00
         21   -1    0    0  502  501  0.00000000000E+00  0.00000000000E+00  0.18654412620E+03  0.18654412620E+03  0.00000000000E+00 0.  1.
         21   -1    0    0  501  502 -0.00000000000E+00 -0.00000000000E+00 -0.27605366182E+03  0.27605366182E+03  0.00000000000E+00 0.  1.
      99926    2    1    2    0    0  0.00000000000E+00  0.00000000000E+00 -0.89509535625E+02  0.46259778802E+03  0.45385543569E+03 0.  0.
      99925    2    3    3    0    0 -0.68254740300E+02 -0.83048558062E+02 -0.89052579092E+02  0.29766298429E+03  0.26290134615E+03 0.  0.
         25    1    3    3    0    0  0.68254740300E+02  0.83048558062E+02 -0.45695653313E+00  0.16493480372E+03  0.12509000000E+03 0.  0.
         25    1    4    4    0    0 -0.68004594145E+01 -0.19276767310E+02 -0.65248695724E+02  0.14255784931E+03  0.12509000000E+03 0.  0.
         25    1    4    4    0    0 -0.61454280886E+02 -0.63771790752E+02 -0.23803883368E+02  0.15510513498E+03  0.12509000000E+03 0.  0.
<mgrwt>
<rscale>  2 0.45385544E+03</rscale>
<asrwt>0</asrwt>
<pdfrwt beam="1">  1       21 0.27432960E-01 0.45385544E+03</pdfrwt>
<pdfrwt beam="2">  1       21 0.40596126E-01 0.45385544E+03</pdfrwt>
<totfact> 0.68611039E+04</totfact>
</mgrwt>
</event>
<event>
 7    0  0.4737014E-002  0.4535695E+03  0.7546771E-02  0.1026663E+00
         21   -1    0    0  502  501  0.00000000000E+00  0.00000000000E+00  0.56816813506E+02  0.56816813506E+02  0.00000000000E+00 0. -1.
         21   -1    0    0  501  502 -0.00000000000E+00 -0.00000000000E+00 -0.90521294832E+03  0.90521294832E+03  0.00000000000E+00 0. -1.
      99926    2    1    2    0    0  0.00000000000E+00  0.00000000000E+00 -0.84839613482E+03  0.96202976183E+03  0.45356946665E+03 0.  0.
      99925    2    3    3    0    0  0.32079556161E+02 -0.39445807734E+02 -0.74592922514E+03  0.79252446589E+03  0.26286793348E+03 0.  0.
         25    1    3    3    0    0 -0.32079556161E+02  0.39445807734E+02 -0.10246690968E+03  0.16950529594E+03  0.12509000000E+03 0.  0.
         25    1    4    4    0    0  0.30332183558E+02  0.17946621234E+02 -0.37512139393E+03  0.39699583230E+03  0.12509000000E+03 0.  0.
         25    1    4    4    0    0  0.17473726032E+01 -0.57392428968E+02 -0.37080783120E+03  0.39552863360E+03  0.12509000000E+03 0.  0.
<mgrwt>
<rscale>  2 0.45356947E+03</rscale>
<asrwt>0</asrwt>
<pdfrwt beam="1">  1       21 0.83554138E-02 0.45356947E+03</pdfrwt>
<pdfrwt beam="2">  1       21 0.13311955E+00 0.45356947E+03</pdfrwt>
<totfact> 0.41115466E+04</totfact>
</mgrwt>
</event>
<event>
 7    0  0.4737014E-002  0.4548912E+03  0.7546771E-02  0.1026273E+00
         21   -1    0    0  502  501  0.00000000000E+00  0.00000000000E+00  0.72172360573E+03  0.72172360573E+03  0.00000000000E+00 0. -1.
         21   -1    0    0  501  502 -0.00000000000E+00 -0.00000000000E+00 -0.71677704512E+02  0.71677704512E+02  0.00000000000E+00 0. -1.
      99926    2    1    2    0    0  0.00000000000E+00 -0.44408920985E-15  0.65004590121E+03  0.79340131024E+03  0.45489115775E+03 0.  0.
      99925    2    3    3    0    0  0.10835450268E+03  0.34788667592E+01  0.46508381088E+03  0.54518510665E+03  0.26300389465E+03 0.  0.
         25    1    4    4    0    0  0.33076054682E+02 -0.25348040631E+02  0.26324207194E+03  0.29441542945E+03  0.12509000000E+03 0.  0.
         25    1    3    3    0    0 -0.10835450268E+03 -0.34788667592E+01  0.18496209033E+03  0.24821620359E+03  0.12509000000E+03 0.  0.
         25    1    4    4    0    0  0.75278448002E+02  0.28826907391E+02  0.20184173894E+03  0.25076967719E+03  0.12509000000E+03 0.  0.
<mgrwt>
<rscale>  2 0.45489116E+03</rscale>
<asrwt>0</asrwt>
<pdfrwt beam="1">  1       21 0.10613582E+00 0.45489116E+03</pdfrwt>
<pdfrwt beam="2">  1       21 0.10540839E-01 0.45489116E+03</pdfrwt>
<totfact> 0.48126745E+04</totfact>
</mgrwt>
</event>
<event>
 7    0  0.4737014E-002  0.4441512E+03  0.7546771E-02  0.1029481E+00
         21   -1    0    0  502  501  0.00000000000E+00  0.00000000000E+00  0.65235247740E+02  0.65235247740E+02  0.00000000000E+00 0. -1.
         21   -1    0    0  501  502 -0.00000000000E+00 -0.00000000000E+00 -0.75599575199E+03  0.75599575199E+03  0.00000000000E+00 0. -1.
      99926    2    1    2    0    0 -0.17763568394E-14  0.00000000000E+00 -0.69076050425E+03  0.82123099973E+03  0.44415119125E+03 0.  0.
      99925    2    3    3    0    0 -0.33250770214E+00 -0.93632813197E+02 -0.51672534910E+03  0.58734436566E+03  0.26306102562E+03 0.  0.
         25    1    3    3    0    0  0.33250770214E+00  0.93632813197E+02 -0.17403515515E+03  0.23388663407E+03  0.12509000000E+03 0.  0.
         25    1    4    4    0    0 -0.16594981735E+02 -0.71225871466E+02 -0.33502880506E+03  0.36502099461E+03  0.12509000000E+03 0.  0.
         25    1    4    4    0    0  0.16262474033E+02 -0.22406941731E+02 -0.18169654404E+03  0.22232337105E+03  0.12509000000E+03 0.  0.
<mgrwt>
<rscale>  2 0.44415119E+03</rscale>
<asrwt>0</asrwt>
<pdfrwt beam="1">  1       21 0.95934190E-02 0.44415119E+03</pdfrwt>
<pdfrwt beam="2">  1       21 0.11117584E+00 0.44415119E+03</pdfrwt>
<totfact> 0.50956162E+04</totfact>
</mgrwt>
</event>
<event>
 7    0  0.4737014E-002  0.4527731E+03  0.7546771E-02  0.1026898E+00
         21   -1    0    0  502  501  0.00000000000E+00  0.00000000000E+00  0.13191118001E+03  0.13191118001E+03  0.00000000000E+00 0.  1.
         21   -1    0    0  501  502 -0.00000000000E+00 -0.00000000000E+00 -0.38852566525E+03  0.38852566525E+03  0.00000000000E+00 0.  1.
      99926    2    1    2    0    0  0.00000000000E+00  0.14210854715E-13 -0.25661448524E+03  0.52043684525E+03  0.45277313951E+03 0.  0.
      99925    2    3    3    0    0  0.36031546176E+02  0.10136145764E+03 -0.13095122370E+03  0.31304547414E+03  0.26320491727E+03 0.  0.
         25    1    4    4    0    0  0.30975783081E+02  0.20170027237E+02 -0.32979492590E+02  0.13454175622E+03  0.12509000000E+03 0.  0.
         25    1    4    4    0    0  0.50557630947E+01  0.81191430400E+02 -0.97971731115E+02  0.17850371791E+03  0.12509000000E+03 0.  0.
         25    1    3    3    0    0 -0.36031546176E+02 -0.10136145764E+03 -0.12566326153E+03  0.20739137112E+03  0.12509000000E+03 0.  0.
<mgrwt>
<rscale>  2 0.45277314E+03</rscale>
<asrwt>0</asrwt>
<pdfrwt beam="1">  1       21 0.19398703E-01 0.45277314E+03</pdfrwt>
<pdfrwt beam="2">  1       21 0.57136126E-01 0.45277314E+03</pdfrwt>
<totfact> 0.64998212E+04</totfact>
</mgrwt>
</event>
<event>
 7    0  0.4737014E-002  0.4627420E+03  0.7546771E-02  0.1023989E+00
         21   -1    0    0  502  501  0.00000000000E+00  0.00000000000E+00  0.17669134441E+03  0.17669134441E+03  0.00000000000E+00 0.  1.
         21   -1    0    0  501  502 -0.00000000000E+00 -0.00000000000E+00 -0.30297209267E+03  0.30297209267E+03  0.00000000000E+00 0.  1.
      99926    2    1    2    0    0  0.00000000000E+00  0.00000000000E+00 -0.12628074825E+03  0.47966343708E+03  0.46274202910E+03 0.  0.
      99925    2    3    3    0    0  0.82336769931E+02 -0.11289866672E+02  0.10832525750E+02  0.27630571586E+03  0.26328824552E+03 0.  0.
         25    1    4    4    0    0  0.75765126254E+02 -0.25913546898E+02 -0.82695123556E+01  0.14875402248E+03  0.12509000000E+03 0.  0.
         25    1    4    4    0    0  0.65716436766E+01  0.14623680226E+02  0.19102038105E+02  0.12755169338E+03  0.12509000000E+03 0.  0.
         25    1    3    3    0    0 -0.82336769931E+02  0.11289866672E+02 -0.13711327400E+03  0.20335772122E+03  0.12509000000E+03 0.  0.
<mgrwt>
<rscale>  2 0.46274203E+03</rscale>
<asrwt>0</asrwt>
<pdfrwt beam="1">  1       21 0.25984022E-01 0.46274203E+03</pdfrwt>
<pdfrwt beam="2">  1       21 0.44554719E-01 0.46274203E+03</pdfrwt>
<totfact> 0.62778010E+04</totfact>
</mgrwt>
</event>
<event>
 7    0  0.4737014E-002  0.4256137E+03  0.7546771E-02  0.1035255E+00
         21   -1    0    0  502  501  0.00000000000E+00  0.00000000000E+00  0.53996888984E+03  0.53996888984E+03  0.00000000000E+00 0. -1.
         21   -1    0    0  501  502 -0.00000000000E+00 -0.00000000000E+00 -0.83869206539E+02  0.83869206539E+02  0.00000000000E+00 0. -1.
      99926    2    1    2    0    0  0.00000000000E+00  0.00000000000E+00  0.45609968330E+03  0.62383809638E+03  0.42561373261E+03 0.  0.
      99925    2    3    3    0    0  0.74443467368E+02  0.35906161414E+02  0.29602633121E+03  0.40451625887E+03  0.26300329400E+03 0.  0.
         25    1    4    4    0    0  0.61860728737E+01 -0.93213771897E+01  0.14836163234E+03  0.19438065135E+03  0.12509000000E+03 0.  0.
         25    1    4    4    0    0  0.68257394495E+02  0.45227538604E+02  0.14766469887E+03  0.21013560751E+03  0.12509000000E+03 0.  0.
         25    1    3    3    0    0 -0.74443467368E+02 -0.35906161414E+02  0.16007335209E+03  0.21932183751E+03  0.12509000000E+03 0.  0.
<mgrwt>
<rscale>  2 0.42561373E+03</rscale>
<asrwt>0</asrwt>
<pdfrwt beam="1">  1       21 0.79407188E-01 0.42561373E+03</pdfrwt>
<pdfrwt beam="2">  1       21 0.12333707E-01 0.42561373E+03</pdfrwt>
<totfact> 0.72680177E+04</totfact>
</mgrwt>
</event>
<event>
 7    0  0.4737014E-002  0.4472556E+03  0.7546771E-02  0.1028544E+00
         21   -1    0    0  502  501  0.00000000000E+00  0.00000000000E+00  0.27018910787E+02  0.27018910787E+02  0.00000000000E+00 0.  1.
         21   -1    0    0  501  502 -0.00000000000E+00 -0.00000000000E+00 -0.18509032993E+04  0.18509032993E+04  0.00000000000E+00 0.  1.
      99926    2    1    2    0    0  0.00000000000E+00  0.14210854715E-13 -0.18238843885E+04  0.18779222100E+04  0.44725559189E+03 0.  0.
      99925    2    3    3    0    0  0.67048485407E+02 -0.71766725618E+02 -0.99209151212E+03  0.10310616197E+04  0.26305233854E+03 0.  0.
         25    1    4    4    0    0  0.47395557540E+02  0.13068714650E+01 -0.43487964787E+03  0.45498995925E+03  0.12509000000E+03 0.  0.
         25    1    3    3    0    0 -0.67048485407E+02  0.71766725618E+02 -0.83179287635E+03  0.84686059039E+03  0.12509000000E+03 0.  0.
         25    1    4    4    0    0  0.19652927867E+02 -0.73073597083E+02 -0.55721186425E+03  0.57607166041E+03  0.12509000000E+03 0.  0.
<mgrwt>
<rscale>  2 0.44725559E+03</rscale>
<asrwt>0</asrwt>
<pdfrwt beam="1">  1       21 0.39733681E-02 0.44725559E+03</pdfrwt>
<pdfrwt beam="2">  1       21 0.27219174E+00 0.44725559E+03</pdfrwt>
<totfact> 0.16793915E+04</totfact>
</mgrwt>
</event>
<event>
 7    0  0.4737014E-002  0.4607290E+03  0.7546771E-02  0.1024570E+00
         21   -1    0    0  502  501  0.00000000000E+00  0.00000000000E+00  0.12489211462E+04  0.12489211462E+04  0.00000000000E+00 0. -1.
         21   -1    0    0  501  502 -0.00000000000E+00 -0.00000000000E+00 -0.42490912179E+02  0.42490912179E+02  0.00000000000E+00 0. -1.
      99926    2    1    2    0    0  0.00000000000E+00  0.00000000000E+00  0.12064302340E+04  0.12914120583E+04  0.46072898212E+03 0.  0.
      99925    2    3    3    0    0 -0.37725282538E+02 -0.11124279330E+03  0.71299382087E+03  0.76898966421E+03  0.26303376031E+03 0.  0.
         25    1    4    4    0    0 -0.26585504031E+02 -0.99206122498E+02  0.40832797211E+03  0.43923556854E+03  0.12509000000E+03 0.  0.
         25    1    3    3    0    0  0.37725282538E+02  0.11124279330E+03  0.49343641311E+03  0.52242239413E+03  0.12509000000E+03 0.  0.
         25    1    4    4    0    0 -0.11139778507E+02 -0.12036670801E+02  0.30466584876E+03  0.32975409567E+03  0.12509000000E+03 0.  0.
<mgrwt>
<rscale>  2 0.46072898E+03</rscale>
<asrwt>0</asrwt>
<pdfrwt beam="1">  1       21 0.18366485E+00 0.46072898E+03</pdfrwt>
<pdfrwt beam="2">  1       21 0.62486644E-02 0.46072898E+03</pdfrwt>
<totfact> 0.28091949E+04</totfact>
</mgrwt>
</event>
<event>
 7    0  0.4737014E-002  0.4528751E+03  0.7546771E-02  0.1026868E+00
         21   -1    0    0  502  501  0.00000000000E+00  0.00000000000E+00  0.47892317736E+03  0.47892317736E+03  0.00000000000E+00 0. -1.
         21   -1    0    0  501  502 -0.00000000000E+00 -0.00000000000E+00 -0.10706094641E+03  0.10706094641E+03  0.00000000000E+00 0. -1.
      99926    2    1    2    0    0 -0.66613381478E-15  0.00000000000E+00  0.37186223095E+03  0.58598412377E+03  0.45287512021E+03 0.  0.
      99925    2    3    3    0    0 -0.15476425199E+01 -0.38580855767E+02  0.36937845139E+03  0.45504690641E+03  0.26293795666E+03 0.  0.
         25    1    4    4    0    0  0.35012140512E+02 -0.29549434635E+02  0.15926981991E+03  0.20763767169E+03  0.12509000000E+03 0.  0.
         25    1    3    3    0    0  0.15476425199E+01  0.38580855767E+02  0.24837795589E+01  0.13093721736E+03  0.12509000000E+03 0.  0.
         25    1    4    4    0    0 -0.36559783032E+02 -0.90314211314E+01  0.21010863148E+03  0.24740923472E+03  0.12509000000E+03 0.  0.
<mgrwt>
<rscale>  2 0.45287512E+03</rscale>
<asrwt>0</asrwt>
<pdfrwt beam="1">  1       21 0.70429878E-01 0.45287512E+03</pdfrwt>
<pdfrwt beam="2">  1       21 0.15744257E-01 0.45287512E+03</pdfrwt>
<totfact> 0.60560144E+04</totfact>
</mgrwt>
</event>
<event>
 7    0  0.4737014E-002  0.4566728E+03  0.7546771E-02  0.1025751E+00
         21   -1    0    0  502  501  0.00000000000E+00  0.00000000000E+00  0.14750338094E+03  0.14750338094E+03  0.00000000000E+00 0.  1.
         21   -1    0    0  501  502 -0.00000000000E+00 -0.00000000000E+00 -0.35346662992E+03  0.35346662992E+03  0.00000000000E+00 0.  1.
      99926    2    1    2    0    0  0.00000000000E+00  0.00000000000E+00 -0.20596324897E+03  0.50097001086E+03  0.45667284992E+03 0.  0.
      99925    2    3    3    0    0  0.30027551749E+02 -0.87776318545E+02 -0.20360840268E+03  0.34521575133E+03  0.26289008608E+03 0.  0.
         25    1    3    3    0    0 -0.30027551749E+02  0.87776318545E+02 -0.23548462903E+01  0.15575425953E+03  0.12509000000E+03 0.  0.
         25    1    4    4    0    0  0.31547325854E+02 -0.47895192286E+02 -0.58525475331E+02  0.14953903362E+03  0.12509000000E+03 0.  0.
         25    1    4    4    0    0 -0.15197741051E+01 -0.39881126260E+02 -0.14508292735E+03  0.19567671771E+03  0.12509000000E+03 0.  0.
<mgrwt>
<rscale>  2 0.45667285E+03</rscale>
<asrwt>0</asrwt>
<pdfrwt beam="1">  1       21 0.21691674E-01 0.45667285E+03</pdfrwt>
<pdfrwt beam="2">  1       21 0.51980386E-01 0.45667285E+03</pdfrwt>
<totfact> 0.64343882E+04</totfact>
</mgrwt>
</event>
<event>
 7    0  0.4737014E-002  0.4406765E+03  0.7546771E-02  0.1030539E+00
         21   -1    0    0  502  501  0.00000000000E+00  0.00000000000E+00  0.14404980736E+04  0.14404980736E+04  0.00000000000E+00 0.  1.
         21   -1    0    0  501  502 -0.00000000000E+00 -0.00000000000E+00 -0.33702884625E+02  0.33702884625E+02  0.00000000000E+00 0.  1.
      99926    2    1    2    0    0  0.00000000000E+00  0.00000000000E+00  0.14067951890E+04  0.14742009582E+04  0.44067648168E+03 0.  0.
      99925    2    3    3    0    0  0.72460449773E+02 -0.66433810645E+02  0.85033894756E+03  0.89544796714E+03  0.26284361918E+03 0.  0.
         25    1    3    3    0    0 -0.72460449773E+02  0.66433810645E+02  0.55645624143E+03  0.57875299109E+03  0.12509000000E+03 0.  0.
         25    1    4    4    0    0  0.71729159273E+01 -0.90618307550E+01  0.44658388632E+03  0.46391620269E+03  0.12509000000E+03 0.  0.
         25    1    4    4    0    0  0.65287533846E+02 -0.57371979890E+02  0.40375506124E+03  0.43153176445E+03  0.12509000000E+03 0.  0.
<mgrwt>
<rscale>  2 0.44067648E+03</rscale>
<asrwt>0</asrwt>
<pdfrwt beam="1">  1       21 0.21183791E+00 0.44067648E+03</pdfrwt>
<pdfrwt beam="2">  1       21 0.49563075E-02 0.44067648E+03</pdfrwt>
<totfact> 0.27336029E+04</totfact>
</mgrwt>
</event>
<event>
 7    0  0.4737014E-002  0.4685971E+03  0.7546771E-02  0.1022317E+00
         21   -1    0    0  502  501  0.00000000000E+00  0.00000000000E+00  0.37029419331E+03  0.37029419331E+03  0.00000000000E+00 0.  1.
         21   -1    0    0  501  502 -0.00000000000E+00 -0.00000000000E+00 -0.14824918754E+03  0.14824918754E+03  0.00000000000E+00 0.  1.
      99926    2    1    2    0    0  0.00000000000E+00 -0.17763568394E-14  0.22204500577E+03  0.51854338084E+03  0.46859711184E+03 0.  0.
      99925    2    3    3    0    0 -0.10516944505E+03  0.14479169224E+02  0.64784428419E+02  0.29127997463E+03  0.26339465246E+03 0.  0.
         25    1    4    4    0    0 -0.85613748360E+02  0.87765111001E+01  0.70184460304E+01  0.15199838072E+03  0.12509000000E+03 0.  0.
         25    1    4    4    0    0 -0.19555696691E+02  0.57026581235E+01  0.57765982388E+02  0.13928159392E+03  0.12509000000E+03 0.  0.
         25    1    3    3    0    0  0.10516944505E+03 -0.14479169224E+02  0.15726057735E+03  0.22726340621E+03  0.12509000000E+03 0.  0.
<mgrwt>
<rscale>  2 0.46859711E+03</rscale>
<asrwt>0</asrwt>
<pdfrwt beam="1">  1       21 0.54455028E-01 0.46859711E+03</pdfrwt>
<pdfrwt beam="2">  1       21 0.21801351E-01 0.46859711E+03</pdfrwt>
<totfact> 0.57524165E+04</totfact>
</mgrwt>
</event>
<event>
 7    0  0.4737014E-002  0.4536893E+03  0.7546771E-02  0.1026628E+00
         21   -1    0    0  502  501  0.00000000000E+00  0.00000000000E+00  0.75437575458E+03  0.75437575458E+03  0.00000000000E+00 0.  1.
         21   -1    0    0  501  502 -0.00000000000E+00 -0.00000000000E+00 -0.68213336396E+02  0.68213336396E+02  0.00000000000E+00 0.  1.
      99926    2    1    2    0    0  0.88817841970E-15  0.00000000000E+00  0.68616241819E+03  0.82258909098E+03  0.45368926422E+03 0.  0.
      99925    2    3    3    0    0  0.17453293579E+01 -0.11200011193E+03  0.42707876114E+03  0.51385146662E+03  0.26286877008E+03 0.  0.
         25    1    4    4    0    0  0.40424440274E+02 -0.58734988514E+02  0.20187906931E+03  0.24796491884E+03  0.12509000000E+03 0.  0.
         25    1    3    3    0    0 -0.17453293579E+01  0.11200011193E+03  0.25908365705E+03  0.30873762436E+03  0.12509000000E+03 0.  0.
         25    1    4    4    0    0 -0.38679110916E+02 -0.53265123412E+02  0.22519969182E+03  0.26588654778E+03  0.12509000000E+03 0.  0.
<mgrwt>
<rscale>  2 0.45368926E+03</rscale>
<asrwt>0</asrwt>
<pdfrwt beam="1">  1       21 0.11093761E+00 0.45368926E+03</pdfrwt>
<pdfrwt beam="2">  1       21 0.10031373E-01 0.45368926E+03</pdfrwt>
<totfact> 0.47174852E+04</totfact>
</mgrwt>
</event>
<event>
 7    0  0.4737014E-002  0.4526393E+03  0.7546771E-02  0.1026938E+00
         21   -1    0    0  502  501  0.00000000000E+00  0.00000000000E+00  0.11895295563E+04  0.11895295563E+04  0.00000000000E+00 0.  1.
         21   -1    0    0  501  502 -0.00000000000E+00 -0.00000000000E+00 -0.43059526816E+02  0.43059526816E+02  0.00000000000E+00 0.  1.
      99926    2    1    2    0    0  0.00000000000E+00  0.00000000000E+00  0.11464700295E+04  0.12325890832E+04  0.45263928168E+03 0.  0.
      99925    2    3    3    0    0  0.39339919903E+02 -0.89943385653E+02  0.86345908210E+03  0.90796599959E+03  0.26306506425E+03 0.  0.
         25    1    4    4    0    0  0.31456210896E+02 -0.21283876775E+02  0.31180551072E+03  0.33810158419E+03  0.12509000000E+03 0.  0.
         25    1    3    3    0    0 -0.39339919903E+02  0.89943385653E+02  0.28301094742E+03  0.32462308356E+03  0.12509000000E+03 0.  0.
         25    1    4    4    0    0  0.78837090062E+01 -0.68659508879E+02  0.55165357138E+03  0.56986441540E+03  0.12509000000E+03 0.  0.
<mgrwt>
<rscale>  2 0.45263928E+03</rscale>
<asrwt>0</asrwt>
<pdfrwt beam="1">  1       21 0.17493080E+00 0.45263928E+03</pdfrwt>
<pdfrwt beam="2">  1       21 0.63322841E-02 0.45263928E+03</pdfrwt>
<totfact> 0.31715944E+04</totfact>
</mgrwt>
</event>
<event>
 7    0  0.4737014E-002  0.4335666E+03  0.7546771E-02  0.1032739E+00
         21   -1    0    0  502  501  0.00000000000E+00  0.00000000000E+00  0.21153582538E+04  0.21153582538E+04  0.00000000000E+00 0. -1.
         21   -1    0    0  501  502 -0.00000000000E+00 -0.00000000000E+00 -0.22216091717E+02  0.22216091717E+02  0.00000000000E+00 0. -1.
      99926    2    1    2    0    0 -0.71054273576E-14 -0.35527136788E-14  0.20931421621E+04  0.21375743455E+04  0.43356657150E+03 0.  0.
      99925    2    3    3    0    0  0.52776380144E+02  0.26454843934E+02  0.99874935077E+03  0.10344749218E+04  0.26296937671E+03 0.  0.
         25    1    4    4    0    0  0.24012440387E+00 -0.80019122252E+01  0.38199294481E+03  0.40203259351E+03  0.12509000000E+03 0.  0.
         25    1    4    4    0    0  0.52536255740E+02  0.34456756160E+02  0.61675640595E+03  0.63244232828E+03  0.12509000000E+03 0.  0.
         25    1    3    3    0    0 -0.52776380144E+02 -0.26454843934E+02  0.10943928113E+04  0.11030994237E+04  0.12509000000E+03 0.  0.
<mgrwt>
<rscale>  2 0.43356657E+03</rscale>
<asrwt>0</asrwt>
<pdfrwt beam="1">  1       21 0.31108196E+00 0.43356657E+03</pdfrwt>
<pdfrwt beam="2">  1       21 0.32670738E-02 0.43356657E+03</pdfrwt>
<totfact> 0.13739496E+04</totfact>
</mgrwt>
</event>
<event>
 7    0  0.4737014E-002  0.4541447E+03  0.7546771E-02  0.1026493E+00
         21   -1    0    0  502  501  0.00000000000E+00  0.00000000000E+00  0.14706305552E+03  0.14706305552E+03  0.00000000000E+00 0.  1.
         21   -1    0    0  501  502 -0.00000000000E+00 -0.00000000000E+00 -0.35061048956E+03  0.35061048956E+03  0.00000000000E+00 0.  1.
      99926    2    1    2    0    0  0.00000000000E+00  0.00000000000E+00 -0.20354743404E+03  0.49767354508E+03  0.45414469012E+03 0.  0.
      99925    2    3    3    0    0  0.72821743627E+02  0.34999573673E+02 -0.21414729421E+03  0.34838241460E+03  0.26264665748E+03 0.  0.
         25    1    4    4    0    0  0.73738414384E+02  0.20202851574E+02 -0.93002849823E+02  0.17361609126E+03  0.12509000000E+03 0.  0.
         25    1    4    4    0    0 -0.91667075679E+00  0.14796722100E+02 -0.12114444439E+03  0.17476632335E+03  0.12509000000E+03 0.  0.
         25    1    3    3    0    0 -0.72821743627E+02 -0.34999573673E+02  0.10599860170E+02  0.14929113047E+03  0.12509000000E+03 0.  0.
<mgrwt>
<rscale>  2 0.45414469E+03</rscale>
<asrwt>0</asrwt>
<pdfrwt beam="1">  1       21 0.21626920E-01 0.45414469E+03</pdfrwt>
<pdfrwt beam="2">  1       21 0.51560366E-01 0.45414469E+03</pdfrwt>
<totfact> 0.65880583E+04</totfact>
</mgrwt>
</event>
<event>
 7    0  0.4737014E-002  0.4302488E+03  0.7546771E-02  0.1033781E+00
         21   -1    0    0  502  501  0.00000000000E+00  0.00000000000E+00  0.14398938647E+03  0.14398938647E+03  0.00000000000E+00 0.  1.
         21   -1    0    0  501  502 -0.00000000000E+00 -0.00000000000E+00 -0.32140221311E+03  0.32140221311E+03  0.00000000000E+00 0.  1.
      99926    2    1    2    0    0  0.71054273576E-14  0.71054273576E-14 -0.17741282664E+03  0.46539159958E+03  0.43024880001E+03 0.  0.
      99925    2    3    3    0    0  0.59450178402E+02  0.53783229949E+02 -0.15379075740E+03  0.31495068164E+03  0.26289803208E+03 0.  0.
         25    1    4    4    0    0  0.87290304163E+01  0.14932752096E+00 -0.44046721764E+02  0.13290538014E+03  0.12509000000E+03 0.  0.
         25    1    3    3    0    0 -0.59450178402E+02 -0.53783229949E+02 -0.23622069235E+02  0.15044091794E+03  0.12509000000E+03 0.  0.
         25    1    4    4    0    0  0.50721147986E+02  0.53633902428E+02 -0.10974403564E+03  0.18204530151E+03  0.12509000000E+03 0.  0.
<mgrwt>
<rscale>  2 0.43024880E+03</rscale>
<asrwt>0</asrwt>
<pdfrwt beam="1">  1       21 0.21174910E-01 0.43024880E+03</pdfrwt>
<pdfrwt beam="2">  1       21 0.47265031E-01 0.43024880E+03</pdfrwt>
<totfact> 0.82908691E+04</totfact>
</mgrwt>
</event>
<event>
 7    0  0.4737014E-002  0.4639126E+03  0.7546771E-02  0.1023653E+00
         21   -1    0    0  502  501  0.00000000000E+00  0.00000000000E+00  0.10424415194E+03  0.10424415194E+03  0.00000000000E+00 0. -1.
         21   -1    0    0  501  502 -0.00000000000E+00 -0.00000000000E+00 -0.51613185279E+03  0.51613185279E+03  0.00000000000E+00 0. -1.
      99926    2    1    2    0    0  0.00000000000E+00  0.00000000000E+00 -0.41188770086E+03  0.62037600473E+03  0.46391260936E+03 0.  0.
      99925    2    3    3    0    0 -0.38021707115E+02  0.10965945577E+03 -0.30391419467E+03  0.41844375720E+03  0.26317388504E+03 0.  0.
         25    1    4    4    0    0  0.21180353857E+02  0.62044047343E+02 -0.15304373747E+03  0.20824976562E+03  0.12509000000E+03 0.  0.
         25    1    3    3    0    0  0.38021707115E+02 -0.10965945577E+03 -0.10797350619E+03  0.20193224753E+03  0.12509000000E+03 0.  0.
         25    1    4    4    0    0 -0.59202060972E+02  0.47615408431E+02 -0.15087045720E+03  0.21019399158E+03  0.12509000000E+03 0.  0.
<mgrwt>
<rscale>  2 0.46391261E+03</rscale>
<asrwt>0</asrwt>
<pdfrwt beam="1">  1       21 0.15330022E-01 0.46391261E+03</pdfrwt>
<pdfrwt beam="2">  1       21 0.75901743E-01 0.46391261E+03</pdfrwt>
<totfact> 0.53570170E+04</totfact>
</mgrwt>
</event>
<event>
 7    0  0.4737014E-002  0.4601500E+03  0.7546771E-02  0.1024738E+00
         21   -1    0    0  502  501  0.00000000000E+00  0.00000000000E+00  0.15324760074E+03  0.15324760074E+03  0.00000000000E+00 0.  1.
         21   -1    0    0  501  502 -0.00000000000E+00 -0.00000000000E+00 -0.34541812569E+03  0.34541812569E+03  0.00000000000E+00 0.  1.
      99926    2    1    2    0    0  0.00000000000E+00 -0.88817841970E-15 -0.19217052495E+03  0.49866572644E+03  0.46014997127E+03 0.  0.
      99925    2    3    3    0    0  0.37081249780E+02 -0.61753132121E+01  0.11294287247E+01  0.26537291950E+03  0.26269441794E+03 0.  0.
         25    1    4    4    0    0  0.56168849116E+02  0.47259880703E+01  0.12972382123E+02  0.13781533069E+03  0.12509000000E+03 0.  0.
         25    1    4    4    0    0 -0.19087599336E+02 -0.10901301282E+02 -0.11842953398E+02  0.12755758881E+03  0.12509000000E+03 0.  0.
         25    1    3    3    0    0 -0.37081249780E+02  0.61753132121E+01 -0.19329995368E+03  0.23329280694E+03  0.12509000000E+03 0.  0.
<mgrwt>
<rscale>  2 0.46014997E+03</rscale>
<asrwt>0</asrwt>
<pdfrwt beam="1">  1       21 0.22536412E-01 0.46014997E+03</pdfrwt>
<pdfrwt beam="2">  1       21 0.50796783E-01 0.46014997E+03</pdfrwt>
<totfact> 0.62759208E+04</totfact>
</mgrwt>
</event>
<event>
 6    0  0.4737014E-002  0.4571473E+03  0.7546771E-02  0.1025612E+00
         21   -1    0    0  502  501  0.00000000000E+00  0.00000000000E+00  0.97610626083E+02  0.97610626083E+02  0.00000000000E+00 0.  1.
         21   -1    0    0  501  502 -0.00000000000E+00 -0.00000000000E+00 -0.53524816294E+03  0.53524816294E+03  0.00000000000E+00 0.  1.
      99926    2    1    2    0    0  0.00000000000E+00  0.00000000000E+00 -0.43763753686E+03  0.63285878902E+03  0.45714727734E+03 0.  0.
         25    1    3    3    0    0  0.28525280658E+02 -0.86760300991E+01 -0.14044617589E+03  0.19042479239E+03  0.12509000000E+03 0.  0.
         25    1    3    3    0    0 -0.16893652582E+02  0.37514627321E+02 -0.15422853429E+02  0.13258248477E+03  0.12509000000E+03 0.  0.
         25    1    3    3    0    0 -0.11631628076E+02 -0.28838597222E+02 -0.28176850754E+03  0.30985151186E+03  0.12509000000E+03 0.  0.
<mgrwt>
<rscale>  2 0.45714728E+03</rscale>
<asrwt>0</asrwt>
<pdfrwt beam="1">  1       21 0.14354504E-01 0.45714728E+03</pdfrwt>
<pdfrwt beam="2">  1       21 0.78712966E-01 0.45714728E+03</pdfrwt>
<totfact> 0.55749019E+04</totfact>
</mgrwt>
</event>
<event>
 7    0  0.4737014E-002  0.4487834E+03  0.7546771E-02  0.1028085E+00
         21   -1    0    0  502  501  0.00000000000E+00  0.00000000000E+00  0.99581913599E+02  0.99581913599E+02  0.00000000000E+00 0. -1.
         21   -1    0    0  501  502 -0.00000000000E+00 -0.00000000000E+00 -0.50563022461E+03  0.50563022461E+03  0.00000000000E+00 0. -1.
      99926    2    1    2    0    0  0.00000000000E+00  0.00000000000E+00 -0.40604831101E+03  0.60521213821E+03  0.44878335682E+03 0.  0.
      99925    2    3    3    0    0 -0.10147242269E+03 -0.34199195322E+02 -0.25988622647E+03  0.38503697934E+03  0.26314708287E+03 0.  0.
         25    1    4    4    0    0 -0.80245600939E+02 -0.40077162652E+02 -0.11360996146E+03  0.19131196220E+03  0.12509000000E+03 0.  0.
         25    1    4    4    0    0 -0.21226821748E+02  0.58779673299E+01 -0.14627626501E+03  0.19372501714E+03  0.12509000000E+03 0.  0.
         25    1    3    3    0    0  0.10147242269E+03  0.34199195322E+02 -0.14616208454E+03  0.22017515887E+03  0.12509000000E+03 0.  0.
<mgrwt>
<rscale>  2 0.44878336E+03</rscale>
<asrwt>0</asrwt>
<pdfrwt beam="1">  1       21 0.14644399E-01 0.44878336E+03</pdfrwt>
<pdfrwt beam="2">  1       21 0.74357388E-01 0.44878336E+03</pdfrwt>
<totfact> 0.61314742E+04</totfact>
</mgrwt>
</event>
<event>
 7    0  0.4737014E-002  0.4459415E+03  0.7546771E-02  0.1028939E+00
         21   -1    0    0  502  501  0.00000000000E+00  0.00000000000E+00  0.90725698953E+03  0.90725698953E+03  0.00000000000E+00 0. -1.
         21   -1    0    0  501  502 -0.00000000000E+00 -0.00000000000E+00 -0.54798099324E+02  0.54798099324E+02  0.00000000000E+00 0. -1.
      99926    2    1    2    0    0  0.17763568394E-14  0.00000000000E+00  0.85245889021E+03  0.96205508885E+03  0.44594151466E+03 0.  0.
      99925    2    3    3    0    0 -0.44051517285E+01 -0.84883263497E+02  0.41067614798E+03  0.49510319281E+03  0.26314957578E+03 0.  0.
         25    1    3    3    0    0  0.44051517285E+01  0.84883263497E+02  0.44178274223E+03  0.46695189604E+03  0.12509000000E+03 0.  0.
         25    1    4    4    0    0 -0.23424459483E+02 -0.30581136388E+02  0.14147930207E+03  0.19273767722E+03  0.12509000000E+03 0.  0.
         25    1    4    4    0    0  0.19019307754E+02 -0.54302127109E+02  0.26919684591E+03  0.30236551560E+03  0.12509000000E+03 0.  0.
<mgrwt>
<rscale>  2 0.44594151E+03</rscale>
<asrwt>0</asrwt>
<pdfrwt beam="1">  1       21 0.13342014E+00 0.44594151E+03</pdfrwt>
<pdfrwt beam="2">  1       21 0.80585446E-02 0.44594151E+03</pdfrwt>
<totfact> 0.43668229E+04</totfact>
</mgrwt>
</event>
<event>
 7    0  0.4737014E-002  0.4177447E+03  0.7546771E-02  0.1037803E+00
         21   -1    0    0  502  501  0.00000000000E+00  0.00000000000E+00  0.35549560257E+02  0.35549560257E+02  0.00000000000E+00 0.  1.
         21   -1    0    0  501  502 -0.00000000000E+00 -0.00000000000E+00 -0.12272347304E+04  0.12272347304E+04  0.00000000000E+00 0.  1.
      99926    2    1    2    0    0  0.00000000000E+00  0.35527136788E-14 -0.11916851701E+04  0.12627842906E+04  0.41774468278E+03 0.  0.
      99925    2    3    3    0    0  0.14474889577E+02 -0.30819688518E+02 -0.58419396345E+03  0.64161406444E+03  0.26310956867E+03 0.  0.
         25    1    3    3    0    0 -0.14474889577E+02  0.30819688518E+02 -0.60749120666E+03  0.62117022619E+03  0.12509000000E+03 0.  0.
         25    1    4    4    0    0  0.20245453516E+02  0.22883745900E+01 -0.20610906839E+03  0.24195778809E+03  0.12509000000E+03 0.  0.
         25    1    4    4    0    0 -0.57705639390E+01 -0.33108063108E+02 -0.37808489506E+03  0.39965627634E+03  0.12509000000E+03 0.  0.
<mgrwt>
<rscale>  2 0.41774468E+03</rscale>
<asrwt>0</asrwt>
<pdfrwt beam="1">  1       21 0.52278758E-02 0.41774468E+03</pdfrwt>
<pdfrwt beam="2">  1       21 0.18047572E+00 0.41774468E+03</pdfrwt>
<totfact> 0.40826803E+04</totfact>
</mgrwt>
</event>
<event>
 7    0  0.4737014E-002  0.4579184E+03  0.7546771E-02  0.1025387E+00
         21   -1    0    0  502  501  0.00000000000E+00  0.00000000000E+00  0.16290198624E+03  0.16290198624E+03  0.00000000000E+00 0. -1.
         21   -1    0    0  501  502 -0.00000000000E+00 -0.00000000000E+00 -0.32180285648E+03  0.32180285648E+03  0.00000000000E+00 0. -1.
      99926    2    1    2    0    0  0.71054273576E-14  0.00000000000E+00 -0.15890087024E+03  0.48470484272E+03  0.45791844033E+03 0.  0.
      99925    2    3    3    0    0 -0.47483131468E+02 -0.38634322348E+02  0.43004931945E+01  0.27016008804E+03  0.26309830917E+03 0.  0.
         25    1    4    4    0    0 -0.51923516848E+02 -0.49937331468E+02  0.58999376729E+01  0.14447181746E+03  0.12509000000E+03 0.  0.
         25    1    3    3    0    0  0.47483131468E+02  0.38634322348E+02 -0.16320136343E+03  0.21454475469E+03  0.12509000000E+03 0.  0.
         25    1    4    4    0    0  0.44403853804E+01  0.11303009121E+02 -0.15994444785E+01  0.12568827058E+03  0.12509000000E+03 0.  0.
<mgrwt>
<rscale>  2 0.45791844E+03</rscale>
<asrwt>0</asrwt>
<pdfrwt beam="1">  1       21 0.23956175E-01 0.45791844E+03</pdfrwt>
<pdfrwt beam="2">  1       21 0.47323949E-01 0.45791844E+03</pdfrwt>
<totfact> 0.64843893E+04</totfact>
</mgrwt>
</event>
<event>
 7    0  0.4737014E-002  0.4525740E+03  0.7546771E-02  0.1026957E+00
         21   -1    0    0  502  501  0.00000000000E+00  0.00000000000E+00  0.75376196822E+02  0.75376196822E+02  0.00000000000E+00 0. -1.
         21   -1    0    0  501  502 -0.00000000000E+00 -0.00000000000E+00 -0.67933645885E+03  0.67933645885E+03  0.00000000000E+00 0. -1.
      99926    2    1    2    0    0  0.00000000000E+00  0.14210854715E-13 -0.60396026203E+03  0.75471265568E+03  0.45257396580E+03 0.  0.
      99925    2    3    3    0    0 -0.20341625554E+02 -0.10523215400E+03 -0.42783550637E+03  0.51355912445E+03  0.26308205152E+03 0.  0.
         25    1    3    3    0    0  0.20341625554E+02  0.10523215400E+03 -0.17612475566E+03  0.24115353122E+03  0.12509000000E+03 0.  0.
         25    1    4    4    0    0 -0.34610696211E+01 -0.36610593726E+02 -0.27179629005E+03  0.30145156487E+03  0.12509000000E+03 0.  0.
         25    1    4    4    0    0 -0.16880555933E+02 -0.68621560271E+02 -0.15603921632E+03  0.21210755958E+03  0.12509000000E+03 0.  0.
<mgrwt>
<rscale>  2 0.45257397E+03</rscale>
<asrwt>0</asrwt>
<pdfrwt beam="1">  1       21 0.11084735E-01 0.45257397E+03</pdfrwt>
<pdfrwt beam="2">  1       21 0.99902417E-01 0.45257397E+03</pdfrwt>
<totfact> 0.50996394E+04</totfact>
</mgrwt>
</event>
<event>
 7    0  0.4737014E-002  0.4525236E+03  0.7546771E-02  0.1026972E+00
         21   -1    0    0  502  501  0.00000000000E+00  0.00000000000E+00  0.31026370056E+02  0.31026370056E+02  0.00000000000E+00 0.  1.
         21   -1    0    0  501  502 -0.00000000000E+00 -0.00000000000E+00 -0.16500285376E+04  0.16500285376E+04  0.00000000000E+00 0.  1.
      99926    2    1    2    0    0  0.00000000000E+00 -0.14210854715E-13 -0.16190021676E+04  0.16810549077E+04  0.45252357292E+03 0.  0.
      99925    2    3    3    0    0 -0.57526653957E+02 -0.93754953635E+02 -0.10719271122E+04  0.11091826042E+04  0.26298100354E+03 0.  0.
         25    1    4    4    0    0 -0.33758288329E+02 -0.71527014339E+02 -0.69886814161E+03  0.71436679883E+03  0.12509000000E+03 0.  0.
         25    1    4    4    0    0 -0.23768365628E+02 -0.22227939296E+02 -0.37305897061E+03  0.39481580533E+03  0.12509000000E+03 0.  0.
         25    1    3    3    0    0  0.57526653957E+02  0.93754953635E+02 -0.54707505537E+03  0.57187230354E+03  0.12509000000E+03 0.  0.
<mgrwt>
<rscale>  2 0.45252357E+03</rscale>
<asrwt>0</asrwt>
<pdfrwt beam="1">  1       21 0.45626999E-02 0.45252357E+03</pdfrwt>
<pdfrwt beam="2">  1       21 0.24265134E+00 0.45252357E+03</pdfrwt>
<totfact> 0.20041241E+04</totfact>
</mgrwt>
</event>
<event>
 7    0  0.4737014E-002  0.4545810E+03  0.7546771E-02  0.1026365E+00
         21   -1    0    0  502  501  0.00000000000E+00  0.00000000000E+00  0.34295587374E+02  0.34295587374E+02  0.00000000000E+00 0.  1.
         21   -1    0    0  501  502 -0.00000000000E+00 -0.00000000000E+00 -0.15063446613E+04  0.15063446613E+04  0.00000000000E+00 0.  1.
      99926    2    1    2    0    0  0.14210854715E-13  0.00000000000E+00 -0.14720490740E+04  0.15406402487E+04  0.45458101565E+03 0.  0.
      99925    2    3    3    0    0 -0.65950914725E+02  0.40164082120E+02 -0.64840608762E+03  0.70398144508E+03  0.26305273978E+03 0.  0.
         25    1    3    3    0    0  0.65950914725E+02 -0.40164082120E+02 -0.82364298633E+03  0.83665880362E+03  0.12509000000E+03 0.  0.
         25    1    4    4    0    0 -0.57391734029E+02  0.39141288877E+02 -0.27356607418E+03  0.30872602202E+03  0.12509000000E+03 0.  0.
         25    1    4    4    0    0 -0.85591806955E+01  0.10227932423E+01 -0.37484001344E+03  0.39525542306E+03  0.12509000000E+03 0.  0.
<mgrwt>
<rscale>  2 0.45458102E+03</rscale>
<asrwt>0</asrwt>
<pdfrwt beam="1">  1       21 0.50434677E-02 0.45458102E+03</pdfrwt>
<pdfrwt beam="2">  1       21 0.22152132E+00 0.45458102E+03</pdfrwt>
<totfact> 0.22874794E+04</totfact>
</mgrwt>
</event>
<event>
 7    0  0.4737014E-002  0.4548455E+03  0.7546771E-02  0.1026287E+00
         21   -1    0    0  502  501  0.00000000000E+00  0.00000000000E+00  0.32083451192E+03  0.32083451192E+03  0.00000000000E+00 0.  1.
         21   -1    0    0  501  502 -0.00000000000E+00 -0.00000000000E+00 -0.16120807572E+03  0.16120807572E+03  0.00000000000E+00 0.  1.
      99926    2    1    2    0    0  0.14210854715E-13  0.00000000000E+00  0.15962643620E+03  0.48204258763E+03  0.45484553110E+03 0.  0.
      99925    2    3    3    0    0 -0.96743865053E+02 -0.48808448110E+02  0.65744184820E+02  0.29177166170E+03  0.26280556444E+03 0.  0.
         25    1    3    3    0    0  0.96743865053E+02  0.48808448110E+02  0.93882251380E+02  0.19027092594E+03  0.12509000000E+03 0.  0.
         25    1    4    4    0    0 -0.85844279205E+02 -0.16523925510E+02  0.52771022108E+02  0.16147621887E+03  0.12509000000E+03 0.  0.
         25    1    4    4    0    0 -0.10899585847E+02 -0.32284522600E+02  0.12973162712E+02  0.13029544283E+03  0.12509000000E+03 0.  0.
<mgrwt>
<rscale>  2 0.45484553E+03</rscale>
<asrwt>0</asrwt>
<pdfrwt beam="1">  1       21 0.47181546E-01 0.45484553E+03</pdfrwt>
<pdfrwt beam="2">  1       21 0.23707070E-01 0.45484553E+03</pdfrwt>
<totfact> 0.66633380E+04</totfact>
</mgrwt>
</event>
<event>
 7    0  0.4737014E-002  0.4547134E+03  0.7546771E-02  0.1026326E+00
         21   -1    0    0  502  501  0.00000000000E+00  0.00000000000E+00  0.26498227677E+03  0.26498227677E+03  0.00000000000E+00 0.  1.
         21   -1    0    0  501  502 -0.00000000000E+00 -0.00000000000E+00 -0.19507371138E+03  0.19507371138E+03  0.00000000000E+00 0.  1.
      99926    2    1    2    0    0  0.00000000000E+00  0.35527136788E-14  0.69908565391E+02  0.46005598815E+03  0.45471343142E+03 0.  0.
      99925    2    3    3    0    0  0.94990789427E+02  0.20973629355E+02 -0.14056915060E+02  0.28072151513E+03  0.26295214202E+03 0.  0.
         25    1    4    4    0    0  0.23175737578E+02 -0.22529668073E+02  0.19813223179E+01  0.12921352288E+03  0.12509000000E+03 0.  0.
         25    1    4    4    0    0  0.71815051848E+02  0.43503297428E+02 -0.16038237378E+02  0.15150799226E+03  0.12509000000E+03 0.  0.
         25    1    3    3    0    0 -0.94990789427E+02 -0.20973629355E+02  0.83965480450E+02  0.17933447301E+03  0.12509000000E+03 0.  0.
<mgrwt>
<rscale>  2 0.45471343E+03</rscale>
<asrwt>0</asrwt>
<pdfrwt beam="1">  1       21 0.38967982E-01 0.45471343E+03</pdfrwt>
<pdfrwt beam="2">  1       21 0.28687311E-01 0.45471343E+03</pdfrwt>
<totfact> 0.68332503E+04</totfact>
</mgrwt>
</event>
<event>
 7    0  0.4737014E-002  0.4554051E+03  0.7546771E-02  0.1026122E+00
         21   -1    0    0  502  501  0.00000000000E+00  0.00000000000E+00  0.13913890319E+03  0.13913890319E+03  0.00000000000E+00 0. -1.
         21   -1    0    0  501  502 -0.00000000000E+00 -0.00000000000E+00 -0.37263799872E+03  0.37263799872E+03  0.00000000000E+00 0. -1.
      99926    2    1    2    0    0  0.00000000000E+00  0.71054273576E-14 -0.23349909553E+03  0.51177690191E+03  0.45540506114E+03 0.  0.
      99925    2    3    3    0    0 -0.45691684280E+02  0.63885574615E+02 -0.54732592381E+02  0.27988454023E+03  0.26300304663E+03 0.  0.
         25    1    3    3    0    0  0.45691684280E+02 -0.63885574615E+02 -0.17876650315E+03  0.23189236168E+03  0.12509000000E+03 0.  0.
         25    1    4    4    0    0 -0.18273454288E-01  0.32419805654E+01 -0.46258527562E+01  0.12521748035E+03  0.12509000000E+03 0.  0.
         25    1    4    4    0    0 -0.45673410826E+02  0.60643594050E+02 -0.50106739625E+02  0.15466705988E+03  0.12509000000E+03 0.  0.
<mgrwt>
<rscale>  2 0.45540506E+03</rscale>
<asrwt>0</asrwt>
<pdfrwt beam="1">  1       21 0.20461603E-01 0.45540506E+03</pdfrwt>
<pdfrwt beam="2">  1       21 0.54799706E-01 0.45540506E+03</pdfrwt>
<totfact> 0.64244202E+04</totfact>
</mgrwt>
</event>
<event>
 7    0  0.4737014E-002  0.4544046E+03  0.7546771E-02  0.1026417E+00
         21   -1    0    0  502  501  0.00000000000E+00  0.00000000000E+00  0.92403674816E+03  0.92403674816E+03  0.00000000000E+00 0.  1.
         21   -1    0    0  501  502 -0.00000000000E+00 -0.00000000000E+00 -0.55864540717E+02  0.55864540717E+02  0.00000000000E+00 0.  1.
      99926    2    1    2    0    0 -0.17763568394E-14  0.00000000000E+00  0.86817220745E+03  0.97990128888E+03  0.45440461504E+03 0.  0.
      99925    2    3    3    0    0 -0.10652953507E+02 -0.63344670474E+02  0.34708332547E+03  0.44017250169E+03  0.26298091895E+03 0.  0.
         25    1    3    3    0    0  0.10652953507E+02  0.63344670474E+02  0.52108888198E+03  0.53972878719E+03  0.12509000000E+03 0.  0.
         25    1    4    4    0    0  0.85281766319E+00  0.13133301863E+01  0.20247194842E+03  0.23800178598E+03  0.12509000000E+03 0.  0.
         25    1    4    4    0    0 -0.11505771170E+02 -0.64658000661E+02  0.14461137705E+03  0.20217071571E+03  0.12509000000E+03 0.  0.
<mgrwt>
<rscale>  2 0.45440462E+03</rscale>
<asrwt>0</asrwt>
<pdfrwt beam="1">  1       21 0.13588775E+00 0.45440462E+03</pdfrwt>
<pdfrwt beam="2">  1       21 0.82153742E-02 0.45440462E+03</pdfrwt>
<totfact> 0.40139508E+04</totfact>
</mgrwt>
</event>
<event>
 7    0  0.4737014E-002  0.4540217E+03  0.7546771E-02  0.1026529E+00
         21   -1    0    0  502  501  0.00000000000E+00  0.00000000000E+00  0.97860765490E+02  0.97860765490E+02  0.00000000000E+00 0. -1.
         21   -1    0    0  501  502 -0.00000000000E+00 -0.00000000000E+00 -0.52660468119E+03  0.52660468119E+03  0.00000000000E+00 0. -1.
      99926    2    1    2    0    0  0.00000000000E+00  0.88817841970E-15 -0.42874391570E+03  0.62446544668E+03  0.45402174931E+03 0.  0.
      99925    2    3    3    0    0 -0.39959374479E+02 -0.72790490196E+01 -0.41386940958E+03  0.49210799432E+03  0.26312098686E+03 0.  0.
         25    1    4    4    0    0 -0.86028121121E+01  0.20650337641E+02 -0.26012430371E+03  0.28950406958E+03  0.12509000000E+03 0.  0.
         25    1    4    4    0    0 -0.31356562367E+02 -0.27929386660E+02 -0.15374510587E+03  0.20260392474E+03  0.12509000000E+03 0.  0.
         25    1    3    3    0    0  0.39959374479E+02  0.72790490196E+01 -0.14874506123E+02  0.13235745236E+03  0.12509000000E+03 0.  0.
<mgrwt>
<rscale>  2 0.45402175E+03</rscale>
<asrwt>0</asrwt>
<pdfrwt beam="1">  1       21 0.14391289E-01 0.45402175E+03</pdfrwt>
<pdfrwt beam="2">  1       21 0.77441866E-01 0.45402175E+03</pdfrwt>
<totfact> 0.57640981E+04</totfact>
</mgrwt>
</event>
<event>
 7    0  0.4737014E-002  0.4535399E+03  0.7546771E-02  0.1026672E+00
         21   -1    0    0  502  501  0.00000000000E+00  0.00000000000E+00  0.54086279892E+02  0.54086279892E+02  0.00000000000E+00 0. -1.
         21   -1    0    0  501  502 -0.00000000000E+00 -0.00000000000E+00 -0.95078838887E+03  0.95078838887E+03  0.00000000000E+00 0. -1.
      99926    2    1    2    0    0  0.00000000000E+00  0.71054273576E-14 -0.89670210898E+03  0.10048746688E+04  0.45353988543E+03 0.  0.
      99925    2    3    3    0    0  0.29850139816E+02  0.49828209440E+02 -0.35333691369E+03  0.44427933802E+03  0.26298911443E+03 0.  0.
         25    1    3    3    0    0 -0.29850139816E+02 -0.49828209440E+02 -0.54336519528E+03  0.56059533074E+03  0.12509000000E+03 0.  0.
         25    1    4    4    0    0  0.50961331191E+02  0.17054684252E+02 -0.15193922314E+03  0.20401214464E+03  0.12509000000E+03 0.  0.
         25    1    4    4    0    0 -0.21111191376E+02  0.32773525187E+02 -0.20139769055E+03  0.24026719338E+03  0.12509000000E+03 0.  0.
<mgrwt>
<rscale>  2 0.45353989E+03</rscale>
<asrwt>0</asrwt>
<pdfrwt beam="1">  1       21 0.79538652E-02 0.45353989E+03</pdfrwt>
<pdfrwt beam="2">  1       21 0.13982181E+00 0.45353989E+03</pdfrwt>
<totfact> 0.39425355E+04</totfact>
</mgrwt>
</event>
<event>
 7    0  0.4737014E-002  0.4514712E+03  0.7546771E-02  0.1027284E+00
         21   -1    0    0  502  501  0.00000000000E+00  0.00000000000E+00  0.12440716465E+03  0.12440716465E+03  0.00000000000E+00 0. -1.
         21   -1    0    0  501  502 -0.00000000000E+00 -0.00000000000E+00 -0.40959506482E+03  0.40959506482E+03  0.00000000000E+00 0. -1.
      99926    2    1    2    0    0 -0.71054273576E-14  0.00000000000E+00 -0.28518790018E+03  0.53400222947E+03  0.45147119805E+03 0.  0.
      99925    2    3    3    0    0  0.61985828177E+02 -0.67689069183E+02 -0.11076546076E+03  0.30056112672E+03  0.26390140321E+03 0.  0.
         25    1    4    4    0    0  0.41147913180E+02 -0.42185784332E+02 -0.10022685630E+03  0.17077974699E+03  0.12509000000E+03 0.  0.
         25    1    3    3    0    0 -0.61985828177E+02  0.67689069183E+02 -0.17442243942E+03  0.23344110275E+03  0.12509000000E+03 0.  0.
         25    1    4    4    0    0  0.20837914997E+02 -0.25503284851E+02 -0.10538604463E+02  0.12978137973E+03  0.12509000000E+03 0.  0.
<mgrwt>
<rscale>  2 0.45147120E+03</rscale>
<asrwt>0</asrwt>
<pdfrwt beam="1">  1       21 0.18295171E-01 0.45147120E+03</pdfrwt>
<pdfrwt beam="2">  1       21 0.60234568E-01 0.45147120E+03</pdfrwt>
<totfact> 0.64725163E+04</totfact>
</mgrwt>
</event>
<event>
 7    0  0.4737014E-002  0.4590105E+03  0.7546771E-02  0.1025069E+00
         21   -1    0    0  502  501  0.00000000000E+00  0.00000000000E+00  0.11137274892E+03  0.11137274892E+03  0.00000000000E+00 0.  1.
         21   -1    0    0  501  502 -0.00000000000E+00 -0.00000000000E+00 -0.47294031902E+03  0.47294031902E+03  0.00000000000E+00 0.  1.
      99926    2    1    2    0    0  0.00000000000E+00  0.00000000000E+00 -0.36156757010E+03  0.58431306794E+03  0.45901051581E+03 0.  0.
      99925    2    3    3    0    0  0.27125126768E+02  0.10666200456E+03 -0.27380247740E+03  0.39599744109E+03  0.26407124229E+03 0.  0.
         25    1    4    4    0    0  0.18008267796E+02  0.12110287486E+02 -0.99008592053E+02  0.16100051606E+03  0.12509000000E+03 0.  0.
         25    1    4    4    0    0  0.91168589718E+01  0.94551717077E+02 -0.17479388534E+03  0.23499692503E+03  0.12509000000E+03 0.  0.
         25    1    3    3    0    0 -0.27125126768E+02 -0.10666200456E+03 -0.87765092700E+02  0.18831562685E+03  0.12509000000E+03 0.  0.
<mgrwt>
<rscale>  2 0.45901052E+03</rscale>
<asrwt>0</asrwt>
<pdfrwt beam="1">  1       21 0.16378345E-01 0.45901052E+03</pdfrwt>
<pdfrwt beam="2">  1       21 0.69550048E-01 0.45901052E+03</pdfrwt>
<totfact> 0.57800050E+04</totfact>
</mgrwt>
</event>
<event>
 7    0  0.4737014E-002  0.4578701E+03  0.7546771E-02  0.1025401E+00
         21   -1    0    0  502  501  0.00000000000E+00  0.00000000000E+00  0.97284821792E+02  0.97284821792E+02  0.00000000000E+00 0.  1.
         21   -1    0    0  501  502 -0.00000000000E+00 -0.00000000000E+00 -0.53874037473E+03  0.53874037473E+03  0.00000000000E+00 0.  1.
      99926    2    1    2    0    0  0.00000000000E+00  0.00000000000E+00 -0.44145555294E+03  0.63602519653E+03  0.45787011847E+03 0.  0.
      99925    2    3    3    0    0  0.35696814756E+02 -0.10369803667E+03 -0.22568374724E+03  0.36356873096E+03  0.26309983461E+03 0.  0.
         25    1    3    3    0    0 -0.35696814756E+02  0.10369803667E+03 -0.21577180570E+03  0.27245646557E+03  0.12509000000E+03 0.  0.
         25    1    4    4    0    0  0.31003877070E+02 -0.18244602918E+02 -0.76890369331E+02  0.15117454457E+03  0.12509000000E+03 0.  0.
         25    1    4    4    0    0  0.46929376860E+01 -0.85453433751E+02 -0.14879337791E+03  0.21239418639E+03  0.12509000000E+03 0.  0.
<mgrwt>
<rscale>  2 0.45787012E+03</rscale>
<asrwt>0</asrwt>
<pdfrwt beam="1">  1       21 0.14306592E-01 0.45787012E+03</pdfrwt>
<pdfrwt beam="2">  1       21 0.79226525E-01 0.45787012E+03</pdfrwt>
<totfact> 0.55251551E+04</totfact>
</mgrwt>
</event>
<event>
 7    0  0.4737014E-002  0.4549171E+03  0.7546771E-02  0.1026266E+00
         21   -1    0    0  502  501  0.00000000000E+00  0.00000000000E+00  0.48780984179E+03  0.48780984179E+03  0.00000000000E+00 0. -1.
         21   -1    0    0  501  502 -0.00000000000E+00 -0.00000000000E+00 -0.10606056408E+03  0.10606056408E+03  0.00000000000E+00 0. -1.
      99926    2    1    2    0    0  0.00000000000E+00  0.35527136788E-14  0.38174927770E+03  0.59387040587E+03  0.45491707809E+03 0.  0.
      99925    2    3    3    0    0 -0.64258051026E+01 -0.23134547507E+02  0.38451497986E+03  0.46646689152E+03  0.26298876952E+03 0.  0.
         25    1    4    4    0    0 -0.31634253938E+02 -0.40614702104E+02  0.19959660141E+03  0.24111530736E+03  0.12509000000E+03 0.  0.
         25    1    4    4    0    0  0.25208448835E+02  0.17480154597E+02  0.18491837845E+03  0.22535158417E+03  0.12509000000E+03 0.  0.
         25    1    3    3    0    0  0.64258051026E+01  0.23134547507E+02 -0.27657021525E+01  0.12740351435E+03  0.12509000000E+03 0.  0.
<mgrwt>
<rscale>  2 0.45491708E+03</rscale>
<asrwt>0</asrwt>
<pdfrwt beam="1">  1       21 0.71736740E-01 0.45491708E+03</pdfrwt>
<pdfrwt beam="2">  1       21 0.15597142E-01 0.45491708E+03</pdfrwt>
<totfact> 0.59095870E+04</totfact>
</mgrwt>
</event>
<event>
 7    0  0.4737014E-002  0.4595705E+03  0.7546771E-02  0.1024906E+00
         21   -1    0    0  502  501  0.00000000000E+00  0.00000000000E+00  0.49025539462E+03  0.49025539462E+03  0.00000000000E+00 0.  1.
         21   -1    0    0  501  502 -0.00000000000E+00 -0.00000000000E+00 -0.10770155977E+03  0.10770155977E+03  0.00000000000E+00 0.  1.
      99926    2    1    2    0    0 -0.71054273576E-14  0.00000000000E+00  0.38255383485E+03  0.59795695439E+03  0.45957054164E+03 0.  0.
      99925    2    3    3    0    0  0.57691379317E+02  0.42635620570E+02  0.36069795016E+03  0.45211018828E+03  0.26297246949E+03 0.  0.
         25    1    4    4    0    0 -0.30648739878E+01  0.31110862886E+02  0.13439225912E+03  0.18624195729E+03  0.12509000000E+03 0.  0.
         25    1    4    4    0    0  0.60756253305E+02  0.11524757684E+02  0.22630569104E+03  0.26586823099E+03  0.12509000000E+03 0.  0.
         25    1    3    3    0    0 -0.57691379317E+02 -0.42635620570E+02  0.21855884693E+02  0.14584676611E+03  0.12509000000E+03 0.  0.
<mgrwt>
<rscale>  2 0.45957054E+03</rscale>
<asrwt>0</asrwt>
<pdfrwt beam="1">  1       21 0.72096380E-01 0.45957054E+03</pdfrwt>
<pdfrwt beam="2">  1       21 0.15838465E-01 0.45957054E+03</pdfrwt>
<totfact> 0.56727502E+04</totfact>
</mgrwt>
</event>
<event>
 7    0  0.4737014E-002  0.4631253E+03  0.7546771E-02  0.1023879E+00
         21   -1    0    0  502  501  0.00000000000E+00  0.00000000000E+00  0.95751377425E+03  0.95751377425E+03  0.00000000000E+00 0.  1.
         21   -1    0    0  501  502 -0.00000000000E+00 -0.00000000000E+00 -0.56000519109E+02  0.56000519109E+02  0.00000000000E+00 0.  1.
      99926    2    1    2    0    0 -0.14210854715E-13  0.14210854715E-13  0.90151325514E+03  0.10135142934E+04  0.46312533255E+03 0.  0.
      99925    2    3    3    0    0  0.69518131420E+02 -0.98537718983E+02  0.57389080805E+03  0.64266873440E+03  0.26292582596E+03 0.  0.
         25    1    3    3    0    0 -0.69518131420E+02  0.98537718983E+02  0.32762244709E+03  0.37084555895E+03  0.12509000000E+03 0.  0.
         25    1    4    4    0    0  0.32088836625E+02 -0.51998508166E+02  0.19807961444E+03  0.24210861208E+03  0.12509000000E+03 0.  0.
         25    1    4    4    0    0  0.37429294795E+02 -0.46539210817E+02  0.37581119361E+03  0.40056012232E+03  0.12509000000E+03 0.  0.
<mgrwt>
<rscale>  2 0.46312533E+03</rscale>
<asrwt>0</asrwt>
<pdfrwt beam="1">  1       21 0.14081084E+00 0.46312533E+03</pdfrwt>
<pdfrwt beam="2">  1       21 0.82353711E-02 0.46312533E+03</pdfrwt>
<totfact> 0.36287622E+04</totfact>
</mgrwt>
</event>
<event>
 7    0  0.4737014E-002  0.4421794E+03  0.7546771E-02  0.1030080E+00
         21   -1    0    0  502  501  0.00000000000E+00  0.00000000000E+00  0.75443735553E+03  0.75443735553E+03  0.00000000000E+00 0. -1.
         21   -1    0    0  501  502 -0.00000000000E+00 -0.00000000000E+00 -0.64790880273E+02  0.64790880273E+02  0.00000000000E+00 0. -1.
      99926    2    1    2    0    0  0.14210854715E-13  0.00000000000E+00  0.68964647525E+03  0.81922823580E+03  0.44217942230E+03 0.  0.
      99925    2    3    3    0    0  0.70604013531E+02 -0.28250471771E+02  0.56150097502E+03  0.62467286267E+03  0.26296354221E+03 0.  0.
         25    1    4    4    0    0  0.68113177738E+02  0.54847609945E+01  0.32782784932E+03  0.35747460675E+03  0.12509000000E+03 0.  0.
         25    1    3    3    0    0 -0.70604013531E+02  0.28250471771E+02  0.12814550024E+03  0.19455537313E+03  0.12509000000E+03 0.  0.
         25    1    4    4    0    0  0.24908357936E+01 -0.33735232766E+02  0.23367312570E+03  0.26719825592E+03  0.12509000000E+03 0.  0.
<mgrwt>
<rscale>  2 0.44217942E+03</rscale>
<asrwt>0</asrwt>
<pdfrwt beam="1">  1       21 0.11094666E+00 0.44217942E+03</pdfrwt>
<pdfrwt beam="2">  1       21 0.95280711E-02 0.44217942E+03</pdfrwt>
<totfact> 0.51873665E+04</totfact>
</mgrwt>
</event>
<event>
 7    0  0.4737014E-002  0.4586219E+03  0.7546771E-02  0.1025182E+00
         21   -1    0    0  502  501  0.00000000000E+00  0.00000000000E+00  0.49489318635E+03  0.49489318635E+03  0.00000000000E+00 0. -1.
         21   -1    0    0  501  502 -0.00000000000E+00 -0.00000000000E+00 -0.10625222648E+03  0.10625222648E+03  0.00000000000E+00 0. -1.
      99926    2    1    2    0    0  0.35527136788E-14  0.00000000000E+00  0.38864095987E+03  0.60114541283E+03  0.45862186132E+03 0.  0.
      99925    2    3    3    0    0  0.29635690197E+02  0.45082238037E+02  0.37916278699E+03  0.46458763685E+03  0.26299538201E+03 0.  0.
         25    1    4    4    0    0  0.30001365199E+02 -0.43422454221E+01  0.13982336774E+03  0.19004478229E+03  0.12509000000E+03 0.  0.
         25    1    4    4    0    0 -0.36567500167E+00  0.49424483459E+02  0.23933941926E+03  0.27454285457E+03  0.12509000000E+03 0.  0.
         25    1    3    3    0    0 -0.29635690197E+02 -0.45082238037E+02  0.94781728739E+01  0.13655777598E+03  0.12509000000E+03 0.  0.
<mgrwt>
<rscale>  2 0.45862186E+03</rscale>
<asrwt>0</asrwt>
<pdfrwt beam="1">  1       21 0.72778409E-01 0.45862186E+03</pdfrwt>
<pdfrwt beam="2">  1       21 0.15625328E-01 0.45862186E+03</pdfrwt>
<totfact> 0.56960215E+04</totfact>
</mgrwt>
</event>
<event>
 7    0  0.4737014E-002  0.4538193E+03  0.7546771E-02  0.1026589E+00
         21   -1    0    0  502  501  0.00000000000E+00  0.00000000000E+00  0.10592866425E+04  0.10592866425E+04  0.00000000000E+00 0.  1.
         21   -1    0    0  501  502 -0.00000000000E+00 -0.00000000000E+00 -0.48606288479E+02  0.48606288479E+02  0.00000000000E+00 0.  1.
      99926    2    1    2    0    0  0.00000000000E+00  0.00000000000E+00  0.10106803540E+04  0.11078929310E+04  0.45381931262E+03 0.  0.
      99925    2    3    3    0    0 -0.69093483903E+02 -0.71013388533E+02  0.50957928924E+03  0.58199693737E+03  0.26312083197E+03 0.  0.
         25    1    4    4    0    0 -0.76114857753E+02 -0.32348298794E+02  0.26485670187E+03  0.30436239030E+03  0.12509000000E+03 0.  0.
         25    1    4    4    0    0  0.70213738503E+01 -0.38665089740E+02  0.24472258737E+03  0.27763454706E+03  0.12509000000E+03 0.  0.
         25    1    3    3    0    0  0.69093483903E+02  0.71013388533E+02  0.50110106477E+03  0.52589599359E+03  0.12509000000E+03 0.  0.
<mgrwt>
<rscale>  2 0.45381931E+03</rscale>
<asrwt>0</asrwt>
<pdfrwt beam="1">  1       21 0.15577743E+00 0.45381931E+03</pdfrwt>
<pdfrwt beam="2">  1       21 0.71479842E-02 0.45381931E+03</pdfrwt>
<totfact> 0.35545735E+04</totfact>
</mgrwt>
</event>
<event>
 7    0  0.4737014E-002  0.4233312E+03  0.7546771E-02  0.1035988E+00
         21   -1    0    0  502  501  0.00000000000E+00  0.00000000000E+00  0.87800674893E+03  0.87800674893E+03  0.00000000000E+00 0. -1.
         21   -1    0    0  501  502 -0.00000000000E+00 -0.00000000000E+00 -0.51027305183E+02  0.51027305183E+02  0.00000000000E+00 0. -1.
      99926    2    1    2    0    0 -0.17763568394E-14  0.00000000000E+00  0.82697944375E+03  0.92903405411E+03  0.42333116271E+03 0.  0.
      99925    2    3    3    0    0 -0.15118996962E+02 -0.61977968121E+02  0.43161984877E+03  0.50947884911E+03  0.26306491830E+03 0.  0.
         25    1    3    3    0    0  0.15118996962E+02  0.61977968121E+02  0.39535959498E+03  0.41955520500E+03  0.12509000000E+03 0.  0.
         25    1    4    4    0    0 -0.35436921451E+01 -0.55570264086E+02  0.28576603429E+03  0.31687591650E+03  0.12509000000E+03 0.  0.
         25    1    4    4    0    0 -0.11575304817E+02 -0.64077040350E+01  0.14585381448E+03  0.19260293262E+03  0.12509000000E+03 0.  0.
<mgrwt>
<rscale>  2 0.42333116E+03</rscale>
<asrwt>0</asrwt>
<pdfrwt beam="1">  1       21 0.12911863E+00 0.42333116E+03</pdfrwt>
<pdfrwt beam="2">  1       21 0.75040160E-02 0.42333116E+03</pdfrwt>
<totfact> 0.54241853E+04</totfact>
</mgrwt>
</event>
<event>
 7    0  0.4737014E-002  0.4362757E+03  0.7546771E-02  0.1031896E+00
         21   -1    0    0  502  501  0.00000000000E+00  0.00000000000E+00  0.87124065254E+02  0.87124065254E+02  0.00000000000E+00 0. -1.
         21   -1    0    0  501  502 -0.00000000000E+00 -0.00000000000E+00 -0.54616505671E+03  0.54616505671E+03  0.00000000000E+00 0. -1.
      99926    2    1    2    0    0  0.14210854715E-13  0.00000000000E+00 -0.45904099145E+03  0.63328912196E+03  0.43627569284E+03 0.  0.
      99925    2    3    3    0    0 -0.69081389926E+02 -0.30998612257E+02 -0.20887679778E+03  0.34352579734E+03  0.26200630602E+03 0.  0.
         25    1    3    3    0    0  0.69081389926E+02  0.30998612257E+02 -0.25016419368E+03  0.28976332462E+03  0.12509000000E+03 0.  0.
         25    1    4    4    0    0 -0.68454206491E+02 -0.37217022799E+02 -0.11775820736E+03  0.18864142884E+03  0.12509000000E+03 0.  0.
         25    1    4    4    0    0 -0.62718343431E+00  0.62184105414E+01 -0.91118590415E+02  0.15488436851E+03  0.12509000000E+03 0.  0.
<mgrwt>
<rscale>  2 0.43627569E+03</rscale>
<asrwt>0</asrwt>
<pdfrwt beam="1">  1       21 0.12812363E-01 0.43627569E+03</pdfrwt>
<pdfrwt beam="2">  1       21 0.80318390E-01 0.43627569E+03</pdfrwt>
<totfact> 0.65883411E+04</totfact>
</mgrwt>
</event>
<event>
 7    0  0.4737014E-002  0.4828603E+03  0.7546771E-02  0.1018352E+00
         21   -1    0    0  502  501  0.00000000000E+00  0.00000000000E+00  0.76650483435E+02  0.76650483435E+02  0.00000000000E+00 0.  1.
         21   -1    0    0  501  502 -0.00000000000E+00 -0.00000000000E+00 -0.76044546874E+03  0.76044546874E+03  0.00000000000E+00 0.  1.
      99926    2    1    2    0    0  0.00000000000E+00  0.00000000000E+00 -0.68379498531E+03  0.83709595218E+03  0.48286028126E+03 0.  0.
      99925    2    3    3    0    0  0.78726400794E+02  0.89553892149E+02 -0.53952040987E+03  0.61197285919E+03  0.26307938333E+03 0.  0.
         25    1    4    4    0    0  0.62876971641E+02  0.13511149197E+02 -0.23895906500E+03  0.27728145910E+03  0.12509000000E+03 0.  0.
         25    1    4    4    0    0  0.15849429153E+02  0.76042742952E+02 -0.30056134487E+03  0.33469140008E+03  0.12509000000E+03 0.  0.
         25    1    3    3    0    0 -0.78726400794E+02 -0.89553892149E+02 -0.14427457544E+03  0.22512309299E+03  0.12509000000E+03 0.  0.
<mgrwt>
<rscale>  2 0.48286028E+03</rscale>
<asrwt>0</asrwt>
<pdfrwt beam="1">  1       21 0.11272130E-01 0.48286028E+03</pdfrwt>
<pdfrwt beam="2">  1       21 0.11183022E+00 0.48286028E+03</pdfrwt>
<totfact> 0.37199325E+04</totfact>
</mgrwt>
</event>
<event>
 7    0  0.4737014E-002  0.5000956E+03  0.7546771E-02  0.1013754E+00
         21   -1    0    0  502  501  0.00000000000E+00  0.00000000000E+00  0.12290819661E+04  0.12290819661E+04  0.00000000000E+00 0.  1.
         21   -1    0    0  501  502 -0.00000000000E+00 -0.00000000000E+00 -0.50870414146E+02  0.50870414146E+02  0.00000000000E+00 0.  1.
      99926    2    1    2    0    0 -0.71054273576E-14  0.00000000000E+00  0.11782115520E+04  0.12799523803E+04  0.50009562540E+03 0.  0.
      99925    2    3    3    0    0 -0.23041510234E+02 -0.14619885818E+03  0.63136689228E+03  0.69978722511E+03  0.26300758625E+03 0.  0.
         25    1    4    4    0    0  0.16148220816E+02 -0.39128612091E+02  0.29636924853E+03  0.32445963215E+03  0.12509000000E+03 0.  0.
         25    1    4    4    0    0 -0.39189731050E+02 -0.10707024609E+03  0.33499764376E+03  0.37532759297E+03  0.12509000000E+03 0.  0.
         25    1    3    3    0    0  0.23041510234E+02  0.14619885818E+03  0.54684465971E+03  0.58016515517E+03  0.12509000000E+03 0.  0.
<mgrwt>
<rscale>  2 0.50009563E+03</rscale>
<asrwt>0</asrwt>
<pdfrwt beam="1">  1       21 0.18074733E+00 0.50009563E+03</pdfrwt>
<pdfrwt beam="2">  1       21 0.74809441E-02 0.50009563E+03</pdfrwt>
<totfact> 0.21219867E+04</totfact>
</mgrwt>
</event>
<event>
 7    0  0.4737014E-002  0.4559572E+03  0.7546771E-02  0.1025960E+00
         21   -1    0    0  502  501  0.00000000000E+00  0.00000000000E+00  0.32014186782E+03  0.32014186782E+03  0.00000000000E+00 0. -1.
         21   -1    0    0  501  502 -0.00000000000E+00 -0.00000000000E+00 -0.16234752068E+03  0.16234752068E+03  0.00000000000E+00 0. -1.
      99926    2    1    2    0    0  0.00000000000E+00  0.00000000000E+00  0.15779434714E+03  0.48248938850E+03  0.45595718443E+03 0.  0.
      99925    2    3    3    0    0 -0.30000762924E+02 -0.78769914372E+02  0.17860487335E+02  0.27673774597E+03  0.26298296114E+03 0.  0.
         25    1    4    4    0    0  0.22206329883E+02 -0.27684015005E+02 -0.48301259934E+01  0.13011673217E+03  0.12509000000E+03 0.  0.
         25    1    3    3    0    0  0.30000762924E+02  0.78769914372E+02  0.13993385981E+03  0.20575164254E+03  0.12509000000E+03 0.  0.
         25    1    4    4    0    0 -0.52207092808E+02 -0.51085899367E+02  0.22690613328E+02  0.14662101380E+03  0.12509000000E+03 0.  0.
<mgrwt>
<rscale>  2 0.45595718E+03</rscale>
<asrwt>0</asrwt>
<pdfrwt beam="1">  1       21 0.47079686E-01 0.45595718E+03</pdfrwt>
<pdfrwt beam="2">  1       21 0.23874635E-01 0.45595718E+03</pdfrwt>
<totfact> 0.66016314E+04</totfact>
</mgrwt>
</event>
<event>
 7    0  0.4737014E-002  0.4304193E+03  0.7546771E-02  0.1033728E+00
         21   -1    0    0  502  501  0.00000000000E+00  0.00000000000E+00  0.22532947626E+02  0.22532947626E+02  0.00000000000E+00 0.  1.
         21   -1    0    0  501  502 -0.00000000000E+00 -0.00000000000E+00 -0.20554432925E+04  0.20554432925E+04  0.00000000000E+00 0.  1.
      99926    2    1    2    0    0  0.00000000000E+00  0.00000000000E+00 -0.20329103448E+04  0.20779762401E+04  0.43041931210E+03 0.  0.
      99925    2    3    3    0    0  0.39263371027E+02  0.78126446380E+01 -0.16892089459E+04  0.17100349276E+04  0.26303980859E+03 0.  0.
         25    1    4    4    0    0  0.22910505632E+02 -0.36421953471E+02 -0.81667797795E+03  0.82732211244E+03  0.12509000000E+03 0.  0.
         25    1    3    3    0    0 -0.39263371027E+02 -0.78126446380E+01 -0.34370139890E+03  0.36794131247E+03  0.12509000000E+03 0.  0.
         25    1    4    4    0    0  0.16352865395E+02  0.44234598109E+02 -0.87253096799E+03  0.88271281518E+03  0.12509000000E+03 0.  0.
<mgrwt>
<rscale>  2 0.43041931E+03</rscale>
<asrwt>0</asrwt>
<pdfrwt beam="1">  1       21 0.33136680E-02 0.43041931E+03</pdfrwt>
<pdfrwt beam="2">  1       21 0.30227115E+00 0.43041931E+03</pdfrwt>
<totfact> 0.15174401E+04</totfact>
</mgrwt>
</event>
<event>
 7    0  0.4737014E-002  0.4444231E+03  0.7546771E-02  0.1029398E+00
         21   -1    0    0  502  501  0.00000000000E+00  0.00000000000E+00  0.18572306105E+03  0.18572306105E+03  0.00000000000E+00 0. -1.
         21   -1    0    0  501  502 -0.00000000000E+00 -0.00000000000E+00 -0.26586877821E+03  0.26586877821E+03  0.00000000000E+00 0. -1.
      99926    2    1    2    0    0 -0.14210854715E-13  0.00000000000E+00 -0.80145717158E+02  0.45159183926E+03  0.44442305668E+03 0.  0.
      99925    2    3    3    0    0  0.98407283922E+02  0.18807746618E+02 -0.74587067992E+02  0.29122933884E+03  0.26308472443E+03 0.  0.
         25    1    4    4    0    0  0.27358549616E+02  0.43449307546E+02 -0.28680909217E+02  0.13822602945E+03  0.12509000000E+03 0.  0.
         25    1    3    3    0    0 -0.98407283922E+02 -0.18807746618E+02 -0.55586491665E+01  0.16036250042E+03  0.12509000000E+03 0.  0.
         25    1    4    4    0    0  0.71048734306E+02 -0.24641560928E+02 -0.45906158775E+02  0.15300330939E+03  0.12509000000E+03 0.  0.
<mgrwt>
<rscale>  2 0.44442306E+03</rscale>
<asrwt>0</asrwt>
<pdfrwt beam="1">  1       21 0.27312215E-01 0.44442306E+03</pdfrwt>
<pdfrwt beam="2">  1       21 0.39098350E-01 0.44442306E+03</pdfrwt>
<totfact> 0.74919872E+04</totfact>
</mgrwt>
</event>
<event>
 7    0  0.4737014E-002  0.4619269E+03  0.7546771E-02  0.1024224E+00
         21   -1    0    0  502  501  0.00000000000E+00  0.00000000000E+00  0.56372573996E+03  0.56372573996E+03  0.00000000000E+00 0. -1.
         21   -1    0    0  501  502 -0.00000000000E+00 -0.00000000000E+00 -0.94627791109E+02  0.94627791109E+02  0.00000000000E+00 0. -1.
      99926    2    1    2    0    0  0.00000000000E+00 -0.14210854715E-13  0.46909794885E+03  0.65835353107E+03  0.46192692740E+03 0.  0.
      99925    2    3    3    0    0 -0.95448396002E+02  0.70119966988E+02  0.31727906100E+03  0.42873713601E+03  0.26291124582E+03 0.  0.
         25    1    4    4    0    0 -0.29339024191E+02  0.69490866639E+02  0.14522508926E+03  0.20597959496E+03  0.12509000000E+03 0.  0.
         25    1    4    4    0    0 -0.66109371811E+02  0.62910034973E+00  0.17205397173E+03  0.22275754106E+03  0.12509000000E+03 0.  0.
         25    1    3    3    0    0  0.95448396002E+02 -0.70119966988E+02  0.15181888786E+03  0.22961639506E+03  0.12509000000E+03 0.  0.
<mgrwt>
<rscale>  2 0.46192693E+03</rscale>
<asrwt>0</asrwt>
<pdfrwt beam="1">  1       21 0.82900843E-01 0.46192693E+03</pdfrwt>
<pdfrwt beam="2">  1       21 0.13915852E-01 0.46192693E+03</pdfrwt>
<totfact> 0.52305972E+04</totfact>
</mgrwt>
</event>
<event>
 7    0  0.4737014E-002  0.4541729E+03  0.7546771E-02  0.1026485E+00
         21   -1    0    0  502  501  0.00000000000E+00  0.00000000000E+00  0.39635307932E+03  0.39635307932E+03  0.00000000000E+00 0. -1.
         21   -1    0    0  501  502 -0.00000000000E+00 -0.00000000000E+00 -0.13010687104E+03  0.13010687104E+03  0.00000000000E+00 0. -1.
      99926    2    1    2    0    0  0.00000000000E+00 -0.14210854715E-13  0.26624620828E+03  0.52645995036E+03  0.45417291411E+03 0.  0.
      99925    2    3    3    0    0 -0.44431652437E+02  0.10017220082E+03  0.19660898978E+03  0.34616715556E+03  0.26299802883E+03 0.  0.
         25    1    4    4    0    0 -0.22747251577E+02  0.68089135872E+01  0.87211510534E+02  0.15432807401E+03  0.12509000000E+03 0.  0.
         25    1    4    4    0    0 -0.21684400860E+02  0.93363287235E+02  0.10939747925E+03  0.19183908155E+03  0.12509000000E+03 0.  0.
         25    1    3    3    0    0  0.44431652437E+02 -0.10017220082E+03  0.69637218505E+02  0.18029279480E+03  0.12509000000E+03 0.  0.
<mgrwt>
<rscale>  2 0.45417291E+03</rscale>
<asrwt>0</asrwt>
<pdfrwt beam="1">  1       21 0.58287217E-01 0.45417291E+03</pdfrwt>
<pdfrwt beam="2">  1       21 0.19133363E-01 0.45417291E+03</pdfrwt>
<totfact> 0.63864489E+04</totfact>
</mgrwt>
</event>
<event>
 7    0  0.4737014E-002  0.4866348E+03  0.7546771E-02  0.1017328E+00
         21   -1    0    0  502  501  0.00000000000E+00  0.00000000000E+00  0.12573495083E+04  0.12573495083E+04  0.00000000000E+00 0. -1.
         21   -1    0    0  501  502 -0.00000000000E+00 -0.00000000000E+00 -0.47085834029E+02  0.47085834029E+02  0.00000000000E+00 0. -1.
      99926    2    1    2    0    0  0.00000000000E+00  0.71054273576E-14  0.12102636742E+04  0.13044353423E+04  0.48663477172E+03 0.  0.
      99925    2    3    3    0    0 -0.10167107353E+03  0.38923839722E+02  0.50309740458E+03  0.57808576149E+03  0.26310468763E+03 0.  0.
         25    1    4    4    0    0 -0.74107740393E+01  0.18335604256E+02  0.23219036885E+03  0.26448249364E+03  0.12509000000E+03 0.  0.
         25    1    3    3    0    0  0.10167107353E+03 -0.38923839722E+02  0.70716626964E+03  0.72634958079E+03  0.12509000000E+03 0.  0.
         25    1    4    4    0    0 -0.94260299491E+02  0.20588235467E+02  0.27090703573E+03  0.31360326785E+03  0.12509000000E+03 0.  0.
<mgrwt>
<rscale>  2 0.48663477E+03</rscale>
<asrwt>0</asrwt>
<pdfrwt beam="1">  1       21 0.18490432E+00 0.48663477E+03</pdfrwt>
<pdfrwt beam="2">  1       21 0.69243882E-02 0.48663477E+03</pdfrwt>
<totfact> 0.22828049E+04</totfact>
</mgrwt>
</event>
<event>
 7    0  0.4737014E-002  0.4608935E+03  0.7546771E-02  0.1024522E+00
         21   -1    0    0  502  501  0.00000000000E+00  0.00000000000E+00  0.12360230410E+04  0.12360230410E+04  0.00000000000E+00 0.  1.
         21   -1    0    0  501  502 -0.00000000000E+00 -0.00000000000E+00 -0.42964985135E+02  0.42964985135E+02  0.00000000000E+00 0.  1.
      99926    2    1    2    0    0  0.00000000000E+00  0.00000000000E+00  0.11930580558E+04  0.12789880261E+04  0.46089353036E+03 0.  0.
      99925    2    3    3    0    0 -0.23062670078E+02  0.34285432378E+02  0.10554082053E+04  0.10884562254E+04  0.26295075052E+03 0.  0.
         25    1    3    3    0    0  0.23062670078E+02 -0.34285432378E+02  0.13764985055E+03  0.19053180071E+03  0.12509000000E+03 0.  0.
         25    1    4    4    0    0 -0.33882822253E+02  0.61536734082E+01  0.66025353190E+03  0.67288048555E+03  0.12509000000E+03 0.  0.
         25    1    4    4    0    0  0.10820152175E+02  0.28131758970E+02  0.39515467336E+03  0.41557573983E+03  0.12509000000E+03 0.  0.
<mgrwt>
<rscale>  2 0.46089353E+03</rscale>
<asrwt>0</asrwt>
<pdfrwt beam="1">  1       21 0.18176807E+00 0.46089353E+03</pdfrwt>
<pdfrwt beam="2">  1       21 0.63183810E-02 0.46089353E+03</pdfrwt>
<totfact> 0.28405773E+04</totfact>
</mgrwt>
</event>
<event>
 7    0  0.4737014E-002  0.4513036E+03  0.7546771E-02  0.1027334E+00
         21   -1    0    0  502  501  0.00000000000E+00  0.00000000000E+00  0.36473338616E+03  0.36473338616E+03  0.00000000000E+00 0. -1.
         21   -1    0    0  501  502 -0.00000000000E+00 -0.00000000000E+00 -0.13960537131E+03  0.13960537131E+03  0.00000000000E+00 0. -1.
      99926    2    1    2    0    0  0.00000000000E+00  0.00000000000E+00  0.22512801484E+03  0.50433875747E+03  0.45130362199E+03 0.  0.
      99925    2    3    3    0    0 -0.97935238387E+02  0.48963331337E+02  0.13660010502E+03  0.31599487610E+03  0.26306739497E+03 0.  0.
         25    1    4    4    0    0 -0.43989617663E+02  0.46717275901E+02  0.10673588923E+03  0.17651529248E+03  0.12509000000E+03 0.  0.
         25    1    3    3    0    0  0.97935238387E+02 -0.48963331337E+02  0.88527909822E+02  0.18834388137E+03  0.12509000000E+03 0.  0.
         25    1    4    4    0    0 -0.53945620724E+02  0.22460554359E+01  0.29864215785E+02  0.13947958361E+03  0.12509000000E+03 0.  0.
<mgrwt>
<rscale>  2 0.45130362E+03</rscale>
<asrwt>0</asrwt>
<pdfrwt beam="1">  1       21 0.53637263E-01 0.45130362E+03</pdfrwt>
<pdfrwt beam="2">  1       21 0.20530202E-01 0.45130362E+03</pdfrwt>
<totfact> 0.66908445E+04</totfact>
</mgrwt>
</event>
<event>
 7    0  0.4737014E-002  0.4531159E+03  0.7546771E-02  0.1026797E+00
         21   -1    0    0  502  501  0.00000000000E+00  0.00000000000E+00  0.66317707319E+03  0.66317707319E+03  0.00000000000E+00 0.  1.
         21   -1    0    0  501  502 -0.00000000000E+00 -0.00000000000E+00 -0.77397902139E+02  0.77397902139E+02  0.00000000000E+00 0.  1.
      99926    2    1    2    0    0  0.00000000000E+00  0.71054273576E-14  0.58577917105E+03  0.74057497533E+03  0.45311594195E+03 0.  0.
      99925    2    3    3    0    0 -0.70969299481E+02  0.57288087260E+02  0.26475449766E+03  0.38417223202E+03  0.26301101387E+03 0.  0.
         25    1    3    3    0    0  0.70969299481E+02 -0.57288087260E+02  0.32102467340E+03  0.35640274331E+03  0.12509000000E+03 0.  0.
         25    1    4    4    0    0 -0.30154802436E+02  0.68994225842E+02  0.14747606271E+03  0.20752400459E+03  0.12509000000E+03 0.  0.
         25    1    4    4    0    0 -0.40814497046E+02 -0.11706138582E+02  0.11727843495E+03  0.17664822743E+03  0.12509000000E+03 0.  0.
<mgrwt>
<rscale>  2 0.45311594E+03</rscale>
<asrwt>0</asrwt>
<pdfrwt beam="1">  1       21 0.97526037E-01 0.45311594E+03</pdfrwt>
<pdfrwt beam="2">  1       21 0.11382045E-01 0.45311594E+03</pdfrwt>
<totfact> 0.51513497E+04</totfact>
</mgrwt>
</event>
<event>
 7    0  0.4737014E-002  0.4585077E+03  0.7546771E-02  0.1025215E+00
         21   -1    0    0  502  501  0.00000000000E+00  0.00000000000E+00  0.94295294572E+02  0.94295294572E+02  0.00000000000E+00 0. -1.
         21   -1    0    0  501  502 -0.00000000000E+00 -0.00000000000E+00 -0.55736951497E+03  0.55736951497E+03  0.00000000000E+00 0. -1.
      99926    2    1    2    0    0  0.00000000000E+00  0.00000000000E+00 -0.46307422040E+03  0.65166480955E+03  0.45850767758E+03 0.  0.
      99925    2    3    3    0    0 -0.75354335128E+02 -0.67146770946E+02 -0.37313787760E+03  0.46748278402E+03  0.26290932464E+03 0.  0.
         25    1    4    4    0    0 -0.29491050977E+02 -0.73033887433E+02 -0.18319147524E+03  0.23539391560E+03  0.12509000000E+03 0.  0.
         25    1    4    4    0    0 -0.45863284151E+02  0.58871164868E+01 -0.18994640236E+03  0.23208886841E+03  0.12509000000E+03 0.  0.
         25    1    3    3    0    0  0.75354335128E+02  0.67146770946E+02 -0.89936342801E+02  0.18418202553E+03  0.12509000000E+03 0.  0.
<mgrwt>
<rscale>  2 0.45850768E+03</rscale>
<asrwt>0</asrwt>
<pdfrwt beam="1">  1       21 0.13866955E-01 0.45850768E+03</pdfrwt>
<pdfrwt beam="2">  1       21 0.81966105E-01 0.45850768E+03</pdfrwt>
<totfact> 0.54093244E+04</totfact>
</mgrwt>
</event>
<event>
 7    0  0.4737014E-002  0.4488839E+03  0.7546771E-02  0.1028055E+00
         21   -1    0    0  502  501  0.00000000000E+00  0.00000000000E+00  0.23025788927E+03  0.23025788927E+03  0.00000000000E+00 0.  1.
         21   -1    0    0  501  502 -0.00000000000E+00 -0.00000000000E+00 -0.21877288606E+03  0.21877288606E+03  0.00000000000E+00 0.  1.
      99926    2    1    2    0    0  0.00000000000E+00 -0.26645352591E-14  0.11485003210E+02  0.44903077532E+03  0.44888387350E+03 0.  0.
      99925    2    3    3    0    0  0.87657140971E+02 -0.65624152612E+01 -0.54386974205E+02  0.28255715830E+03  0.26297103469E+03 0.  0.
         25    1    4    4    0    0  0.40540939351E+02  0.36129948985E+02 -0.17647923297E+02  0.13750599359E+03  0.12509000000E+03 0.  0.
         25    1    3    3    0    0 -0.87657140971E+02  0.65624152612E+01  0.65871977414E+02  0.16647361703E+03  0.12509000000E+03 0.  0.
         25    1    4    4    0    0  0.47116201620E+02 -0.42692364246E+02 -0.36739050907E+02  0.14505116470E+03  0.12509000000E+03 0.  0.
<mgrwt>
<rscale>  2 0.44888387E+03</rscale>
<asrwt>0</asrwt>
<pdfrwt beam="1">  1       21 0.33861454E-01 0.44888387E+03</pdfrwt>
<pdfrwt beam="2">  1       21 0.32172483E-01 0.44888387E+03</pdfrwt>
<totfact> 0.72457222E+04</totfact>
</mgrwt>
</event>
<event>
 7    0  0.4737014E-002  0.4573542E+03  0.7546771E-02  0.1025551E+00
         21   -1    0    0  502  501  0.00000000000E+00  0.00000000000E+00  0.99979768627E+02  0.99979768627E+02  0.00000000000E+00 0.  1.
         21   -1    0    0  501  502 -0.00000000000E+00 -0.00000000000E+00 -0.52303807967E+03  0.52303807967E+03  0.00000000000E+00 0.  1.
      99926    2    1    2    0    0  0.00000000000E+00  0.00000000000E+00 -0.42305831104E+03  0.62301784829E+03  0.45735424427E+03 0.  0.
      99925    2    3    3    0    0 -0.39883866957E+02  0.98415079457E+02 -0.20412926180E+03  0.34942382897E+03  0.26296769007E+03 0.  0.
         25    1    3    3    0    0  0.39883866957E+02 -0.98415079457E+02 -0.21892904925E+03  0.27359401933E+03  0.12509000000E+03 0.  0.
         25    1    4    4    0    0  0.92043161291E+01  0.77798067957E+02 -0.10288730096E+03  0.17991821368E+03  0.12509000000E+03 0.  0.
         25    1    4    4    0    0 -0.49088183086E+02  0.20617011500E+02 -0.10124196083E+03  0.16950561529E+03  0.12509000000E+03 0.  0.
<mgrwt>
<rscale>  2 0.45735424E+03</rscale>
<asrwt>0</asrwt>
<pdfrwt beam="1">  1       21 0.14702907E-01 0.45735424E+03</pdfrwt>
<pdfrwt beam="2">  1       21 0.76917367E-01 0.45735424E+03</pdfrwt>
<totfact> 0.56230783E+04</totfact>
</mgrwt>
</event>
<event>
 7    0  0.4737014E-002  0.4520619E+03  0.7546771E-02  0.1027109E+00
         21   -1    0    0  502  501  0.00000000000E+00  0.00000000000E+00  0.29044710795E+03  0.29044710795E+03  0.00000000000E+00 0. -1.
         21   -1    0    0  501  502 -0.00000000000E+00 -0.00000000000E+00 -0.17590122172E+03  0.17590122172E+03  0.00000000000E+00 0. -1.
      99926    2    1    2    0    0  0.00000000000E+00  0.00000000000E+00  0.11454588623E+03  0.46634832967E+03  0.45206194767E+03 0.  0.
      99925    2    3    3    0    0  0.16169247193E+02  0.59034456131E+02  0.16709166228E+03  0.31750250928E+03  0.26294810939E+03 0.  0.
         25    1    4    4    0    0 -0.61763163598E+01  0.46859669572E+02  0.45614808781E+02  0.14128763002E+03  0.12509000000E+03 0.  0.
         25    1    3    3    0    0 -0.16169247193E+02 -0.59034456131E+02 -0.52545776049E+02  0.14884582038E+03  0.12509000000E+03 0.  0.
         25    1    4    4    0    0  0.22345563552E+02  0.12174786558E+02  0.12147685350E+03  0.17621487926E+03  0.12509000000E+03 0.  0.
<mgrwt>
<rscale>  2 0.45206195E+03</rscale>
<asrwt>0</asrwt>
<pdfrwt beam="1">  1       21 0.42712810E-01 0.45206195E+03</pdfrwt>
<pdfrwt beam="2">  1       21 0.25867827E-01 0.45206195E+03</pdfrwt>
<totfact> 0.69309651E+04</totfact>
</mgrwt>
</event>
<event>
 7    0  0.4737014E-002  0.4637170E+03  0.7546771E-02  0.1023709E+00
         21   -1    0    0  502  501  0.00000000000E+00  0.00000000000E+00  0.43496292361E+03  0.43496292361E+03  0.00000000000E+00 0.  1.
         21   -1    0    0  501  502 -0.00000000000E+00 -0.00000000000E+00 -0.12359297207E+03  0.12359297207E+03  0.00000000000E+00 0.  1.
      99926    2    1    2    0    0  0.14210854715E-13  0.00000000000E+00  0.31136995155E+03  0.55855589568E+03  0.46371698467E+03 0.  0.
      99925    2    3    3    0    0 -0.87026617215E+02 -0.73333629401E+02  0.14354736292E+03  0.32030522378E+03  0.26275109453E+03 0.  0.
         25    1    3    3    0    0  0.87026617215E+02  0.73333629401E+02  0.16782258863E+03  0.23825067190E+03  0.12509000000E+03 0.  0.
         25    1    4    4    0    0 -0.61632762328E+01 -0.17513971745E+02  0.51656029864E+02  0.13660372872E+03  0.12509000000E+03 0.  0.
         25    1    4    4    0    0 -0.80863340982E+02 -0.55819657656E+02  0.91891333052E+02  0.18370149506E+03  0.12509000000E+03 0.  0.
<mgrwt>
<rscale>  2 0.46371698E+03</rscale>
<asrwt>0</asrwt>
<pdfrwt beam="1">  1       21 0.63965135E-01 0.46371698E+03</pdfrwt>
<pdfrwt beam="2">  1       21 0.18175437E-01 0.46371698E+03</pdfrwt>
<totfact> 0.57253443E+04</totfact>
</mgrwt>
</event>
<event>
 7    0  0.4737014E-002  0.4525659E+03  0.7546771E-02  0.1026960E+00
         21   -1    0    0  502  501  0.00000000000E+00  0.00000000000E+00  0.17921182094E+03  0.17921182094E+03  0.00000000000E+00 0.  1.
         21   -1    0    0  501  502 -0.00000000000E+00 -0.00000000000E+00 -0.28571757551E+03  0.28571757551E+03  0.00000000000E+00 0.  1.
      99926    2    1    2    0    0 -0.71054273576E-14  0.00000000000E+00 -0.10650575457E+03  0.46492939645E+03  0.45256587137E+03 0.  0.
      99925    2    3    3    0    0 -0.55651724638E+02 -0.10795634933E+02 -0.16506573219E+03  0.31562956635E+03  0.26298605861E+03 0.  0.
         25    1    4    4    0    0 -0.35288293514E+02 -0.83675173704E+01 -0.13020525481E+03  0.18416350204E+03  0.12509000000E+03 0.  0.
         25    1    3    3    0    0  0.55651724638E+02  0.10795634933E+02  0.58559977613E+02  0.14929983010E+03  0.12509000000E+03 0.  0.
         25    1    4    4    0    0 -0.20363431124E+02 -0.24281175626E+01 -0.34860477382E+02  0.13146606431E+03  0.12509000000E+03 0.  0.
<mgrwt>
<rscale>  2 0.45256587E+03</rscale>
<asrwt>0</asrwt>
<pdfrwt beam="1">  1       21 0.26354680E-01 0.45256587E+03</pdfrwt>
<pdfrwt beam="2">  1       21 0.42017290E-01 0.45256587E+03</pdfrwt>
<totfact> 0.69140280E+04</totfact>
</mgrwt>
</event>
<event>
 7    0  0.4737014E-002  0.4357415E+03  0.7546771E-02  0.1032061E+00
         21   -1    0    0  502  501  0.00000000000E+00  0.00000000000E+00  0.42216820928E+03  0.42216820928E+03  0.00000000000E+00 0.  1.
         21   -1    0    0  501  502 -0.00000000000E+00 -0.00000000000E+00 -0.11243780170E+03  0.11243780170E+03  0.00000000000E+00 0.  1.
      99926    2    1    2    0    0  0.00000000000E+00  0.35527136788E-14  0.30973040758E+03  0.53460601097E+03  0.43574150776E+03 0.  0.
      99925    2    3    3    0    0 -0.88605423210E+02 -0.31061370082E+02  0.20468707508E+03  0.34619863443E+03  0.26294669810E+03 0.  0.
         25    1    4    4    0    0 -0.36912857679E+02  0.23971145432E+02  0.10763885860E+03  0.17079463357E+03  0.12509000000E+03 0.  0.
         25    1    3    3    0    0  0.88605423210E+02  0.31061370082E+02  0.10504333251E+03  0.18840737655E+03  0.12509000000E+03 0.  0.
         25    1    4    4    0    0 -0.51692565532E+02 -0.55032515514E+02  0.97048216482E+02  0.17540400086E+03  0.12509000000E+03 0.  0.
<mgrwt>
<rscale>  2 0.43574151E+03</rscale>
<asrwt>0</asrwt>
<pdfrwt beam="1">  1       21 0.62083560E-01 0.43574151E+03</pdfrwt>
<pdfrwt beam="2">  1       21 0.16534971E-01 0.43574151E+03</pdfrwt>
<totfact> 0.73470076E+04</totfact>
</mgrwt>
</event>
<event>
 7    0  0.4737014E-002  0.4573284E+03  0.7546771E-02  0.1025559E+00
         21   -1    0    0  502  501  0.00000000000E+00  0.00000000000E+00  0.47797352675E+02  0.47797352675E+02  0.00000000000E+00 0.  1.
         21   -1    0    0  501  502 -0.00000000000E+00 -0.00000000000E+00 -0.10939374387E+04  0.10939374387E+04  0.00000000000E+00 0.  1.
      99926    2    1    2    0    0 -0.71054273576E-14  0.00000000000E+00 -0.10461400860E+04  0.11417347914E+04  0.45732838775E+03 0.  0.
      99925    2    3    3    0    0  0.39439340077E+02 -0.10537875840E+03 -0.72037094270E+03  0.77508347594E+03  0.26298280423E+03 0.  0.
         25    1    4    4    0    0  0.28533989350E+02 -0.95700751851E+02 -0.40972348754E+03  0.43987915022E+03  0.12509000000E+03 0.  0.
         25    1    3    3    0    0 -0.39439340077E+02  0.10537875840E+03 -0.32576914332E+03  0.36665131543E+03  0.12509000000E+03 0.  0.
         25    1    4    4    0    0  0.10905350727E+02 -0.96780065501E+01 -0.31064745516E+03  0.33520432572E+03  0.12509000000E+03 0.  0.
<mgrwt>
<rscale>  2 0.45732839E+03</rscale>
<asrwt>0</asrwt>
<pdfrwt beam="1">  1       21 0.70290226E-02 0.45732839E+03</pdfrwt>
<pdfrwt beam="2">  1       21 0.16087315E+00 0.45732839E+03</pdfrwt>
<totfact> 0.33448362E+04</totfact>
</mgrwt>
</event>
<event>
 7    0  0.4737014E-002  0.4414871E+03  0.7546771E-02  0.1030292E+00
         21   -1    0    0  502  501  0.00000000000E+00  0.00000000000E+00  0.10419087207E+03  0.10419087207E+03  0.00000000000E+00 0. -1.
         21   -1    0    0  501  502 -0.00000000000E+00 -0.00000000000E+00 -0.46767737628E+03  0.46767737628E+03  0.00000000000E+00 0. -1.
      99926    2    1    2    0    0  0.14210854715E-13  0.00000000000E+00 -0.36348650421E+03  0.57186824835E+03  0.44148709464E+03 0.  0.
      99925    2    3    3    0    0 -0.87277126661E+02  0.48446893977E+02 -0.24015272685E+03  0.36982090956E+03  0.26292541635E+03 0.  0.
         25    1    3    3    0    0  0.87277126661E+02 -0.48446893977E+02 -0.12333377736E+03  0.20204733879E+03  0.12509000000E+03 0.  0.
         25    1    4    4    0    0 -0.76139024838E+02 -0.17741419067E+00 -0.11954260500E+03  0.18903736427E+03  0.12509000000E+03 0.  0.
         25    1    4    4    0    0 -0.11138101823E+02  0.48624308168E+02 -0.12061012185E+03  0.18078354530E+03  0.12509000000E+03 0.  0.
<mgrwt>
<rscale>  2 0.44148709E+03</rscale>
<asrwt>0</asrwt>
<pdfrwt beam="1">  1       21 0.15322187E-01 0.44148709E+03</pdfrwt>
<pdfrwt beam="2">  1       21 0.68776083E-01 0.44148709E+03</pdfrwt>
<totfact> 0.67357877E+04</totfact>
</mgrwt>
</event>
<event>
 7    0  0.4737014E-002  0.4540658E+03  0.7546771E-02  0.1026516E+00
         21   -1    0    0  502  501  0.00000000000E+00  0.00000000000E+00  0.37746495547E+03  0.37746495547E+03  0.00000000000E+00 0. -1.
         21   -1    0    0  501  502 -0.00000000000E+00 -0.00000000000E+00 -0.13655287944E+03  0.13655287944E+03  0.00000000000E+00 0. -1.
      99926    2    1    2    0    0  0.00000000000E+00  0.00000000000E+00  0.24091207603E+03  0.51401783490E+03  0.45406575099E+03 0.  0.
      99925    2    3    3    0    0 -0.74847424407E+02  0.86856122539E+01  0.57613737033E+02  0.27966048815E+03  0.26308376829E+03 0.  0.
         25    1    4    4    0    0 -0.51837969560E+02  0.26198955682E+02  0.61965936040E+02  0.15119803470E+03  0.12509000000E+03 0.  0.
         25    1    3    3    0    0  0.74847424407E+02 -0.86856122539E+01  0.18329833899E+03  0.23435734676E+03  0.12509000000E+03 0.  0.
         25    1    4    4    0    0 -0.23009454846E+02 -0.17513343428E+02 -0.43521990073E+01  0.12846245345E+03  0.12509000000E+03 0.  0.
<mgrwt>
<rscale>  2 0.45406575E+03</rscale>
<asrwt>0</asrwt>
<pdfrwt beam="1">  1       21 0.55509552E-01 0.45406575E+03</pdfrwt>
<pdfrwt beam="2">  1       21 0.20081306E-01 0.45406575E+03</pdfrwt>
<totfact> 0.64775548E+04</totfact>
</mgrwt>
</event>
<event>
 7    0  0.4737014E-002  0.4499377E+03  0.7546771E-02  0.1027741E+00
         21   -1    0    0  502  501  0.00000000000E+00  0.00000000000E+00  0.42249315166E+03  0.42249315166E+03  0.00000000000E+00 0. -1.
         21   -1    0    0  501  502 -0.00000000000E+00 -0.00000000000E+00 -0.11979124692E+03  0.11979124692E+03  0.00000000000E+00 0. -1.
      99926    2    1    2    0    0  0.00000000000E+00  0.00000000000E+00  0.30270190474E+03  0.54228439858E+03  0.44993769103E+03 0.  0.
      99925    2    3    3    0    0 -0.76192778416E+02 -0.76898099883E+02  0.18854525319E+03  0.34129209414E+03  0.26308235170E+03 0.  0.
         25    1    3    3    0    0  0.76192778416E+02  0.76898099883E+02  0.11415665155E+03  0.20099230443E+03  0.12509000000E+03 0.  0.
         25    1    4    4    0    0  0.21407166452E+01 -0.25509524770E+02  0.95053325452E+02  0.15917902281E+03  0.12509000000E+03 0.  0.
         25    1    4    4    0    0 -0.78333495061E+02 -0.51388575113E+02  0.93491927738E+02  0.18211307134E+03  0.12509000000E+03 0.  0.
<mgrwt>
<rscale>  2 0.44993769E+03</rscale>
<asrwt>0</asrwt>
<pdfrwt beam="1">  1       21 0.62131345E-01 0.44993769E+03</pdfrwt>
<pdfrwt beam="2">  1       21 0.17616360E-01 0.44993769E+03</pdfrwt>
<totfact> 0.64942000E+04</totfact>
</mgrwt>
</event>
<event>
 7    0  0.4737014E-002  0.4556309E+03  0.7546771E-02  0.1026056E+00
         21   -1    0    0  502  501  0.00000000000E+00  0.00000000000E+00  0.14358233674E+03  0.14358233674E+03  0.00000000000E+00 0.  1.
         21   -1    0    0  501  502 -0.00000000000E+00 -0.00000000000E+00 -0.36146424588E+03  0.36146424588E+03  0.00000000000E+00 0.  1.
      99926    2    1    2    0    0 -0.35527136788E-14  0.00000000000E+00 -0.21788190914E+03  0.50504658263E+03  0.45563090796E+03 0.  0.
      99925    2    3    3    0    0  0.23661954985E+02 -0.75857337945E+02 -0.22717979682E+03  0.35656027804E+03  0.26307859655E+03 0.  0.
         25    1    3    3    0    0 -0.23661954985E+02  0.75857337945E+02  0.92978876752E+01  0.14848630458E+03  0.12509000000E+03 0.  0.
         25    1    4    4    0    0  0.37416647135E+02 -0.25357829339E+02 -0.15023620212E+03  0.20065255921E+03  0.12509000000E+03 0.  0.
         25    1    4    4    0    0 -0.13754692150E+02 -0.50499508606E+02 -0.76943594695E+02  0.15590771883E+03  0.12509000000E+03 0.  0.
<mgrwt>
<rscale>  2 0.45563091E+03</rscale>
<asrwt>0</asrwt>
<pdfrwt beam="1">  1       21 0.21115050E-01 0.45563091E+03</pdfrwt>
<pdfrwt beam="2">  1       21 0.53156507E-01 0.45563091E+03</pdfrwt>
<totfact> 0.64593486E+04</totfact>
</mgrwt>
</event>
<event>
 7    0  0.4737014E-002  0.4482496E+03  0.7546771E-02  0.1028245E+00
         21   -1    0    0  502  501  0.00000000000E+00  0.00000000000E+00  0.73774670299E+02  0.73774670299E+02  0.00000000000E+00 0. -1.
         21   -1    0    0  501  502 -0.00000000000E+00 -0.00000000000E+00 -0.68088321256E+03  0.68088321256E+03  0.00000000000E+00 0. -1.
      99926    2    1    2    0    0  0.00000000000E+00  0.00000000000E+00 -0.60710854226E+03  0.75465788286E+03  0.44824963812E+03 0.  0.
      99925    2    3    3    0    0  0.97288409654E+02 -0.18661802032E+02 -0.45139208122E+03  0.53170402699E+03  0.26294688403E+03 0.  0.
         25    1    3    3    0    0 -0.97288409654E+02  0.18661802032E+02 -0.15571646104E+03  0.22295385587E+03  0.12509000000E+03 0.  0.
         25    1    4    4    0    0  0.30372303107E+02 -0.42321180124E+02 -0.24791454596E+03  0.28252909458E+03  0.12509000000E+03 0.  0.
         25    1    4    4    0    0  0.66916106548E+02  0.23659378092E+02 -0.20347753526E+03  0.24917493241E+03  0.12509000000E+03 0.  0.
<mgrwt>
<rscale>  2 0.44824964E+03</rscale>
<asrwt>0</asrwt>
<pdfrwt beam="1">  1       21 0.10849216E-01 0.44824964E+03</pdfrwt>
<pdfrwt beam="2">  1       21 0.10012989E+00 0.44824964E+03</pdfrwt>
<totfact> 0.52777611E+04</totfact>
</mgrwt>
</event>
<event>
 7    0  0.4737014E-002  0.4384158E+03  0.7546771E-02  0.1031234E+00
         21   -1    0    0  502  501  0.00000000000E+00  0.00000000000E+00  0.34967037942E+03  0.34967037942E+03  0.00000000000E+00 0.  1.
         21   -1    0    0  501  502 -0.00000000000E+00 -0.00000000000E+00 -0.13742116418E+03  0.13742116418E+03  0.00000000000E+00 0.  1.
      99926    2    1    2    0    0 -0.14210854715E-13  0.00000000000E+00  0.21224921523E+03  0.48709154360E+03  0.43841583284E+03 0.  0.
      99925    2    3    3    0    0  0.95158850035E+02 -0.18249983120E+02  0.13515342986E+03  0.31108149603E+03  0.26290108205E+03 0.  0.
         25    1    4    4    0    0  0.60916042884E+02  0.19431537375E+02  0.97072877201E+02  0.17076006709E+03  0.12509000000E+03 0.  0.
         25    1    3    3    0    0 -0.95158850035E+02  0.18249983120E+02  0.77095785369E+02  0.17601004757E+03  0.12509000000E+03 0.  0.
         25    1    4    4    0    0  0.34242807151E+02 -0.37681520494E+02  0.38080552663E+02  0.14032142894E+03  0.12509000000E+03 0.  0.
<mgrwt>
<rscale>  2 0.43841583E+03</rscale>
<asrwt>0</asrwt>
<pdfrwt beam="1">  1       21 0.51422115E-01 0.43841583E+03</pdfrwt>
<pdfrwt beam="2">  1       21 0.20208995E-01 0.43841583E+03</pdfrwt>
<totfact> 0.75669279E+04</totfact>
</mgrwt>
</event>
<event>
 7    0  0.4737014E-002  0.4559258E+03  0.7546771E-02  0.1025970E+00
         21   -1    0    0  502  501  0.00000000000E+00  0.00000000000E+00  0.99599411693E+03  0.99599411693E+03  0.00000000000E+00 0.  1.
         21   -1    0    0  501  502 -0.00000000000E+00 -0.00000000000E+00 -0.52176086181E+02  0.52176086181E+02  0.00000000000E+00 0.  1.
      99926    2    1    2    0    0  0.00000000000E+00  0.00000000000E+00  0.94381803075E+03  0.10481702031E+04  0.45592576098E+03 0.  0.
      99925    2    3    3    0    0  0.65494729504E+02  0.81711758895E+02  0.48975451389E+03  0.56568957493E+03  0.26301870688E+03 0.  0.
         25    1    4    4    0    0  0.49263671046E+02  0.57115661863E+02  0.19089264533E+03  0.24036767307E+03  0.12509000000E+03 0.  0.
         25    1    3    3    0    0 -0.65494729504E+02 -0.81711758895E+02  0.45406351685E+03  0.48248062818E+03  0.12509000000E+03 0.  0.
         25    1    4    4    0    0  0.16231058458E+02  0.24596097032E+02  0.29886186856E+03  0.32532190186E+03  0.12509000000E+03 0.  0.
<mgrwt>
<rscale>  2 0.45592576E+03</rscale>
<asrwt>0</asrwt>
<pdfrwt beam="1">  1       21 0.14646971E+00 0.45592576E+03</pdfrwt>
<pdfrwt beam="2">  1       21 0.76729545E-02 0.45592576E+03</pdfrwt>
<totfact> 0.37075967E+04</totfact>
</mgrwt>
</event>
<event>
 7    0  0.4737014E-002  0.4584282E+03  0.7546771E-02  0.1025238E+00
         21   -1    0    0  502  501  0.00000000000E+00  0.00000000000E+00  0.45518255433E+03  0.45518255433E+03  0.00000000000E+00 0.  1.
         21   -1    0    0  501  502 -0.00000000000E+00 -0.00000000000E+00 -0.11542425228E+03  0.11542425228E+03  0.00000000000E+00 0.  1.
      99926    2    1    2    0    0 -0.33306690739E-14  0.00000000000E+00  0.33975830206E+03  0.57060680661E+03  0.45842821023E+03 0.  0.
      99925    2    3    3    0    0  0.14808208055E+01  0.82443231336E+02  0.11102328452E+03  0.29717254473E+03  0.26303283524E+03 0.  0.
         25    1    4    4    0    0  0.40538216967E+02  0.34615777280E+02  0.49448296855E+02  0.14468670026E+03  0.12509000000E+03 0.  0.
         25    1    4    4    0    0 -0.39057396161E+02  0.47827454056E+02  0.61574987665E+02  0.15248584447E+03  0.12509000000E+03 0.  0.
         25    1    3    3    0    0 -0.14808208055E+01 -0.82443231336E+02  0.22873501754E+03  0.27343426188E+03  0.12509000000E+03 0.  0.
<mgrwt>
<rscale>  2 0.45842821E+03</rscale>
<asrwt>0</asrwt>
<pdfrwt beam="1">  1       21 0.66938611E-01 0.45842821E+03</pdfrwt>
<pdfrwt beam="2">  1       21 0.16974155E-01 0.45842821E+03</pdfrwt>
<totfact> 0.58911602E+04</totfact>
</mgrwt>
</event>
<event>
 7    0  0.4737014E-002  0.4674996E+03  0.7546771E-02  0.1022628E+00
         21   -1    0    0  502  501  0.00000000000E+00  0.00000000000E+00  0.30109482176E+03  0.30109482176E+03  0.00000000000E+00 0. -1.
         21   -1    0    0  501  502 -0.00000000000E+00 -0.00000000000E+00 -0.18146764738E+03  0.18146764738E+03  0.00000000000E+00 0. -1.
      99926    2    1    2    0    0 -0.71054273576E-14  0.00000000000E+00  0.11962717439E+03  0.48256246914E+03  0.46749959975E+03 0.  0.
      99925    2    3    3    0    0  0.49264220128E+02  0.74575882485E+02  0.16398222863E+03  0.32255183021E+03  0.26298476426E+03 0.  0.
         25    1    4    4    0    0  0.63762161336E+01  0.38603778731E+02  0.12241592547E+03  0.17934345478E+03  0.12509000000E+03 0.  0.
         25    1    4    4    0    0  0.42888003994E+02  0.35972103754E+02  0.41566303156E+02  0.14320837543E+03  0.12509000000E+03 0.  0.
         25    1    3    3    0    0 -0.49264220128E+02 -0.74575882485E+02 -0.44355054241E+02  0.16001063893E+03  0.12509000000E+03 0.  0.
<mgrwt>
<rscale>  2 0.46749960E+03</rscale>
<asrwt>0</asrwt>
<pdfrwt beam="1">  1       21 0.44278650E-01 0.46749960E+03</pdfrwt>
<pdfrwt beam="2">  1       21 0.26686419E-01 0.46749960E+03</pdfrwt>
<totfact> 0.60306338E+04</totfact>
</mgrwt>
</event>
<event>
 7    0  0.4737014E-002  0.4554832E+03  0.7546771E-02  0.1026099E+00
         21   -1    0    0  502  501  0.00000000000E+00  0.00000000000E+00  0.31294945738E+03  0.31294945738E+03  0.00000000000E+00 0. -1.
         21   -1    0    0  501  502 -0.00000000000E+00 -0.00000000000E+00 -0.16573356990E+03  0.16573356990E+03  0.00000000000E+00 0. -1.
      99926    2    1    2    0    0  0.14210854715E-13  0.71054273576E-14  0.14721588749E+03  0.47868302728E+03  0.45548317540E+03 0.  0.
      99925    2    3    3    0    0  0.80100046303E+02  0.35476633005E+02  0.16874403673E+03  0.32445728942E+03  0.26291324390E+03 0.  0.
         25    1    4    4    0    0  0.46154694362E+02  0.64313112776E+00  0.41835127645E+02  0.13974389230E+03  0.12509000000E+03 0.  0.
         25    1    3    3    0    0 -0.80100046303E+02 -0.35476633005E+02 -0.21528149247E+02  0.15422573786E+03  0.12509000000E+03 0.  0.
         25    1    4    4    0    0  0.33945351942E+02  0.34833501878E+02  0.12690890909E+03  0.18471339712E+03  0.12509000000E+03 0.  0.
<mgrwt>
<rscale>  2 0.45548318E+03</rscale>
<asrwt>0</asrwt>
<pdfrwt beam="1">  1       21 0.46021979E-01 0.45548318E+03</pdfrwt>
<pdfrwt beam="2">  1       21 0.24372584E-01 0.45548318E+03</pdfrwt>
<totfact> 0.66540539E+04</totfact>
</mgrwt>
</event>
<event>
 7    0  0.4737014E-002  0.4868058E+03  0.7546771E-02  0.1017281E+00
         21   -1    0    0  502  501  0.00000000000E+00  0.00000000000E+00  0.28620803966E+02  0.28620803966E+02  0.00000000000E+00 0.  1.
         21   -1    0    0  501  502 -0.00000000000E+00 -0.00000000000E+00 -0.20699964875E+04  0.20699964875E+04  0.00000000000E+00 0.  1.
      99926    2    1    2    0    0  0.71054273576E-14  0.00000000000E+00 -0.20413756836E+04  0.20986172915E+04  0.48680576694E+03 0.  0.
      99925    2    3    3    0    0  0.56226757076E+02 -0.12748652269E+03 -0.13415736155E+04  0.13741970376E+04  0.26302750938E+03 0.  0.
         25    1    3    3    0    0 -0.56226757076E+02  0.12748652269E+03 -0.69980206812E+03  0.72442025394E+03  0.12509000000E+03 0.  0.
         25    1    4    4    0    0  0.67198815384E+02 -0.75042262961E+02 -0.67078105232E+03  0.68974034989E+03  0.12509000000E+03 0.  0.
         25    1    4    4    0    0 -0.10972058308E+02 -0.52444259725E+02 -0.67079256314E+03  0.68445668767E+03  0.12509000000E+03 0.  0.
<mgrwt>
<rscale>  2 0.48680577E+03</rscale>
<asrwt>0</asrwt>
<pdfrwt beam="1">  1       21 0.42089419E-02 0.48680577E+03</pdfrwt>
<pdfrwt beam="2">  1       21 0.30441124E+00 0.48680577E+03</pdfrwt>
<totfact> 0.95743165E+03</totfact>
</mgrwt>
</event>
<event>
 7    0  0.4737014E-002  0.4516384E+03  0.7546771E-02  0.1027235E+00
         21   -1    0    0  502  501  0.00000000000E+00  0.00000000000E+00  0.79746074059E+02  0.79746074059E+02  0.00000000000E+00 0.  1.
         21   -1    0    0  501  502 -0.00000000000E+00 -0.00000000000E+00 -0.63945871178E+03  0.63945871178E+03  0.00000000000E+00 0.  1.
      99926    2    1    2    0    0  0.00000000000E+00  0.00000000000E+00 -0.55971263772E+03  0.71920478584E+03  0.45163844738E+03 0.  0.
      99925    2    3    3    0    0 -0.36831742822E+02 -0.10113763355E+03 -0.31641735231E+03  0.42522263978E+03  0.26288581996E+03 0.  0.
         25    1    4    4    0    0 -0.59701829098E+01 -0.10462457051E+02 -0.12418342487E+03  0.17667523087E+03  0.12509000000E+03 0.  0.
         25    1    4    4    0    0 -0.30861559913E+02 -0.90675176502E+02 -0.19223392744E+03  0.24854740891E+03  0.12509000000E+03 0.  0.
         25    1    3    3    0    0  0.36831742822E+02  0.10113763355E+03 -0.24329528541E+03  0.29398214606E+03  0.12509000000E+03 0.  0.
<mgrwt>
<rscale>  2 0.45163845E+03</rscale>
<asrwt>0</asrwt>
<pdfrwt beam="1">  1       21 0.11727364E-01 0.45163845E+03</pdfrwt>
<pdfrwt beam="2">  1       21 0.94038046E-01 0.45163845E+03</pdfrwt>
<totfact> 0.53267198E+04</totfact>
</mgrwt>
</event>
<event>
 7    0  0.4737014E-002  0.4441518E+03  0.7546771E-02  0.1029481E+00
         21   -1    0    0  502  501  0.00000000000E+00  0.00000000000E+00  0.10452678890E+04  0.10452678890E+04  0.00000000000E+00 0.  1.
         21   -1    0    0  501  502 -0.00000000000E+00 -0.00000000000E+00 -0.47181877559E+02  0.47181877559E+02  0.00000000000E+00 0.  1.
      99926    2    1    2    0    0  0.00000000000E+00  0.00000000000E+00  0.99808601142E+03  0.10924497665E+04  0.44415178286E+03 0.  0.
      99925    2    3    3    0    0  0.34493549551E+02 -0.84474140456E+02  0.51865726121E+03  0.58863916721E+03  0.26299245085E+03 0.  0.
         25    1    3    3    0    0 -0.34493549551E+02  0.84474140456E+02  0.47942875021E+03  0.50381059932E+03  0.12509000000E+03 0.  0.
         25    1    4    4    0    0 -0.22419257217E+02 -0.43611292657E+02  0.23103270418E+03  0.26726052166E+03  0.12509000000E+03 0.  0.
         25    1    4    4    0    0  0.56912806768E+02 -0.40862847798E+02  0.28762455704E+03  0.32137864555E+03  0.12509000000E+03 0.  0.
<mgrwt>
<rscale>  2 0.44415178E+03</rscale>
<asrwt>0</asrwt>
<pdfrwt beam="1">  1       21 0.15371585E+00 0.44415178E+03</pdfrwt>
<pdfrwt beam="2">  1       21 0.69385121E-02 0.44415178E+03</pdfrwt>
<totfact> 0.38950752E+04</totfact>
</mgrwt>
</event>
<event>
 7    0  0.4737014E-002  0.4702861E+03  0.7546771E-02  0.1021839E+00
         21   -1    0    0  502  501  0.00000000000E+00  0.00000000000E+00  0.15977559245E+03  0.15977559245E+03  0.00000000000E+00 0. -1.
         21   -1    0    0  501  502 -0.00000000000E+00 -0.00000000000E+00 -0.34606195420E+03  0.34606195420E+03  0.00000000000E+00 0. -1.
      99926    2    1    2    0    0  0.00000000000E+00  0.17763568394E-14 -0.18628636175E+03  0.50583754664E+03  0.47028609912E+03 0.  0.
      99925    2    3    3    0    0 -0.65037069360E+02  0.85132061658E+01  0.15337435112E+01  0.27083500387E+03  0.26276786692E+03 0.  0.
         25    1    4    4    0    0 -0.28822318895E+02 -0.11180729805E+02  0.37693973624E+02  0.13425378405E+03  0.12509000000E+03 0.  0.
         25    1    4    4    0    0 -0.36214750465E+02  0.19693935971E+02 -0.36160230113E+02  0.13658121982E+03  0.12509000000E+03 0.  0.
         25    1    3    3    0    0  0.65037069360E+02 -0.85132061658E+01 -0.18782010526E+03  0.23500254277E+03  0.12509000000E+03 0.  0.
<mgrwt>
<rscale>  2 0.47028610E+03</rscale>
<asrwt>0</asrwt>
<pdfrwt beam="1">  1       21 0.23496411E-01 0.47028610E+03</pdfrwt>
<pdfrwt beam="2">  1       21 0.50891463E-01 0.47028610E+03</pdfrwt>
<totfact> 0.57554942E+04</totfact>
</mgrwt>
</event>
<event>
 7    0  0.4737014E-002  0.4593875E+03  0.7546771E-02  0.1024959E+00
         21   -1    0    0  502  501  0.00000000000E+00  0.00000000000E+00  0.51275993848E+02  0.51275993848E+02  0.00000000000E+00 0. -1.
         21   -1    0    0  501  502 -0.00000000000E+00 -0.00000000000E+00 -0.10289264910E+04  0.10289264910E+04  0.00000000000E+00 0. -1.
      99926    2    1    2    0    0  0.00000000000E+00  0.00000000000E+00 -0.97765049718E+03  0.10802024849E+04  0.45938754195E+03 0.  0.
      99925    2    3    3    0    0 -0.73383949178E+02 -0.91477982571E+02 -0.62330790162E+03  0.68655339187E+03  0.26284861495E+03 0.  0.
         25    1    4    4    0    0 -0.70738821761E+02 -0.67521097224E+02 -0.30890468677E+03  0.34732217476E+03  0.12509000000E+03 0.  0.
         25    1    3    3    0    0  0.73383949178E+02  0.91477982571E+02 -0.35434259556E+03  0.39364909300E+03  0.12509000000E+03 0.  0.
         25    1    4    4    0    0 -0.26451274172E+01 -0.23956885348E+02 -0.31440321485E+03  0.33923121711E+03  0.12509000000E+03 0.  0.
<mgrwt>
<rscale>  2 0.45938754E+03</rscale>
<asrwt>0</asrwt>
<pdfrwt beam="1">  1       21 0.75405868E-02 0.45938754E+03</pdfrwt>
<pdfrwt beam="2">  1       21 0.15131273E+00 0.45938754E+03</pdfrwt>
<totfact> 0.34975483E+04</totfact>
</mgrwt>
</event>
<event>
 7    0  0.4737014E-002  0.4534394E+03  0.7546771E-02  0.1026701E+00
         21   -1    0    0  502  501  0.00000000000E+00  0.00000000000E+00  0.21319130242E+03  0.21319130242E+03  0.00000000000E+00 0. -1.
         21   -1    0    0  501  502 -0.00000000000E+00 -0.00000000000E+00 -0.24110656719E+03  0.24110656719E+03  0.00000000000E+00 0. -1.
      99926    2    1    2    0    0  0.00000000000E+00  0.00000000000E+00 -0.27915264772E+02  0.45429786961E+03  0.45343940315E+03 0.  0.
      99925    2    3    3    0    0  0.58110856414E+02  0.64453988423E+01  0.77693549318E+02  0.28046132422E+03  0.26306625017E+03 0.  0.
         25    1    4    4    0    0  0.10953802258E+02  0.18812733842E+01 -0.37733316860E+00  0.12558334067E+03  0.12509000000E+03 0.  0.
         25    1    4    4    0    0  0.47157054156E+02  0.45641254581E+01  0.78070882486E+02  0.15487798356E+03  0.12509000000E+03 0.  0.
         25    1    3    3    0    0 -0.58110856414E+02 -0.64453988423E+01 -0.10560881409E+03  0.17383654539E+03  0.12509000000E+03 0.  0.
<mgrwt>
<rscale>  2 0.45343940E+03</rscale>
<asrwt>0</asrwt>
<pdfrwt beam="1">  1       21 0.31351662E-01 0.45343940E+03</pdfrwt>
<pdfrwt beam="2">  1       21 0.35456848E-01 0.45343940E+03</pdfrwt>
<totfact> 0.69458147E+04</totfact>
</mgrwt>
</event>
<event>
 7    0  0.4737014E-002  0.4585291E+03  0.7546771E-02  0.1025209E+00
         21   -1    0    0  502  501  0.00000000000E+00  0.00000000000E+00  0.14721541103E+03  0.14721541103E+03  0.00000000000E+00 0.  1.
         21   -1    0    0  501  502 -0.00000000000E+00 -0.00000000000E+00 -0.35704300035E+03  0.35704300035E+03  0.00000000000E+00 0.  1.
      99926    2    1    2    0    0 -0.35527136788E-14  0.00000000000E+00 -0.20982758933E+03  0.50425841138E+03  0.45852909200E+03 0.  0.
      99925    2    3    3    0    0  0.25288994593E+02 -0.10755819818E+03 -0.17213720278E+03  0.33315501404E+03  0.26296910001E+03 0.  0.
         25    1    4    4    0    0  0.22886015117E+02 -0.59957895383E+02 -0.13338050659E+03  0.19379521807E+03  0.12509000000E+03 0.  0.
         25    1    3    3    0    0 -0.25288994593E+02  0.10755819818E+03 -0.37690386551E+02  0.17110339734E+03  0.12509000000E+03 0.  0.
         25    1    4    4    0    0  0.24029794752E+01 -0.47600302792E+02 -0.38756696185E+02  0.13935979598E+03  0.12509000000E+03 0.  0.
<mgrwt>
<rscale>  2 0.45852909E+03</rscale>
<asrwt>0</asrwt>
<pdfrwt beam="1">  1       21 0.21649325E-01 0.45852909E+03</pdfrwt>
<pdfrwt beam="2">  1       21 0.52506323E-01 0.45852909E+03</pdfrwt>
<totfact> 0.63183912E+04</totfact>
</mgrwt>
</event>
<event>
 7    0  0.4737014E-002  0.4347479E+03  0.7546771E-02  0.1032371E+00
         21   -1    0    0  502  501  0.00000000000E+00  0.00000000000E+00  0.84623334663E+02  0.84623334663E+02  0.00000000000E+00 0.  1.
         21   -1    0    0  501  502 -0.00000000000E+00 -0.00000000000E+00 -0.55837353103E+03  0.55837353103E+03  0.00000000000E+00 0.  1.
      99926    2    1    2    0    0  0.00000000000E+00  0.00000000000E+00 -0.47375019637E+03  0.64299686570E+03  0.43474788181E+03 0.  0.
      99925    2    3    3    0    0  0.89452810708E+02 -0.13092952523E+02 -0.27298597905E+03  0.38976375213E+03  0.26309923407E+03 0.  0.
         25    1    3    3    0    0 -0.89452810708E+02  0.13092952523E+02 -0.20076421732E+03  0.25323311357E+03  0.12509000000E+03 0.  0.
         25    1    4    4    0    0  0.74023778984E+02 -0.29534153770E+02 -0.11943996317E+03  0.19043423798E+03  0.12509000000E+03 0.  0.
         25    1    4    4    0    0  0.15429031724E+02  0.16441201247E+02 -0.15354601588E+03  0.19932951415E+03  0.12509000000E+03 0.  0.
<mgrwt>
<rscale>  2 0.43474788E+03</rscale>
<asrwt>0</asrwt>
<pdfrwt beam="1">  1       21 0.12444608E-01 0.43474788E+03</pdfrwt>
<pdfrwt beam="2">  1       21 0.82113753E-01 0.43474788E+03</pdfrwt>
<totfact> 0.66040317E+04</totfact>
</mgrwt>
</event>
<event>
 7    0  0.4737014E-002  0.4570395E+03  0.7546771E-02  0.1025643E+00
         21   -1    0    0  502  501  0.00000000000E+00  0.00000000000E+00  0.52287834927E+03  0.52287834927E+03  0.00000000000E+00 0. -1.
         21   -1    0    0  501  502 -0.00000000000E+00 -0.00000000000E+00 -0.99872710214E+02  0.99872710214E+02  0.00000000000E+00 0. -1.
      99926    2    1    2    0    0  0.00000000000E+00  0.00000000000E+00  0.42300563906E+03  0.62275105948E+03  0.45703950750E+03 0.  0.
      99925    2    3    3    0    0 -0.60315328228E+02  0.93712861020E+02  0.30481144193E+03  0.41772078007E+03  0.26298402201E+03 0.  0.
         25    1    4    4    0    0 -0.59156625486E+02  0.28805223474E+02  0.12071614402E+03  0.18587399701E+03  0.12509000000E+03 0.  0.
         25    1    3    3    0    0  0.60315328228E+02 -0.93712861020E+02  0.11819419713E+03  0.20503027941E+03  0.12509000000E+03 0.  0.
         25    1    4    4    0    0 -0.11587027423E+01  0.64907637547E+02  0.18409529791E+03  0.23184678306E+03  0.12509000000E+03 0.  0.
<mgrwt>
<rscale>  2 0.45703951E+03</rscale>
<asrwt>0</asrwt>
<pdfrwt beam="1">  1       21 0.76893874E-01 0.45703951E+03</pdfrwt>
<pdfrwt beam="2">  1       21 0.14687164E-01 0.45703951E+03</pdfrwt>
<totfact> 0.56385758E+04</totfact>
</mgrwt>
</event>
<event>
 7    0  0.4737014E-002  0.4562168E+03  0.7546771E-02  0.1025884E+00
         21   -1    0    0  502  501  0.00000000000E+00  0.00000000000E+00  0.39799796825E+02  0.39799796825E+02  0.00000000000E+00 0. -1.
         21   -1    0    0  501  502 -0.00000000000E+00 -0.00000000000E+00 -0.13073797966E+04  0.13073797966E+04  0.00000000000E+00 0. -1.
      99926    2    1    2    0    0  0.00000000000E+00  0.00000000000E+00 -0.12675799998E+04  0.13471795935E+04  0.45621683563E+03 0.  0.
      99925    2    3    3    0    0 -0.29219793825E+02  0.10551675307E+03 -0.70125495847E+03  0.75696002239E+03  0.26313946337E+03 0.  0.
         25    1    3    3    0    0  0.29219793825E+02 -0.10551675307E+03 -0.56632504133E+03  0.59021957106E+03  0.12509000000E+03 0.  0.
         25    1    4    4    0    0 -0.17732493229E+01  0.54781886778E+02 -0.45190834630E+03  0.47209412313E+03  0.12509000000E+03 0.  0.
         25    1    4    4    0    0 -0.27446544502E+02  0.50734866289E+02 -0.24934661217E+03  0.28486589926E+03  0.12509000000E+03 0.  0.
<mgrwt>
<rscale>  2 0.45621684E+03</rscale>
<asrwt>0</asrwt>
<pdfrwt beam="1">  1       21 0.58529117E-02 0.45621684E+03</pdfrwt>
<pdfrwt beam="2">  1       21 0.19226172E+00 0.45621684E+03</pdfrwt>
<totfact> 0.27513000E+04</totfact>
</mgrwt>
</event>
<event>
 7    0  0.4737014E-002  0.4544423E+03  0.7546771E-02  0.1026406E+00
         21   -1    0    0  502  501  0.00000000000E+00  0.00000000000E+00  0.31594748420E+03  0.31594748420E+03  0.00000000000E+00 0. -1.
         21   -1    0    0  501  502 -0.00000000000E+00 -0.00000000000E+00 -0.16341152653E+03  0.16341152653E+03  0.00000000000E+00 0. -1.
      99926    2    1    2    0    0  0.00000000000E+00  0.00000000000E+00  0.15253595767E+03  0.47935901073E+03  0.45444234265E+03 0.  0.
      99925    2    3    3    0    0  0.89122366788E+02  0.69140444950E+02  0.92782286166E+02  0.30063798022E+03  0.26277641662E+03 0.  0.
         25    1    4    4    0    0  0.29094919863E+02  0.33212242474E+02  0.53725325092E+01  0.13276271923E+03  0.12509000000E+03 0.  0.
         25    1    4    4    0    0  0.60027446926E+02  0.35928202476E+02  0.87409753657E+02  0.16787526099E+03  0.12509000000E+03 0.  0.
         25    1    3    3    0    0 -0.89122366788E+02 -0.69140444950E+02  0.59753671509E+02  0.17872103052E+03  0.12509000000E+03 0.  0.
<mgrwt>
<rscale>  2 0.45444234E+03</rscale>
<asrwt>0</asrwt>
<pdfrwt beam="1">  1       21 0.46462865E-01 0.45444234E+03</pdfrwt>
<pdfrwt beam="2">  1       21 0.24031107E-01 0.45444234E+03</pdfrwt>
<totfact> 0.67043048E+04</totfact>
</mgrwt>
</event>
<event>
 7    0  0.4737014E-002  0.4450728E+03  0.7546771E-02  0.1029202E+00
         21   -1    0    0  502  501  0.00000000000E+00  0.00000000000E+00  0.11093420007E+04  0.11093420007E+04  0.00000000000E+00 0.  1.
         21   -1    0    0  501  502 -0.00000000000E+00 -0.00000000000E+00 -0.44641279508E+02  0.44641279508E+02  0.00000000000E+00 0.  1.
      99926    2    1    2    0    0 -0.71054273576E-14  0.00000000000E+00  0.10647007212E+04  0.11539832802E+04  0.44507278651E+03 0.  0.
      99925    2    3    3    0    0 -0.61943908360E+02 -0.62250397720E+02  0.53364090977E+03  0.60136750844E+03  0.26297927642E+03 0.  0.
         25    1    4    4    0    0 -0.49962593540E+02 -0.66737289117E+02  0.26268997623E+03  0.30266096250E+03  0.12509000000E+03 0.  0.
         25    1    4    4    0    0 -0.11981314820E+02  0.44868913967E+01  0.27095093354E+03  0.29870654594E+03  0.12509000000E+03 0.  0.
         25    1    3    3    0    0  0.61943908360E+02  0.62250397720E+02  0.53105981142E+03  0.55261577177E+03  0.12509000000E+03 0.  0.
<mgrwt>
<rscale>  2 0.44507279E+03</rscale>
<asrwt>0</asrwt>
<pdfrwt beam="1">  1       21 0.16313851E+00 0.44507279E+03</pdfrwt>
<pdfrwt beam="2">  1       21 0.65648948E-02 0.44507279E+03</pdfrwt>
<totfact> 0.36384097E+04</totfact>
</mgrwt>
</event>
<event>
 7    0  0.4737014E-002  0.4462471E+03  0.7546771E-02  0.1028847E+00
         21   -1    0    0  502  501  0.00000000000E+00  0.00000000000E+00  0.15094200550E+03  0.15094200550E+03  0.00000000000E+00 0. -1.
         21   -1    0    0  501  502 -0.00000000000E+00 -0.00000000000E+00 -0.32982288117E+03  0.32982288117E+03  0.00000000000E+00 0. -1.
      99926    2    1    2    0    0  0.00000000000E+00  0.71054273576E-14 -0.17888087567E+03  0.48076488667E+03  0.44624713844E+03 0.  0.
      99925    2    3    3    0    0 -0.39926567645E+02 -0.41689523553E+02 -0.20771825599E+03  0.34001244519E+03  0.26292478361E+03 0.  0.
         25    1    3    3    0    0  0.39926567645E+02  0.41689523553E+02  0.28837380313E+02  0.14075244148E+03  0.12509000000E+03 0.  0.
         25    1    4    4    0    0 -0.10101047058E+02 -0.50878322504E+02 -0.13841699640E+03  0.19364247428E+03  0.12509000000E+03 0.  0.
         25    1    4    4    0    0 -0.29825520587E+02  0.91887989518E+01 -0.69301259587E+02  0.14636997091E+03  0.12509000000E+03 0.  0.
<mgrwt>
<rscale>  2 0.44624714E+03</rscale>
<asrwt>0</asrwt>
<pdfrwt beam="1">  1       21 0.22197354E-01 0.44624714E+03</pdfrwt>
<pdfrwt beam="2">  1       21 0.48503365E-01 0.44624714E+03</pdfrwt>
<totfact> 0.71483791E+04</totfact>
</mgrwt>
</event>
<event>
 7    0  0.4737014E-002  0.4484482E+03  0.7546771E-02  0.1028186E+00
         21   -1    0    0  502  501  0.00000000000E+00  0.00000000000E+00  0.23121259380E+03  0.23121259380E+03  0.00000000000E+00 0. -1.
         21   -1    0    0  501  502 -0.00000000000E+00 -0.00000000000E+00 -0.21744683425E+03  0.21744683425E+03  0.00000000000E+00 0. -1.
      99926    2    1    2    0    0  0.00000000000E+00  0.14210854715E-13  0.13765759542E+02  0.44865942805E+03  0.44844819795E+03 0.  0.
      99925    2    3    3    0    0  0.43298003969E+02 -0.91438581860E+02  0.43282568500E+02  0.28509145591E+03  0.26299814846E+03 0.  0.
         25    1    4    4    0    0 -0.12120107453E+02 -0.22774895248E+02  0.31556564484E+02  0.13156336010E+03  0.12509000000E+03 0.  0.
         25    1    3    3    0    0 -0.43298003969E+02  0.91438581860E+02 -0.29516808958E+02  0.16356797214E+03  0.12509000000E+03 0.  0.
         25    1    4    4    0    0  0.55418111422E+02 -0.68663686613E+02  0.11726004015E+02  0.15352809581E+03  0.12509000000E+03 0.  0.
<mgrwt>
<rscale>  2 0.44844820E+03</rscale>
<asrwt>0</asrwt>
<pdfrwt beam="1">  1       21 0.34001852E-01 0.44844820E+03</pdfrwt>
<pdfrwt beam="2">  1       21 0.31977476E-01 0.44844820E+03</pdfrwt>
<totfact> 0.72741772E+04</totfact>
</mgrwt>
</event>
<event>
 6    0  0.4737014E-002  0.4618978E+03  0.7546771E-02  0.1024232E+00
         21   -1    0    0  502  501  0.00000000000E+00  0.00000000000E+00  0.38047079326E+03  0.38047079326E+03  0.00000000000E+00 0. -1.
         21   -1    0    0  501  502 -0.00000000000E+00 -0.00000000000E+00 -0.14018786257E+03  0.14018786257E+03  0.00000000000E+00 0. -1.
      99926    2    1    2    0    0  0.00000000000E+00  0.00000000000E+00  0.24028293070E+03  0.52065865583E+03  0.46189776910E+03 0.  0.
         25    1    3    3    0    0  0.45016766063E+02  0.20510291256E+02  0.11146905606E+03  0.17469985642E+03  0.12509000000E+03 0.  0.
         25    1    3    3    0    0 -0.67217014392E+02 -0.97443210946E+02  0.61250988971E+02  0.18279085900E+03  0.12509000000E+03 0.  0.
         25    1    3    3    0    0  0.22200248329E+02  0.76932919691E+02  0.67562885665E+02  0.16316794041E+03  0.12509000000E+03 0.  0.
<mgrwt>
<rscale>  2 0.46189777E+03</rscale>
<asrwt>0</asrwt>
<pdfrwt beam="1">  1       21 0.55951587E-01 0.46189777E+03</pdfrwt>
<pdfrwt beam="2">  1       21 0.20615862E-01 0.46189777E+03</pdfrwt>
<totfact> 0.60464700E+04</totfact>
</mgrwt>
</event>
<event>
 7    0  0.4737014E-002  0.4539185E+03  0.7546771E-02  0.1026560E+00
         21   -1    0    0  502  501  0.00000000000E+00  0.00000000000E+00  0.28949091130E+02  0.28949091130E+02  0.00000000000E+00 0.  1.
         21   -1    0    0  501  502 -0.00000000000E+00 -0.00000000000E+00 -0.17793479649E+04  0.17793479649E+04  0.00000000000E+00 0.  1.
      99926    2    1    2    0    0  0.00000000000E+00 -0.71054273576E-14 -0.17503988738E+04  0.18082970560E+04  0.45391852303E+03 0.  0.
      99925    2    3    3    0    0  0.40803605978E+02 -0.56778175889E+02 -0.75334390881E+03  0.80099630314E+03  0.26301965171E+03 0.  0.
         25    1    3    3    0    0 -0.40803605978E+02  0.56778175889E+02 -0.99705496495E+03  0.10073007529E+04  0.12509000000E+03 0.  0.
         25    1    4    4    0    0  0.54941049923E+01 -0.16161703170E+02 -0.46947943535E+03  0.48615823983E+03  0.12509000000E+03 0.  0.
         25    1    4    4    0    0  0.35309500986E+02 -0.40616472720E+02 -0.28386447346E+03  0.31483806331E+03  0.12509000000E+03 0.  0.
<mgrwt>
<rscale>  2 0.45391852E+03</rscale>
<asrwt>0</asrwt>
<pdfrwt beam="1">  1       21 0.42572181E-02 0.45391852E+03</pdfrwt>
<pdfrwt beam="2">  1       21 0.26166889E+00 0.45391852E+03</pdfrwt>
<totfact> 0.17244907E+04</totfact>
</mgrwt>
</event>
<event>
 7    0  0.4737014E-002  0.4386477E+03  0.7546771E-02  0.1031163E+00
         21   -1    0    0  502  501  0.00000000000E+00  0.00000000000E+00  0.16676278075E+04  0.16676278075E+04  0.00000000000E+00 0.  1.
         21   -1    0    0  501  502 -0.00000000000E+00 -0.00000000000E+00 -0.28845138796E+02  0.28845138796E+02  0.00000000000E+00 0.  1.
      99926    2    1    2    0    0  0.00000000000E+00  0.00000000000E+00  0.16387826687E+04  0.16964729463E+04  0.43864772001E+03 0.  0.
      99925    2    3    3    0    0  0.34161525389E+02 -0.90938786143E+02  0.10486784194E+04  0.10854840709E+04  0.26289231321E+03 0.  0.
         25    1    4    4    0    0 -0.13682734123E+02 -0.37480202318E+02  0.60015355832E+03  0.61434825990E+03  0.12509000000E+03 0.  0.
         25    1    4    4    0    0  0.47844259512E+02 -0.53458583825E+02  0.44852486106E+03  0.47113581104E+03  0.12509000000E+03 0.  0.
         25    1    3    3    0    0 -0.34161525389E+02  0.90938786143E+02  0.59010424932E+03  0.61098887536E+03  0.12509000000E+03 0.  0.
<mgrwt>
<rscale>  2 0.43864772E+03</rscale>
<asrwt>0</asrwt>
<pdfrwt beam="1">  1       21 0.24523932E+00 0.43864772E+03</pdfrwt>
<pdfrwt beam="2">  1       21 0.42419333E-02 0.43864772E+03</pdfrwt>
<totfact> 0.21998365E+04</totfact>
</mgrwt>
</event>
<event>
 7    0  0.4737014E-002  0.4564686E+03  0.7546771E-02  0.1025810E+00
         21   -1    0    0  502  501  0.00000000000E+00  0.00000000000E+00  0.45103080060E+02  0.45103080060E+02  0.00000000000E+00 0. -1.
         21   -1    0    0  501  502 -0.00000000000E+00 -0.00000000000E+00 -0.11549301127E+04  0.11549301127E+04  0.00000000000E+00 0. -1.
      99926    2    1    2    0    0  0.00000000000E+00  0.00000000000E+00 -0.11098270326E+04  0.12000331927E+04  0.45646864223E+03 0.  0.
      99925    2    3    3    0    0 -0.32233535923E+02 -0.78504612050E+02 -0.49522301733E+03  0.56711330945E+03  0.26300131922E+03 0.  0.
         25    1    4    4    0    0 -0.38638844374E+02 -0.59477886930E+02 -0.20461935388E+03  0.25009431703E+03  0.12509000000E+03 0.  0.
         25    1    3    3    0    0  0.32233535923E+02  0.78504612050E+02 -0.61460401528E+03  0.63291988327E+03  0.12509000000E+03 0.  0.
         25    1    4    4    0    0  0.64053084514E+01 -0.19026725120E+02 -0.29060366345E+03  0.31701899242E+03  0.12509000000E+03 0.  0.
<mgrwt>
<rscale>  2 0.45646864E+03</rscale>
<asrwt>0</asrwt>
<pdfrwt beam="1">  1       21 0.66328052E-02 0.45646864E+03</pdfrwt>
<pdfrwt beam="2">  1       21 0.16984268E+00 0.45646864E+03</pdfrwt>
<totfact> 0.31789635E+04</totfact>
</mgrwt>
</event>
<event>
 7    0  0.4737014E-002  0.4554722E+03  0.7546771E-02  0.1026103E+00
         21   -1    0    0  502  501  0.00000000000E+00  0.00000000000E+00  0.59613281352E+03  0.59613281352E+03  0.00000000000E+00 0. -1.
         21   -1    0    0  501  502 -0.00000000000E+00 -0.00000000000E+00 -0.87000300148E+02  0.87000300148E+02  0.00000000000E+00 0. -1.
      99926    2    1    2    0    0 -0.14210854715E-13  0.17763568394E-14  0.50913251337E+03  0.68313311367E+03  0.45547221081E+03 0.  0.
      99925    2    3    3    0    0  0.11203909560E+03 -0.98883739210E+01  0.34309074731E+03  0.44676916748E+03  0.26313663606E+03 0.  0.
         25    1    4    4    0    0  0.19174647871E+02  0.15996951461E+02  0.13807592354E+03  0.18797882418E+03  0.12509000000E+03 0.  0.
         25    1    3    3    0    0 -0.11203909560E+03  0.98883739210E+01  0.16604176606E+03  0.23636394619E+03  0.12509000000E+03 0.  0.
         25    1    4    4    0    0  0.92864447727E+02 -0.25885325382E+02  0.20501482377E+03  0.25879034330E+03  0.12509000000E+03 0.  0.
<mgrwt>
<rscale>  2 0.45547221E+03</rscale>
<asrwt>0</asrwt>
<pdfrwt beam="1">  1       21 0.87666588E-01 0.45547221E+03</pdfrwt>
<pdfrwt beam="2">  1       21 0.12794162E-01 0.45547221E+03</pdfrwt>
<totfact> 0.53628949E+04</totfact>
</mgrwt>
</event>
<event>
 7    0  0.4737014E-002  0.4390394E+03  0.7546771E-02  0.1031042E+00
         21   -1    0    0  502  501  0.00000000000E+00  0.00000000000E+00  0.10141849992E+04  0.10141849992E+04  0.00000000000E+00 0.  1.
         21   -1    0    0  501  502 -0.00000000000E+00 -0.00000000000E+00 -0.47514892347E+02  0.47514892347E+02  0.00000000000E+00 0.  1.
      99926    2    1    2    0    0  0.00000000000E+00  0.00000000000E+00  0.96667010688E+03  0.10616998916E+04  0.43903936524E+03 0.  0.
      99925    2    3    3    0    0 -0.61235381528E+02 -0.75118546681E+02  0.64322243064E+03  0.70161868494E+03  0.26294698281E+03 0.  0.
         25    1    4    4    0    0 -0.35801452352E+02 -0.38506006452E+01  0.36149388274E+03  0.38421596332E+03  0.12509000000E+03 0.  0.
         25    1    3    3    0    0  0.61235381528E+02  0.75118546681E+02  0.32344767624E+03  0.36008120664E+03  0.12509000000E+03 0.  0.
         25    1    4    4    0    0 -0.25433929175E+02 -0.71267946036E+02  0.28172854790E+03  0.31740272161E+03  0.12509000000E+03 0.  0.
<mgrwt>
<rscale>  2 0.43903937E+03</rscale>
<asrwt>0</asrwt>
<pdfrwt beam="1">  1       21 0.14914484E+00 0.43903937E+03</pdfrwt>
<pdfrwt beam="2">  1       21 0.69874848E-02 0.43903937E+03</pdfrwt>
<totfact> 0.41822575E+04</totfact>
</mgrwt>
</event>
<event>
 7    0  0.4737014E-002  0.4467883E+03  0.7546771E-02  0.1028684E+00
         21   -1    0    0  502  501  0.00000000000E+00  0.00000000000E+00  0.53332308516E+03  0.53332308516E+03  0.00000000000E+00 0.  1.
         21   -1    0    0  501  502 -0.00000000000E+00 -0.00000000000E+00 -0.93573583440E+02  0.93573583440E+02  0.00000000000E+00 0.  1.
      99926    2    1    2    0    0  0.00000000000E+00  0.00000000000E+00  0.43974950171E+03  0.62689666860E+03  0.44678832666E+03 0.  0.
      99925    2    3    3    0    0 -0.83119567310E+02  0.39061191486E+02  0.20671518135E+03  0.34691963075E+03  0.26303502590E+03 0.  0.
         25    1    4    4    0    0 -0.28129182713E+02  0.43914629708E+02  0.13974880213E+03  0.19467147048E+03  0.12509000000E+03 0.  0.
         25    1    4    4    0    0 -0.54990384597E+02 -0.48534382225E+01  0.66966379217E+02  0.15224816027E+03  0.12509000000E+03 0.  0.
         25    1    3    3    0    0  0.83119567310E+02 -0.39061191486E+02  0.23303432037E+03  0.27997703784E+03  0.12509000000E+03 0.  0.
<mgrwt>
<rscale>  2 0.44678833E+03</rscale>
<asrwt>0</asrwt>
<pdfrwt beam="1">  1       21 0.78429865E-01 0.44678833E+03</pdfrwt>
<pdfrwt beam="2">  1       21 0.13760821E-01 0.44678833E+03</pdfrwt>
<totfact> 0.60905805E+04</totfact>
</mgrwt>
</event>
<event>
 7    0  0.4737014E-002  0.4598906E+03  0.7546771E-02  0.1024813E+00
         21   -1    0    0  502  501  0.00000000000E+00  0.00000000000E+00  0.27146314212E+04  0.27146314212E+04  0.00000000000E+00 0.  1.
         21   -1    0    0  501  502 -0.00000000000E+00 -0.00000000000E+00 -0.19477722136E+02  0.19477722136E+02  0.00000000000E+00 0.  1.
      99926    2    1    2    0    0 -0.19151347175E-14  0.14210854715E-13  0.26951536990E+04  0.27341091433E+04  0.45989058057E+03 0.  0.
      99925    2    3    3    0    0 -0.17135480177E+00  0.79819142994E+02  0.11746845060E+04  0.12064163732E+04  0.26303165551E+03 0.  0.
         25    1    4    4    0    0 -0.19012432586E+02  0.32694633408E+02  0.73317494447E+03  0.74473043374E+03  0.12509000000E+03 0.  0.
         25    1    3    3    0    0  0.17135480177E+00 -0.79819142994E+02  0.15204691930E+04  0.15276927701E+04  0.12509000000E+03 0.  0.
         25    1    4    4    0    0  0.18841077784E+02  0.47124509587E+02  0.44150956157E+03  0.46168593944E+03  0.12509000000E+03 0.  0.
<mgrwt>
<rscale>  2 0.45989058E+03</rscale>
<asrwt>0</asrwt>
<pdfrwt beam="1">  1       21 0.39921024E+00 0.45989058E+03</pdfrwt>
<pdfrwt beam="2">  1       21 0.28643728E-02 0.45989058E+03</pdfrwt>
<totfact> 0.48345285E+03</totfact>
</mgrwt>
</event>
<event>
 7    0  0.4737014E-002  0.4471107E+03  0.7546771E-02  0.1028587E+00
         21   -1    0    0  502  501  0.00000000000E+00  0.00000000000E+00  0.66960851113E+02  0.66960851113E+02  0.00000000000E+00 0.  1.
         21   -1    0    0  501  502 -0.00000000000E+00 -0.00000000000E+00 -0.74636136844E+03  0.74636136844E+03  0.00000000000E+00 0.  1.
      99926    2    1    2    0    0  0.14210854715E-13  0.71054273576E-14 -0.67940051733E+03  0.81332221956E+03  0.44711069085E+03 0.  0.
      99925    2    3    3    0    0 -0.65912531062E+02 -0.50677314659E+02 -0.54906753515E+03  0.61445833064E+03  0.26300423944E+03 0.  0.
         25    1    4    4    0    0 -0.32463056341E+02  0.90035896148E+01 -0.31189759494E+03  0.33773145025E+03  0.12509000000E+03 0.  0.
         25    1    3    3    0    0  0.65912531062E+02  0.50677314659E+02 -0.13033298218E+03  0.19886388892E+03  0.12509000000E+03 0.  0.
         25    1    4    4    0    0 -0.33449474721E+02 -0.59680904274E+02 -0.23716994020E+03  0.27672688039E+03  0.12509000000E+03 0.  0.
<mgrwt>
<rscale>  2 0.44711069E+03</rscale>
<asrwt>0</asrwt>
<pdfrwt beam="1">  1       21 0.98471843E-02 0.44711069E+03</pdfrwt>
<pdfrwt beam="2">  1       21 0.10975902E+00 0.44711069E+03</pdfrwt>
<totfact> 0.50161196E+04</totfact>
</mgrwt>
</event>
<event>
 7    0  0.4737014E-002  0.4452789E+03  0.7546771E-02  0.1029139E+00
         21   -1    0    0  502  501  0.00000000000E+00  0.00000000000E+00  0.72133027969E+03  0.72133027969E+03  0.00000000000E+00 0.  1.
         21   -1    0    0  501  502 -0.00000000000E+00 -0.00000000000E+00 -0.68717944447E+02  0.68717944447E+02  0.00000000000E+00 0.  1.
      99926    2    1    2    0    0  0.00000000000E+00  0.00000000000E+00  0.65261233525E+03  0.79004822414E+03  0.44527894218E+03 0.  0.
      99925    2    3    3    0    0 -0.97117235863E+02 -0.32923264308E+02  0.44261133126E+03  0.52497534999E+03  0.26301830488E+03 0.  0.
         25    1    4    4    0    0 -0.68580528683E+02  0.18932405366E+02  0.22762955004E+03  0.26930362982E+03  0.12509000000E+03 0.  0.
         25    1    3    3    0    0  0.97117235863E+02  0.32923264308E+02  0.21000100398E+03  0.26507287415E+03  0.12509000000E+03 0.  0.
         25    1    4    4    0    0 -0.28536707179E+02 -0.51855669674E+02  0.21498178123E+03  0.25567172017E+03  0.12509000000E+03 0.  0.
<mgrwt>
<rscale>  2 0.44527894E+03</rscale>
<asrwt>0</asrwt>
<pdfrwt beam="1">  1       21 0.10607798E+00 0.44527894E+03</pdfrwt>
<pdfrwt beam="2">  1       21 0.10105580E-01 0.44527894E+03</pdfrwt>
<totfact> 0.52113719E+04</totfact>
</mgrwt>
</event>
<event>
 7    0  0.4737014E-002  0.4509628E+03  0.7546771E-02  0.1027435E+00
         21   -1    0    0  502  501  0.00000000000E+00  0.00000000000E+00  0.57871952977E+03  0.57871952977E+03  0.00000000000E+00 0. -1.
         21   -1    0    0  501  502 -0.00000000000E+00 -0.00000000000E+00 -0.87852319162E+02  0.87852319162E+02  0.00000000000E+00 0. -1.
      99926    2    1    2    0    0  0.00000000000E+00 -0.71054273576E-14  0.49086721061E+03  0.66657184893E+03  0.45096276048E+03 0.  0.
      99925    2    3    3    0    0  0.94283693186E+02 -0.55276194703E+02  0.31753544345E+03  0.42649627310E+03  0.26291717446E+03 0.  0.
         25    1    4    4    0    0  0.39922895590E+02  0.13317619564E+02  0.15227302928E+03  0.20150875944E+03  0.12509000000E+03 0.  0.
         25    1    4    4    0    0  0.54360797597E+02 -0.68593814267E+02  0.16526241416E+03  0.22498751367E+03  0.12509000000E+03 0.  0.
         25    1    3    3    0    0 -0.94283693186E+02  0.55276194703E+02  0.17333176716E+03  0.24007557583E+03  0.12509000000E+03 0.  0.
<mgrwt>
<rscale>  2 0.45096276E+03</rscale>
<asrwt>0</asrwt>
<pdfrwt beam="1">  1       21 0.85105811E-01 0.45096276E+03</pdfrwt>
<pdfrwt beam="2">  1       21 0.12919459E-01 0.45096276E+03</pdfrwt>
<totfact> 0.56533603E+04</totfact>
</mgrwt>
</event>
<event>
 7    0  0.4737014E-002  0.4530700E+03  0.7546771E-02  0.1026810E+00
         21   -1    0    0  502  501  0.00000000000E+00  0.00000000000E+00  0.28837303911E+03  0.28837303911E+03  0.00000000000E+00 0. -1.
         21   -1    0    0  501  502 -0.00000000000E+00 -0.00000000000E+00 -0.17795734216E+03  0.17795734216E+03  0.00000000000E+00 0. -1.
      99926    2    1    2    0    0  0.14210854715E-13  0.35527136788E-14  0.11041569696E+03  0.46633038127E+03  0.45306997072E+03 0.  0.
      99925    2    3    3    0    0 -0.10972969491E+03 -0.17392339766E+02  0.64198063629E+02  0.29276000028E+03  0.26314240814E+03 0.  0.
         25    1    4    4    0    0 -0.43810340809E+02 -0.35622289537E+02  0.21084663041E+01  0.13725977999E+03  0.12509000000E+03 0.  0.
         25    1    3    3    0    0  0.10972969491E+03  0.17392339766E+02  0.46217633328E+02  0.17357038099E+03  0.12509000000E+03 0.  0.
         25    1    4    4    0    0 -0.65919354099E+02  0.18229949771E+02  0.62089597325E+02  0.15550022029E+03  0.12509000000E+03 0.  0.
<mgrwt>
<rscale>  2 0.45306997E+03</rscale>
<asrwt>0</asrwt>
<pdfrwt beam="1">  1       21 0.42407800E-01 0.45306997E+03</pdfrwt>
<pdfrwt beam="2">  1       21 0.26170197E-01 0.45306997E+03</pdfrwt>
<totfact> 0.68756367E+04</totfact>
</mgrwt>
</event>
<event>
 7    0  0.4737014E-002  0.4370734E+03  0.7546771E-02  0.1031649E+00
         21   -1    0    0  502  501  0.00000000000E+00  0.00000000000E+00  0.93418301910E+02  0.93418301910E+02  0.00000000000E+00 0.  1.
         21   -1    0    0  501  502 -0.00000000000E+00 -0.00000000000E+00 -0.51123045296E+03  0.51123045296E+03  0.00000000000E+00 0.  1.
      99926    2    1    2    0    0 -0.14210854715E-13  0.00000000000E+00 -0.41781215105E+03  0.60464875487E+03  0.43707336135E+03 0.  0.
      99925    2    3    3    0    0 -0.87242801977E+02 -0.21035877893E+02 -0.31366774409E+03  0.41877949906E+03  0.26255475713E+03 0.  0.
         25    1    4    4    0    0 -0.27575419007E+02  0.12153243770E+02 -0.19346219809E+03  0.23234292599E+03  0.12509000000E+03 0.  0.
         25    1    3    3    0    0  0.87242801977E+02  0.21035877893E+02 -0.10414440696E+03  0.18586925581E+03  0.12509000000E+03 0.  0.
         25    1    4    4    0    0 -0.59667382971E+02 -0.33189121663E+02 -0.12020554600E+03  0.18643657307E+03  0.12509000000E+03 0.  0.
<mgrwt>
<rscale>  2 0.43707336E+03</rscale>
<asrwt>0</asrwt>
<pdfrwt beam="1">  1       21 0.13737986E-01 0.43707336E+03</pdfrwt>
<pdfrwt beam="2">  1       21 0.75180948E-01 0.43707336E+03</pdfrwt>
<totfact> 0.67448981E+04</totfact>
</mgrwt>
</event>
<event>
 7    0  0.4737014E-002  0.4545405E+03  0.7546771E-02  0.1026377E+00
         21   -1    0    0  502  501  0.00000000000E+00  0.00000000000E+00  0.70797756488E+02  0.70797756488E+02  0.00000000000E+00 0. -1.
         21   -1    0    0  501  502 -0.00000000000E+00 -0.00000000000E+00 -0.72956798656E+03  0.72956798656E+03  0.00000000000E+00 0. -1.
      99926    2    1    2    0    0  0.00000000000E+00 -0.35527136788E-14 -0.65877023007E+03  0.80036574305E+03  0.45454054452E+03 0.  0.
      99925    2    3    3    0    0 -0.94998588500E+02  0.25879285519E+02 -0.51133798801E+03  0.58339052940E+03  0.26302757000E+03 0.  0.
         25    1    4    4    0    0 -0.47444717872E+02  0.42074460543E+02 -0.20152754821E+03  0.24552417859E+03  0.12509000000E+03 0.  0.
         25    1    4    4    0    0 -0.47553870628E+02 -0.16195175024E+02 -0.30981043980E+03  0.33786635082E+03  0.12509000000E+03 0.  0.
         25    1    3    3    0    0  0.94998588500E+02 -0.25879285519E+02 -0.14743224207E+03  0.21697521365E+03  0.12509000000E+03 0.  0.
<mgrwt>
<rscale>  2 0.45454054E+03</rscale>
<asrwt>0</asrwt>
<pdfrwt beam="1">  1       21 0.10411436E-01 0.45454054E+03</pdfrwt>
<pdfrwt beam="2">  1       21 0.10728940E+00 0.45454054E+03</pdfrwt>
<totfact> 0.47919675E+04</totfact>
</mgrwt>
</event>
<event>
 7    0  0.4737014E-002  0.4577787E+03  0.7546771E-02  0.1025427E+00
         21   -1    0    0  502  501  0.00000000000E+00  0.00000000000E+00  0.22920276450E+04  0.22920276450E+04  0.00000000000E+00 0. -1.
         21   -1    0    0  501  502 -0.00000000000E+00 -0.00000000000E+00 -0.22857633104E+02  0.22857633104E+02  0.00000000000E+00 0. -1.
      99926    2    1    2    0    0  0.71054273576E-14 -0.35527136788E-14  0.22691700119E+04  0.23148852781E+04  0.45777866693E+03 0.  0.
      99925    2    3    3    0    0 -0.47254973640E+02  0.17055228547E+02  0.89716643773E+03  0.93627538804E+03  0.26302104842E+03 0.  0.
         25    1    4    4    0    0 -0.51887763186E+01 -0.17521408463E+02  0.52147870870E+03  0.53658314816E+03  0.12509000000E+03 0.  0.
         25    1    3    3    0    0  0.47254973640E+02 -0.17055228547E+02  0.13720035742E+04  0.13786098901E+04  0.12509000000E+03 0.  0.
         25    1    4    4    0    0 -0.42066197322E+02  0.34576637010E+02  0.37568772903E+03  0.39969223989E+03  0.12509000000E+03 0.  0.
<mgrwt>
<rscale>  2 0.45777867E+03</rscale>
<asrwt>0</asrwt>
<pdfrwt beam="1">  1       21 0.33706273E+00 0.45777867E+03</pdfrwt>
<pdfrwt beam="2">  1       21 0.33614182E-02 0.45777867E+03</pdfrwt>
<totfact> 0.90200816E+03</totfact>
</mgrwt>
</event>
<event>
 7    0  0.4737014E-002  0.4506087E+03  0.7546771E-02  0.1027541E+00
         21   -1    0    0  502  501  0.00000000000E+00  0.00000000000E+00  0.35018972889E+03  0.35018972889E+03  0.00000000000E+00 0. -1.
         21   -1    0    0  501  502 -0.00000000000E+00 -0.00000000000E+00 -0.14495586467E+03  0.14495586467E+03  0.00000000000E+00 0. -1.
      99926    2    1    2    0    0  0.17763568394E-14  0.00000000000E+00  0.20523386422E+03  0.49514559356E+03  0.45060872140E+03 0.  0.
      99925    2    3    3    0    0 -0.65769112607E+01 -0.98333437898E+02  0.78476386045E+02  0.29160766800E+03  0.26299005323E+03 0.  0.
         25    1    3    3    0    0  0.65769112607E+01  0.98333437898E+02  0.12675747818E+03  0.20353792557E+03  0.12509000000E+03 0.  0.
         25    1    4    4    0    0 -0.24449504386E+02 -0.81516443118E+02  0.24893399513E+02  0.15332937815E+03  0.12509000000E+03 0.  0.
         25    1    4    4    0    0  0.17872593125E+02 -0.16816994780E+02  0.53582986532E+02  0.13827828985E+03  0.12509000000E+03 0.  0.
<mgrwt>
<rscale>  2 0.45060872E+03</rscale>
<asrwt>0</asrwt>
<pdfrwt beam="1">  1       21 0.51498489E-01 0.45060872E+03</pdfrwt>
<pdfrwt beam="2">  1       21 0.21317039E-01 0.45060872E+03</pdfrwt>
<totfact> 0.67951073E+04</totfact>
</mgrwt>
</event>
<event>
 7    0  0.4737014E-002  0.4731207E+03  0.7546771E-02  0.1021043E+00
         21   -1    0    0  502  501  0.00000000000E+00  0.00000000000E+00  0.42088070462E+02  0.42088070462E+02  0.00000000000E+00 0. -1.
         21   -1    0    0  501  502 -0.00000000000E+00 -0.00000000000E+00 -0.13296121331E+04  0.13296121331E+04  0.00000000000E+00 0. -1.
      99926    2    1    2    0    0  0.14210854715E-13  0.00000000000E+00 -0.12875240627E+04  0.13717002036E+04  0.47312074208E+03 0.  0.
      99925    2    3    3    0    0 -0.12216005169E+03  0.35507458478E+02 -0.86983197899E+03  0.91749976028E+03  0.26270569199E+03 0.  0.
         25    1    4    4    0    0 -0.69092533568E+02  0.54470184812E+02 -0.40803280184E+03  0.43575113851E+03  0.12509000000E+03 0.  0.
         25    1    3    3    0    0  0.12216005169E+03 -0.35507458478E+02 -0.41769208367E+03  0.45420044330E+03  0.12509000000E+03 0.  0.
         25    1    4    4    0    0 -0.53067518123E+02 -0.18962726334E+02 -0.46179917714E+03  0.48174862177E+03  0.12509000000E+03 0.  0.
<mgrwt>
<rscale>  2 0.47312074E+03</rscale>
<asrwt>0</asrwt>
<pdfrwt beam="1">  1       21 0.61894222E-02 0.47312074E+03</pdfrwt>
<pdfrwt beam="2">  1       21 0.19553119E+00 0.47312074E+03</pdfrwt>
<totfact> 0.23593735E+04</totfact>
</mgrwt>
</event>
<event>
 7    0  0.4737014E-002  0.4612681E+03  0.7546771E-02  0.1024414E+00
         21   -1    0    0  502  501  0.00000000000E+00  0.00000000000E+00  0.12795829891E+04  0.12795829891E+04  0.00000000000E+00 0.  1.
         21   -1    0    0  501  502 -0.00000000000E+00 -0.00000000000E+00 -0.41569851936E+02  0.41569851936E+02  0.00000000000E+00 0.  1.
      99926    2    1    2    0    0 -0.14210854715E-13  0.26645352591E-14  0.12380131372E+04  0.13211528410E+04  0.46126814500E+03 0.  0.
      99925    2    3    3    0    0 -0.74026713958E+02  0.61857333210E+01  0.10408500893E+04  0.10761242851E+04  0.26297595125E+03 0.  0.
         25    1    4    4    0    0 -0.70576316904E+02  0.27212167248E+02  0.53695605994E+03  0.55649873042E+03  0.12509000000E+03 0.  0.
         25    1    3    3    0    0  0.74026713958E+02 -0.61857333210E+01  0.19716304788E+03  0.24502855593E+03  0.12509000000E+03 0.  0.
         25    1    4    4    0    0 -0.34503970540E+01 -0.21026433927E+02  0.50389402934E+03  0.51962555468E+03  0.12509000000E+03 0.  0.
<mgrwt>
<rscale>  2 0.46126814E+03</rscale>
<asrwt>0</asrwt>
<pdfrwt beam="1">  1       21 0.18817394E+00 0.46126814E+03</pdfrwt>
<pdfrwt beam="2">  1       21 0.61132144E-02 0.46126814E+03</pdfrwt>
<totfact> 0.27158478E+04</totfact>
</mgrwt>
</event>
<event>
 6    0  0.4737014E-002  0.4565114E+03  0.7546771E-02  0.1025798E+00
         21   -1    0    0  502  501  0.00000000000E+00  0.00000000000E+00  0.23050644813E+03  0.23050644813E+03  0.00000000000E+00 0.  1.
         21   -1    0    0  501  502 -0.00000000000E+00 -0.00000000000E+00 -0.22602696305E+03  0.22602696305E+03  0.00000000000E+00 0.  1.
      99926    2    1    2    0    0  0.00000000000E+00  0.00000000000E+00  0.44794850846E+01  0.45653341118E+03  0.45651143440E+03 0.  0.
         25    1    3    3    0    0 -0.11028493131E+02  0.11773173190E+01  0.17964859949E+02  0.12685920554E+03  0.12509000000E+03 0.  0.
         25    1    3    3    0    0  0.90197075231E+02  0.49568798254E+02  0.35227195189E+02  0.16577406770E+03  0.12509000000E+03 0.  0.
         25    1    3    3    0    0 -0.79168582099E+02 -0.50746115573E+02 -0.48712570053E+02  0.16390013795E+03  0.12509000000E+03 0.  0.
<mgrwt>
<rscale>  2 0.45651143E+03</rscale>
<asrwt>0</asrwt>
<pdfrwt beam="1">  1       21 0.33898007E-01 0.45651143E+03</pdfrwt>
<pdfrwt beam="2">  1       21 0.33239259E-01 0.45651143E+03</pdfrwt>
<totfact> 0.67614505E+04</totfact>
</mgrwt>
</event>
<event>
 7    0  0.4737014E-002  0.4452008E+03  0.7546771E-02  0.1029163E+00
         21   -1    0    0  502  501  0.00000000000E+00  0.00000000000E+00  0.10812346382E+03  0.10812346382E+03  0.00000000000E+00 0.  1.
         21   -1    0    0  501  502 -0.00000000000E+00 -0.00000000000E+00 -0.45828101053E+03  0.45828101053E+03  0.00000000000E+00 0.  1.
      99926    2    1    2    0    0 -0.35527136788E-14  0.00000000000E+00 -0.35015754671E+03  0.56640447435E+03  0.44520076488E+03 0.  0.
      99925    2    3    3    0    0  0.29933102869E+02 -0.98920622269E+02 -0.22549479777E+03  0.36178387609E+03  0.26335980905E+03 0.  0.
         25    1    4    4    0    0  0.28838093210E+02 -0.85948919969E+02 -0.99467402888E+02  0.18373928486E+03  0.12509000000E+03 0.  0.
         25    1    3    3    0    0 -0.29933102869E+02  0.98920622269E+02 -0.12466274894E+03  0.20462059826E+03  0.12509000000E+03 0.  0.
         25    1    4    4    0    0  0.10950096594E+01 -0.12971702300E+02 -0.12602739488E+03  0.17804459123E+03  0.12509000000E+03 0.  0.
<mgrwt>
<rscale>  2 0.44520076E+03</rscale>
<asrwt>0</asrwt>
<pdfrwt beam="1">  1       21 0.15900510E-01 0.44520076E+03</pdfrwt>
<pdfrwt beam="2">  1       21 0.67394265E-01 0.44520076E+03</pdfrwt>
<totfact> 0.65744030E+04</totfact>
</mgrwt>
</event>
<event>
 7    0  0.4737014E-002  0.4393889E+03  0.7546771E-02  0.1030934E+00
         21   -1    0    0  502  501  0.00000000000E+00  0.00000000000E+00  0.40219985469E+02  0.40219985469E+02  0.00000000000E+00 0.  1.
         21   -1    0    0  501  502 -0.00000000000E+00 -0.00000000000E+00 -0.12000412814E+04  0.12000412814E+04  0.00000000000E+00 0.  1.
      99926    2    1    2    0    0 -0.71054273576E-14  0.71054273576E-14 -0.11598212959E+04  0.12402612668E+04  0.43938886149E+03 0.  0.
      99925    2    3    3    0    0  0.63714338070E+02 -0.48863101180E+02 -0.89806617074E+03  0.93924569718E+03  0.26308271152E+03 0.  0.
         25    1    4    4    0    0  0.33912186638E+01 -0.48771412499E+02 -0.38677087863E+03  0.40942566077E+03  0.12509000000E+03 0.  0.
         25    1    4    4    0    0  0.60323119407E+02 -0.91688680493E-01 -0.51129529211E+03  0.52982003640E+03  0.12509000000E+03 0.  0.
         25    1    3    3    0    0 -0.63714338070E+02  0.48863101180E+02 -0.26175512517E+03  0.30101556967E+03  0.12509000000E+03 0.  0.
<mgrwt>
<rscale>  2 0.43938886E+03</rscale>
<asrwt>0</asrwt>
<pdfrwt beam="1">  1       21 0.59147028E-02 0.43938886E+03</pdfrwt>
<pdfrwt beam="2">  1       21 0.17647669E+00 0.43938886E+03</pdfrwt>
<totfact> 0.34958447E+04</totfact>
</mgrwt>
</event>
<event>
 7    0  0.4737014E-002  0.4552728E+03  0.7546771E-02  0.1026161E+00
         21   -1    0    0  502  501  0.00000000000E+00  0.00000000000E+00  0.51762966809E+03  0.51762966809E+03  0.00000000000E+00 0.  1.
         21   -1    0    0  501  502 -0.00000000000E+00 -0.00000000000E+00 -0.10010693580E+03  0.10010693580E+03  0.00000000000E+00 0.  1.
      99926    2    1    2    0    0  0.00000000000E+00  0.00000000000E+00  0.41752273229E+03  0.61773660389E+03  0.45527275321E+03 0.  0.
      99925    2    3    3    0    0  0.70154571698E+02 -0.72490051698E+02  0.19230719313E+03  0.34106709219E+03  0.26299854244E+03 0.  0.
         25    1    4    4    0    0  0.31354403239E+02 -0.94933163046E+01  0.52992003148E+02  0.13974577688E+03  0.12509000000E+03 0.  0.
         25    1    3    3    0    0 -0.70154571698E+02  0.72490051698E+02  0.22521553916E+03  0.27666951170E+03  0.12509000000E+03 0.  0.
         25    1    4    4    0    0  0.38800168458E+02 -0.62996735393E+02  0.13931518998E+03  0.20132131532E+03  0.12509000000E+03 0.  0.
<mgrwt>
<rscale>  2 0.45527275E+03</rscale>
<asrwt>0</asrwt>
<pdfrwt beam="1">  1       21 0.76122009E-01 0.45527275E+03</pdfrwt>
<pdfrwt beam="2">  1       21 0.14721608E-01 0.45527275E+03</pdfrwt>
<totfact> 0.57475705E+04</totfact>
</mgrwt>
</event>
<event>
 7    0  0.4737014E-002  0.4622145E+03  0.7546771E-02  0.1024141E+00
         21   -1    0    0  502  501  0.00000000000E+00  0.00000000000E+00  0.11129505482E+03  0.11129505482E+03  0.00000000000E+00 0.  1.
         21   -1    0    0  501  502 -0.00000000000E+00 -0.00000000000E+00 -0.47990065370E+03  0.47990065370E+03  0.00000000000E+00 0.  1.
      99926    2    1    2    0    0  0.00000000000E+00  0.00000000000E+00 -0.36860559888E+03  0.59119570851E+03  0.46221453703E+03 0.  0.
      99925    2    3    3    0    0  0.74505068199E+02 -0.19463774063E+02 -0.11279451275E+03  0.29620983838E+03  0.26284562496E+03 0.  0.
         25    1    3    3    0    0 -0.74505068199E+02  0.19463774063E+02 -0.25581108613E+03  0.29498587013E+03  0.12509000000E+03 0.  0.
         25    1    4    4    0    0  0.78755074139E+02 -0.15596689075E+02 -0.58891085403E+02  0.15987897439E+03  0.12509000000E+03 0.  0.
         25    1    4    4    0    0 -0.42500059395E+01 -0.38670849881E+01 -0.53903427345E+02  0.13633086399E+03  0.12509000000E+03 0.  0.
<mgrwt>
<rscale>  2 0.46221454E+03</rscale>
<asrwt>0</asrwt>
<pdfrwt beam="1">  1       21 0.16366920E-01 0.46221454E+03</pdfrwt>
<pdfrwt beam="2">  1       21 0.70573625E-01 0.46221454E+03</pdfrwt>
<totfact> 0.55963529E+04</totfact>
</mgrwt>
</event>
<event>
 7    0  0.4737014E-002  0.4573348E+03  0.7546771E-02  0.1025557E+00
         21   -1    0    0  502  501  0.00000000000E+00  0.00000000000E+00  0.35942994433E+02  0.35942994433E+02  0.00000000000E+00 0.  1.
         21   -1    0    0  501  502 -0.00000000000E+00 -0.00000000000E+00 -0.14547697320E+04  0.14547697320E+04  0.00000000000E+00 0.  1.
      99926    2    1    2    0    0  0.00000000000E+00  0.00000000000E+00 -0.14188267375E+04  0.14907127264E+04  0.45733480242E+03 0.  0.
      99925    2    3    3    0    0 -0.69875834881E+02 -0.77666955611E+02 -0.10509158645E+04  0.10883190051E+04  0.26286748458E+03 0.  0.
         25    1    4    4    0    0 -0.19486438325E+02 -0.38978613545E+02 -0.36732208573E+03  0.39047672960E+03  0.12509000000E+03 0.  0.
         25    1    3    3    0    0  0.69875834881E+02  0.77666955611E+02 -0.36791087309E+03  0.40239372128E+03  0.12509000000E+03 0.  0.
         25    1    4    4    0    0 -0.50389396556E+02 -0.38688342067E+02 -0.68359377872E+03  0.69784227552E+03  0.12509000000E+03 0.  0.
<mgrwt>
<rscale>  2 0.45733480E+03</rscale>
<asrwt>0</asrwt>
<pdfrwt beam="1">  1       21 0.52857351E-02 0.45733480E+03</pdfrwt>
<pdfrwt beam="2">  1       21 0.21393670E+00 0.45733480E+03</pdfrwt>
<totfact> 0.23577171E+04</totfact>
</mgrwt>
</event>
<event>
 7    0  0.4737014E-002  0.4384610E+03  0.7546771E-02  0.1031220E+00
         21   -1    0    0  502  501  0.00000000000E+00  0.00000000000E+00  0.11415332691E+03  0.11415332691E+03  0.00000000000E+00 0. -1.
         21   -1    0    0  501  502 -0.00000000000E+00 -0.00000000000E+00 -0.42103034888E+03  0.42103034888E+03  0.00000000000E+00 0. -1.
      99926    2    1    2    0    0  0.00000000000E+00 -0.71054273576E-14 -0.30687702197E+03  0.53518367579E+03  0.43846101334E+03 0.  0.
      99925    2    3    3    0    0  0.52258798779E+02 -0.37092941080E+02 -0.28483061053E+03  0.39291484334E+03  0.26295765647E+03 0.  0.
         25    1    4    4    0    0  0.52334576240E+02  0.10239240127E+02 -0.12735191795E+03  0.18630557966E+03  0.12509000000E+03 0.  0.
         25    1    4    4    0    0 -0.75777461755E-01 -0.47332181206E+02 -0.15747869259E+03  0.20660926368E+03  0.12509000000E+03 0.  0.
         25    1    3    3    0    0 -0.52258798779E+02  0.37092941080E+02 -0.22046411431E+02  0.14226883244E+03  0.12509000000E+03 0.  0.
<mgrwt>
<rscale>  2 0.43846101E+03</rscale>
<asrwt>0</asrwt>
<pdfrwt beam="1">  1       21 0.16787254E-01 0.43846101E+03</pdfrwt>
<pdfrwt beam="2">  1       21 0.61916228E-01 0.43846101E+03</pdfrwt>
<totfact> 0.71804066E+04</totfact>
</mgrwt>
</event>
<event>
 7    0  0.4737014E-002  0.4523464E+03  0.7546771E-02  0.1027025E+00
         21   -1    0    0  502  501  0.00000000000E+00  0.00000000000E+00  0.11229213052E+03  0.11229213052E+03  0.00000000000E+00 0. -1.
         21   -1    0    0  501  502 -0.00000000000E+00 -0.00000000000E+00 -0.45554681219E+03  0.45554681219E+03  0.00000000000E+00 0. -1.
      99926    2    1    2    0    0  0.71054273576E-14 -0.14210854715E-13 -0.34325468166E+03  0.56783894271E+03  0.45234642518E+03 0.  0.
      99925    2    3    3    0    0 -0.40917880015E+02  0.10125147120E+03 -0.23911742242E+03  0.37183330455E+03  0.26297667452E+03 0.  0.
         25    1    4    4    0    0 -0.77329424579E+01  0.88907588057E+02 -0.14560998258E+03  0.21169348771E+03  0.12509000000E+03 0.  0.
         25    1    4    4    0    0 -0.33184937557E+02  0.12343883146E+02 -0.93507439848E+02  0.16013981684E+03  0.12509000000E+03 0.  0.
         25    1    3    3    0    0  0.40917880015E+02 -0.10125147120E+03 -0.10413725924E+03  0.19600563815E+03  0.12509000000E+03 0.  0.
<mgrwt>
<rscale>  2 0.45234643E+03</rscale>
<asrwt>0</asrwt>
<pdfrwt beam="1">  1       21 0.16513549E-01 0.45234643E+03</pdfrwt>
<pdfrwt beam="2">  1       21 0.66992178E-01 0.45234643E+03</pdfrwt>
<totfact> 0.61993597E+04</totfact>
</mgrwt>
</event>
<event>
 7    0  0.4737014E-002  0.4526345E+03  0.7546771E-02  0.1026939E+00
         21   -1    0    0  502  501  0.00000000000E+00  0.00000000000E+00  0.10064343839E+04  0.10064343839E+04  0.00000000000E+00 0. -1.
         21   -1    0    0  501  502 -0.00000000000E+00 -0.00000000000E+00 -0.50892039108E+02  0.50892039108E+02  0.00000000000E+00 0. -1.
      99926    2    1    2    0    0  0.14210854715E-13  0.14210854715E-13  0.95554234480E+03  0.10573264230E+04  0.45263450167E+03 0.  0.
      99925    2    3    3    0    0  0.68156382563E+02  0.74538508912E+02  0.70976108554E+03  0.76363063261E+03  0.26300125994E+03 0.  0.
         25    1    4    4    0    0  0.43021703381E+01  0.21518007753E+02  0.39477785680E+03  0.41470302343E+03  0.12509000000E+03 0.  0.
         25    1    4    4    0    0  0.63854212225E+02  0.53020501158E+02  0.31498322874E+03  0.34892760918E+03  0.12509000000E+03 0.  0.
         25    1    3    3    0    0 -0.68156382563E+02 -0.74538508912E+02  0.24578125927E+03  0.29369579040E+03  0.12509000000E+03 0.  0.
<mgrwt>
<rscale>  2 0.45263450E+03</rscale>
<asrwt>0</asrwt>
<pdfrwt beam="1">  1       21 0.14800504E+00 0.45263450E+03</pdfrwt>
<pdfrwt beam="2">  1       21 0.74841241E-02 0.45263450E+03</pdfrwt>
<totfact> 0.37700938E+04</totfact>
</mgrwt>
</event>
<event>
 7    0  0.4737014E-002  0.4751027E+03  0.7546771E-02  0.1020490E+00
         21   -1    0    0  502  501  0.00000000000E+00  0.00000000000E+00  0.97931174061E+02  0.97931174061E+02  0.00000000000E+00 0. -1.
         21   -1    0    0  501  502 -0.00000000000E+00 -0.00000000000E+00 -0.57622769873E+03  0.57622769873E+03  0.00000000000E+00 0. -1.
      99926    2    1    2    0    0  0.14210854715E-13  0.26645352591E-14 -0.47829652467E+03  0.67415887279E+03  0.47510274705E+03 0.  0.
      99925    2    3    3    0    0 -0.12521008437E+03  0.21077080807E+01 -0.24021322143E+03  0.37748872761E+03  0.26289416133E+03 0.  0.
         25    1    4    4    0    0 -0.35033717293E+02  0.32461665904E+02 -0.11622531451E+03  0.17730468954E+03  0.12509000000E+03 0.  0.
         25    1    3    3    0    0  0.12521008437E+03 -0.21077080807E+01 -0.23808330324E+03  0.29667014518E+03  0.12509000000E+03 0.  0.
         25    1    4    4    0    0 -0.90176367074E+02 -0.30353957824E+02 -0.12398790692E+03  0.20018403807E+03  0.12509000000E+03 0.  0.
<mgrwt>
<rscale>  2 0.47510275E+03</rscale>
<asrwt>0</asrwt>
<pdfrwt beam="1">  1       21 0.14401644E-01 0.47510275E+03</pdfrwt>
<pdfrwt beam="2">  1       21 0.84739366E-01 0.47510275E+03</pdfrwt>
<totfact> 0.46508320E+04</totfact>
</mgrwt>
</event>
<event>
 7    0  0.4737014E-002  0.4459814E+03  0.7546771E-02  0.1028927E+00
         21   -1    0    0  502  501  0.00000000000E+00  0.00000000000E+00  0.10657176644E+03  0.10657176644E+03  0.00000000000E+00 0. -1.
         21   -1    0    0  501  502 -0.00000000000E+00 -0.00000000000E+00 -0.46658559929E+03  0.46658559929E+03  0.00000000000E+00 0. -1.
      99926    2    1    2    0    0  0.00000000000E+00  0.00000000000E+00 -0.36001383286E+03  0.57315736573E+03  0.44598139652E+03 0.  0.
      99925    2    3    3    0    0  0.89574453383E+01  0.93139351824E+02 -0.28824309489E+03  0.40124540683E+03  0.26298026554E+03 0.  0.
         25    1    4    4    0    0 -0.54687006996E+01  0.28671648264E+02 -0.86549839439E+02  0.15488819486E+03  0.12509000000E+03 0.  0.
         25    1    3    3    0    0 -0.89574453383E+01 -0.93139351824E+02 -0.71770737969E+02  0.17191195890E+03  0.12509000000E+03 0.  0.
         25    1    4    4    0    0  0.14426146038E+02  0.64467703559E+02 -0.20169325545E+03  0.24635721196E+03  0.12509000000E+03 0.  0.
<mgrwt>
<rscale>  2 0.44598140E+03</rscale>
<asrwt>0</asrwt>
<pdfrwt beam="1">  1       21 0.15672318E-01 0.44598140E+03</pdfrwt>
<pdfrwt beam="2">  1       21 0.68615530E-01 0.44598140E+03</pdfrwt>
<totfact> 0.64864921E+04</totfact>
</mgrwt>
</event>
<event>
 7    0  0.4737014E-002  0.4477726E+03  0.7546771E-02  0.1028388E+00
         21   -1    0    0  502  501  0.00000000000E+00  0.00000000000E+00  0.57534408092E+02  0.57534408092E+02  0.00000000000E+00 0. -1.
         21   -1    0    0  501  502 -0.00000000000E+00 -0.00000000000E+00 -0.87121925194E+03  0.87121925194E+03  0.00000000000E+00 0. -1.
      99926    2    1    2    0    0  0.00000000000E+00 -0.14210854715E-13 -0.81368484385E+03  0.92875366003E+03  0.44777263864E+03 0.  0.
      99925    2    3    3    0    0  0.75963390150E+02 -0.70112707685E+02 -0.56630275548E+03  0.63289620421E+03  0.26300677941E+03 0.  0.
         25    1    4    4    0    0  0.25412204739E+02 -0.66919879954E+02 -0.24250308477E+03  0.28209804095E+03  0.12509000000E+03 0.  0.
         25    1    3    3    0    0 -0.75963390150E+02  0.70112707685E+02 -0.24738208836E+03  0.29585745582E+03  0.12509000000E+03 0.  0.
         25    1    4    4    0    0  0.50551185411E+02 -0.31928277310E+01 -0.32379967071E+03  0.35079816326E+03  0.12509000000E+03 0.  0.
<mgrwt>
<rscale>  2 0.44777264E+03</rscale>
<asrwt>0</asrwt>
<pdfrwt beam="1">  1       21 0.84609425E-02 0.44777264E+03</pdfrwt>
<pdfrwt beam="2">  1       21 0.12812048E+00 0.44777264E+03</pdfrwt>
<totfact> 0.44474739E+04</totfact>
</mgrwt>
</event>
<event>
 7    0  0.4737014E-002  0.4540240E+03  0.7546771E-02  0.1026529E+00
         21   -1    0    0  502  501  0.00000000000E+00  0.00000000000E+00  0.26587861422E+03  0.26587861422E+03  0.00000000000E+00 0.  1.
         21   -1    0    0  501  502 -0.00000000000E+00 -0.00000000000E+00 -0.19382696860E+03  0.19382696860E+03  0.00000000000E+00 0.  1.
      99926    2    1    2    0    0  0.14210854715E-13  0.00000000000E+00  0.72051645615E+02  0.45970558282E+03  0.45402398972E+03 0.  0.
      99925    2    3    3    0    0 -0.89041551704E+02  0.49227692767E+02 -0.27410263779E+01  0.28196077826E+03  0.26294981191E+03 0.  0.
         25    1    4    4    0    0 -0.10431310402E+02 -0.49988264897E+00 -0.98776529801E+01  0.12591321713E+03  0.12509000000E+03 0.  0.
         25    1    4    4    0    0 -0.78610241302E+02  0.49727575416E+02  0.71366266022E+01  0.15604756113E+03  0.12509000000E+03 0.  0.
         25    1    3    3    0    0  0.89041551704E+02 -0.49227692767E+02  0.74792671993E+02  0.17774480456E+03  0.12509000000E+03 0.  0.
<mgrwt>
<rscale>  2 0.45402399E+03</rscale>
<asrwt>0</asrwt>
<pdfrwt beam="1">  1       21 0.39099796E-01 0.45402399E+03</pdfrwt>
<pdfrwt beam="2">  1       21 0.28503966E-01 0.45402399E+03</pdfrwt>
<totfact> 0.68735429E+04</totfact>
</mgrwt>
</event>
<event>
 7    0  0.4737014E-002  0.4583432E+03  0.7546771E-02  0.1025263E+00
         21   -1    0    0  502  501  0.00000000000E+00  0.00000000000E+00  0.29693861813E+03  0.29693861813E+03  0.00000000000E+00 0.  1.
         21   -1    0    0  501  502 -0.00000000000E+00 -0.00000000000E+00 -0.17687031723E+03  0.17687031723E+03  0.00000000000E+00 0.  1.
      99926    2    1    2    0    0  0.71054273576E-14  0.00000000000E+00  0.12006830090E+03  0.47380893536E+03  0.45834322330E+03 0.  0.
      99925    2    3    3    0    0  0.46066125961E+02 -0.33968151954E+02  0.17844899666E+03  0.32437086442E+03  0.26475741722E+03 0.  0.
         25    1    3    3    0    0 -0.46066125961E+02  0.33968151954E+02 -0.58380695757E+02  0.14943807094E+03  0.12509000000E+03 0.  0.
         25    1    4    4    0    0  0.53344023398E+02  0.12790079939E+02  0.79902717369E+02  0.15824387293E+03  0.12509000000E+03 0.  0.
         25    1    4    4    0    0 -0.72778974372E+01 -0.46758231893E+02  0.98546279288E+02  0.16612699149E+03  0.12509000000E+03 0.  0.
<mgrwt>
<rscale>  2 0.45834322E+03</rscale>
<asrwt>0</asrwt>
<pdfrwt beam="1">  1       21 0.43667444E-01 0.45834322E+03</pdfrwt>
<pdfrwt beam="2">  1       21 0.26010341E-01 0.45834322E+03</pdfrwt>
<totfact> 0.65401524E+04</totfact>
</mgrwt>
</event>
<event>
 7    0  0.4737014E-002  0.4495155E+03  0.7546771E-02  0.1027867E+00
         21   -1    0    0  502  501  0.00000000000E+00  0.00000000000E+00  0.89860849122E+02  0.89860849122E+02  0.00000000000E+00 0. -1.
         21   -1    0    0  501  502 -0.00000000000E+00 -0.00000000000E+00 -0.56215851424E+03  0.56215851424E+03  0.00000000000E+00 0. -1.
      99926    2    1    2    0    0  0.14210854715E-13  0.00000000000E+00 -0.47229766512E+03  0.65201936336E+03  0.44951547885E+03 0.  0.
      99925    2    3    3    0    0  0.95991230290E+02 -0.16337970286E+02 -0.23079293920E+03  0.36313653884E+03  0.26290971737E+03 0.  0.
         25    1    4    4    0    0  0.74955079237E+02  0.92848276960E+01 -0.15565623045E+03  0.21349670280E+03  0.12509000000E+03 0.  0.
         25    1    3    3    0    0 -0.95991230290E+02  0.16337970286E+02 -0.24150472592E+03  0.28888282453E+03  0.12509000000E+03 0.  0.
         25    1    4    4    0    0  0.21036151054E+02 -0.25622797982E+02 -0.75136708756E+02  0.14963983604E+03  0.12509000000E+03 0.  0.
<mgrwt>
<rscale>  2 0.44951548E+03</rscale>
<asrwt>0</asrwt>
<pdfrwt beam="1">  1       21 0.13214831E-01 0.44951548E+03</pdfrwt>
<pdfrwt beam="2">  1       21 0.82670369E-01 0.44951548E+03</pdfrwt>
<totfact> 0.58056484E+04</totfact>
</mgrwt>
</event>
<event>
 7    0  0.4737014E-002  0.4553670E+03  0.7546771E-02  0.1026134E+00
         21   -1    0    0  502  501  0.00000000000E+00  0.00000000000E+00  0.20565103126E+02  0.20565103126E+02  0.00000000000E+00 0.  1.
         21   -1    0    0  501  502 -0.00000000000E+00 -0.00000000000E+00 -0.25207640776E+04  0.25207640776E+04  0.00000000000E+00 0.  1.
      99926    2    1    2    0    0  0.71054273576E-14  0.00000000000E+00 -0.25001989745E+04  0.25413291808E+04  0.45536698701E+03 0.  0.
      99925    2    3    3    0    0  0.52674728102E+02 -0.15352125792E+02 -0.10178918847E+04  0.10527418870E+04  0.26296630359E+03 0.  0.
         25    1    4    4    0    0  0.90664535284E+01  0.27695509281E+02 -0.53140596990E+03  0.54670746726E+03  0.12509000000E+03 0.  0.
         25    1    3    3    0    0 -0.52674728102E+02  0.15352125792E+02 -0.14823070898E+04  0.14885872938E+04  0.12509000000E+03 0.  0.
         25    1    4    4    0    0  0.43608274573E+02 -0.43047635072E+02 -0.48648591485E+03  0.50603441972E+03  0.12509000000E+03 0.  0.
<mgrwt>
<rscale>  2 0.45536699E+03</rscale>
<asrwt>0</asrwt>
<pdfrwt beam="1">  1       21 0.30242774E-02 0.45536699E+03</pdfrwt>
<pdfrwt beam="2">  1       21 0.37070090E+00 0.45536699E+03</pdfrwt>
<totfact> 0.66989719E+03</totfact>
</mgrwt>
</event>
<event>
 7    0  0.4737014E-002  0.4494802E+03  0.7546771E-02  0.1027877E+00
         21   -1    0    0  502  501  0.00000000000E+00  0.00000000000E+00  0.13033871702E+03  0.13033871702E+03  0.00000000000E+00 0.  1.
         21   -1    0    0  501  502 -0.00000000000E+00 -0.00000000000E+00 -0.38751420682E+03  0.38751420682E+03  0.00000000000E+00 0.  1.
      99926    2    1    2    0    0  0.00000000000E+00 -0.35527136788E-14 -0.25717548980E+03  0.51785292384E+03  0.44948016439E+03 0.  0.
      99925    2    3    3    0    0  0.96720208031E+02  0.21817810502E+02 -0.11345757402E+03  0.30306660465E+03  0.26295613751E+03 0.  0.
         25    1    4    4    0    0  0.12209868531E+02  0.12261704914E+02 -0.75436614765E+02  0.14709731896E+03  0.12509000000E+03 0.  0.
         25    1    3    3    0    0 -0.96720208031E+02 -0.21817810502E+02 -0.14371791578E+03  0.21478631919E+03  0.12509000000E+03 0.  0.
         25    1    4    4    0    0  0.84510339500E+02  0.95561055878E+01 -0.38020959255E+02  0.15596928569E+03  0.12509000000E+03 0.  0.
<mgrwt>
<rscale>  2 0.44948016E+03</rscale>
<asrwt>0</asrwt>
<pdfrwt beam="1">  1       21 0.19167458E-01 0.44948016E+03</pdfrwt>
<pdfrwt beam="2">  1       21 0.56987383E-01 0.44948016E+03</pdfrwt>
<totfact> 0.66916475E+04</totfact>
</mgrwt>
</event>
<event>
 7    0  0.4737014E-002  0.4590469E+03  0.7546771E-02  0.1025058E+00
         21   -1    0    0  502  501  0.00000000000E+00  0.00000000000E+00  0.82170514305E+02  0.82170514305E+02  0.00000000000E+00 0.  1.
         21   -1    0    0  501  502 -0.00000000000E+00 -0.00000000000E+00 -0.64111823335E+03  0.64111823335E+03  0.00000000000E+00 0.  1.
      99926    2    1    2    0    0  0.00000000000E+00  0.00000000000E+00 -0.55894771904E+03  0.72328874765E+03  0.45904690377E+03 0.  0.
      99925    2    3    3    0    0  0.10082744305E+03  0.47790867623E+02 -0.29314160366E+03  0.40904276219E+03  0.26255254943E+03 0.  0.
         25    1    4    4    0    0  0.74800072447E+02  0.53936593290E+01 -0.11486888292E+03  0.18565158433E+03  0.12509000000E+03 0.  0.
         25    1    4    4    0    0  0.26027370600E+02  0.42397208294E+02 -0.17827272073E+03  0.22339117787E+03  0.12509000000E+03 0.  0.
         25    1    3    3    0    0 -0.10082744305E+03 -0.47790867623E+02 -0.26580611539E+03  0.31424598546E+03  0.12509000000E+03 0.  0.
<mgrwt>
<rscale>  2 0.45904690E+03</rscale>
<asrwt>0</asrwt>
<pdfrwt beam="1">  1       21 0.12083899E-01 0.45904690E+03</pdfrwt>
<pdfrwt beam="2">  1       21 0.94282095E-01 0.45904690E+03</pdfrwt>
<totfact> 0.50044758E+04</totfact>
</mgrwt>
</event>
<event>
 7    0  0.4737014E-002  0.4285662E+03  0.7546771E-02  0.1034314E+00
         21   -1    0    0  502  501  0.00000000000E+00  0.00000000000E+00  0.86425827954E+03  0.86425827954E+03  0.00000000000E+00 0. -1.
         21   -1    0    0  501  502 -0.00000000000E+00 -0.00000000000E+00 -0.53129087097E+02  0.53129087097E+02  0.00000000000E+00 0. -1.
      99926    2    1    2    0    0  0.00000000000E+00  0.00000000000E+00  0.81112919244E+03  0.91738736663E+03  0.42856623016E+03 0.  0.
      99925    2    3    3    0    0 -0.61956982669E+02 -0.16747034018E+02  0.64648017726E+03  0.70087885145E+03  0.26301219356E+03 0.  0.
         25    1    4    4    0    0 -0.68800467042E+02 -0.24244751293E+02  0.32673769600E+03  0.35738822353E+03  0.12509000000E+03 0.  0.
         25    1    4    4    0    0  0.68434843729E+01  0.74977172746E+01  0.31974248126E+03  0.34349062792E+03  0.12509000000E+03 0.  0.
         25    1    3    3    0    0  0.61956982669E+02  0.16747034018E+02  0.16464901518E+03  0.21650851519E+03  0.12509000000E+03 0.  0.
<mgrwt>
<rscale>  2 0.42856623E+03</rscale>
<asrwt>0</asrwt>
<pdfrwt beam="1">  1       21 0.12709680E+00 0.42856623E+03</pdfrwt>
<pdfrwt beam="2">  1       21 0.78131016E-02 0.42856623E+03</pdfrwt>
<totfact> 0.52542496E+04</totfact>
</mgrwt>
</event>
<event>
 7    0  0.4737014E-002  0.4554331E+03  0.7546771E-02  0.1026114E+00
         21   -1    0    0  502  501  0.00000000000E+00  0.00000000000E+00  0.73205358487E+03  0.73205358487E+03  0.00000000000E+00 0. -1.
         21   -1    0    0  501  502 -0.00000000000E+00 -0.00000000000E+00 -0.70834743815E+02  0.70834743815E+02  0.00000000000E+00 0. -1.
      99926    2    1    2    0    0  0.00000000000E+00  0.14210854715E-13  0.66121884105E+03  0.80288832868E+03  0.45543310439E+03 0.  0.
      99925    2    3    3    0    0 -0.78219495029E+02  0.80981618421E+02  0.38623535719E+03  0.48049146700E+03  0.26271274578E+03 0.  0.
         25    1    4    4    0    0 -0.50276872632E+02  0.24636491693E+02  0.13214780346E+03  0.19038190750E+03  0.12509000000E+03 0.  0.
         25    1    3    3    0    0  0.78219495029E+02 -0.80981618421E+02  0.27498348386E+03  0.32239686168E+03  0.12509000000E+03 0.  0.
         25    1    4    4    0    0 -0.27942622398E+02  0.56345126728E+02  0.25408755374E+03  0.29010955951E+03  0.12509000000E+03 0.  0.
<mgrwt>
<rscale>  2 0.45543310E+03</rscale>
<asrwt>0</asrwt>
<pdfrwt beam="1">  1       21 0.10765493E+00 0.45543310E+03</pdfrwt>
<pdfrwt beam="2">  1       21 0.10416874E-01 0.45543310E+03</pdfrwt>
<totfact> 0.47463891E+04</totfact>
</mgrwt>
</event>
<event>
 7    0  0.4737014E-002  0.4543173E+03  0.7546771E-02  0.1026442E+00
         21   -1    0    0  502  501  0.00000000000E+00  0.00000000000E+00  0.12852039549E+03  0.12852039549E+03  0.00000000000E+00 0. -1.
         21   -1    0    0  501  502 -0.00000000000E+00 -0.00000000000E+00 -0.40150096846E+03  0.40150096846E+03  0.00000000000E+00 0. -1.
      99926    2    1    2    0    0 -0.14210854715E-13  0.00000000000E+00 -0.27298057298E+03  0.53002136395E+03  0.45431734836E+03 0.  0.
      99925    2    3    3    0    0 -0.10376530080E+03 -0.22108477182E+02 -0.12801592780E+03  0.31111892251E+03  0.26296555623E+03 0.  0.
         25    1    4    4    0    0 -0.54168972723E+02  0.15603925297E+02 -0.96832595578E+02  0.16793397440E+03  0.12509000000E+03 0.  0.
         25    1    3    3    0    0  0.10376530080E+03  0.22108477182E+02 -0.14496464518E+03  0.21890244144E+03  0.12509000000E+03 0.  0.
         25    1    4    4    0    0 -0.49596328075E+02 -0.37712402479E+02 -0.31183332217E+02  0.14318494812E+03  0.12509000000E+03 0.  0.
<mgrwt>
<rscale>  2 0.45431735E+03</rscale>
<asrwt>0</asrwt>
<pdfrwt beam="1">  1       21 0.18900058E-01 0.45431735E+03</pdfrwt>
<pdfrwt beam="2">  1       21 0.59044260E-01 0.45431735E+03</pdfrwt>
<totfact> 0.63548218E+04</totfact>
</mgrwt>
</event>
<event>
 7    0  0.4737014E-002  0.4552488E+03  0.7546771E-02  0.1026168E+00
         21   -1    0    0  502  501  0.00000000000E+00  0.00000000000E+00  0.23202785157E+03  0.23202785157E+03  0.00000000000E+00 0.  1.
         21   -1    0    0  501  502 -0.00000000000E+00 -0.00000000000E+00 -0.22330449891E+03  0.22330449891E+03  0.00000000000E+00 0.  1.
      99926    2    1    2    0    0  0.00000000000E+00  0.00000000000E+00  0.87233526652E+01  0.45533235048E+03  0.45524878091E+03 0.  0.
      99925    2    3    3    0    0  0.71361979684E+02 -0.64282952030E+02  0.65779771426E+02  0.28761898462E+03  0.26300736096E+03 0.  0.
         25    1    3    3    0    0 -0.71361979684E+02  0.64282952030E+02 -0.57056418761E+02  0.16771336586E+03  0.12509000000E+03 0.  0.
         25    1    4    4    0    0  0.66499424661E+02 -0.36136697388E+02  0.66894931407E+01  0.14635672788E+03  0.12509000000E+03 0.  0.
         25    1    4    4    0    0  0.48625550224E+01 -0.28146254642E+02  0.59090278285E+02  0.14126225674E+03  0.12509000000E+03 0.  0.
<mgrwt>
<rscale>  2 0.45524878E+03</rscale>
<asrwt>0</asrwt>
<pdfrwt beam="1">  1       21 0.34121743E-01 0.45524878E+03</pdfrwt>
<pdfrwt beam="2">  1       21 0.32838897E-01 0.45524878E+03</pdfrwt>
<totfact> 0.68385607E+04</totfact>
</mgrwt>
</event>
<event>
 6    0  0.4737014E-002  0.4793914E+03  0.7546771E-02  0.1019303E+00
         21   -1    0    0  502  501  0.00000000000E+00  0.00000000000E+00  0.78755445512E+03  0.78755445512E+03  0.00000000000E+00 0.  1.
         21   -1    0    0  501  502 -0.00000000000E+00 -0.00000000000E+00 -0.72952437030E+02  0.72952437030E+02  0.00000000000E+00 0.  1.
      99926    2    1    2    0    0  0.00000000000E+00  0.14210854715E-13  0.71460201809E+03  0.86050689215E+03  0.47939135075E+03 0.  0.
         25    1    3    3    0    0 -0.42266251907E+02  0.86063460063E+02  0.45204183982E+03  0.47873028759E+03  0.12509000000E+03 0.  0.
         25    1    3    3    0    0  0.29293478578E+02 -0.65135976391E+02  0.17714990835E+03  0.22832083006E+03  0.12509000000E+03 0.  0.
         25    1    3    3    0    0  0.12972773329E+02 -0.20927483672E+02  0.85410269911E+02  0.15345577450E+03  0.12509000000E+03 0.  0.
<mgrwt>
<rscale>  2 0.47939135E+03</rscale>
<asrwt>0</asrwt>
<pdfrwt beam="1">  1       21 0.11581683E+00 0.47939135E+03</pdfrwt>
<pdfrwt beam="2">  1       21 0.10728300E-01 0.47939135E+03</pdfrwt>
<totfact> 0.37306219E+04</totfact>
</mgrwt>
</event>
<event>
 7    0  0.4737014E-002  0.4537821E+03  0.7546771E-02  0.1026600E+00
         21   -1    0    0  502  501  0.00000000000E+00  0.00000000000E+00  0.29662088151E+03  0.29662088151E+03  0.00000000000E+00 0.  1.
         21   -1    0    0  501  502 -0.00000000000E+00 -0.00000000000E+00 -0.17355338731E+03  0.17355338731E+03  0.00000000000E+00 0.  1.
      99926    2    1    2    0    0  0.00000000000E+00 -0.71054273576E-14  0.12306749420E+03  0.47017426882E+03  0.45378214479E+03 0.  0.
      99925    2    3    3    0    0  0.57907858266E+02 -0.61935811784E+02  0.15288086112E+03  0.31614274680E+03  0.26340902381E+03 0.  0.
         25    1    3    3    0    0 -0.57907858266E+02  0.61935811784E+02 -0.29813366920E+02  0.15403152203E+03  0.12509000000E+03 0.  0.
         25    1    4    4    0    0  0.53416701762E+02 -0.39990568150E+01  0.53849454142E+02  0.14634414335E+03  0.12509000000E+03 0.  0.
         25    1    4    4    0    0  0.44911565038E+01 -0.57936754970E+02  0.99031406980E+02  0.16979860344E+03  0.12509000000E+03 0.  0.
<mgrwt>
<rscale>  2 0.45378214E+03</rscale>
<asrwt>0</asrwt>
<pdfrwt beam="1">  1       21 0.43620718E-01 0.45378214E+03</pdfrwt>
<pdfrwt beam="2">  1       21 0.25522557E-01 0.45378214E+03</pdfrwt>
<totfact> 0.68078131E+04</totfact>
</mgrwt>
</event>
<event>
 7    0  0.4737014E-002  0.4511371E+03  0.7546771E-02  0.1027383E+00
         21   -1    0    0  502  501  0.00000000000E+00  0.00000000000E+00  0.13082319724E+04  0.13082319724E+04  0.00000000000E+00 0.  1.
         21   -1    0    0  501  502 -0.00000000000E+00 -0.00000000000E+00 -0.38893084240E+02  0.38893084240E+02  0.00000000000E+00 0.  1.
      99926    2    1    2    0    0 -0.71054273576E-14 -0.14210854715E-13  0.12693388881E+04  0.13471250566E+04  0.45113712464E+03 0.  0.
      99925    2    3    3    0    0 -0.31933230982E+02 -0.82002366594E+02  0.99624180406E+03  0.10341176369E+04  0.26297801319E+03 0.  0.
         25    1    4    4    0    0  0.24314046860E+00 -0.62346214840E+02  0.62861915431E+03  0.64396945493E+03  0.12509000000E+03 0.  0.
         25    1    4    4    0    0 -0.32176371451E+02 -0.19656151754E+02  0.36762264975E+03  0.39014818197E+03  0.12509000000E+03 0.  0.
         25    1    3    3    0    0  0.31933230982E+02  0.82002366594E+02  0.27309708408E+03  0.31300741972E+03  0.12509000000E+03 0.  0.
<mgrwt>
<rscale>  2 0.45113712E+03</rscale>
<asrwt>0</asrwt>
<pdfrwt beam="1">  1       21 0.19238703E+00 0.45113712E+03</pdfrwt>
<pdfrwt beam="2">  1       21 0.57195721E-02 0.45113712E+03</pdfrwt>
<totfact> 0.28625666E+04</totfact>
</mgrwt>
</event>
<event>
 7    0  0.4737014E-002  0.4504829E+03  0.7546771E-02  0.1027578E+00
         21   -1    0    0  502  501  0.00000000000E+00  0.00000000000E+00  0.94646760657E+02  0.94646760657E+02  0.00000000000E+00 0.  1.
         21   -1    0    0  501  502 -0.00000000000E+00 -0.00000000000E+00 -0.53603217035E+03  0.53603217035E+03  0.00000000000E+00 0.  1.
      99926    2    1    2    0    0  0.00000000000E+00  0.00000000000E+00 -0.44138540969E+03  0.63067893100E+03  0.45048288994E+03 0.  0.
      99925    2    3    3    0    0  0.96282224520E+02 -0.45719683556E+02 -0.31005724601E+03  0.42030984844E+03  0.26299109618E+03 0.  0.
         25    1    4    4    0    0  0.54954851866E+02  0.15637166162E+02 -0.13387273872E+03  0.19192179392E+03  0.12509000000E+03 0.  0.
         25    1    4    4    0    0  0.41327372654E+02 -0.61356849718E+02 -0.17618450730E+03  0.22838805452E+03  0.12509000000E+03 0.  0.
         25    1    3    3    0    0 -0.96282224520E+02  0.45719683556E+02 -0.13132816368E+03  0.21036908256E+03  0.12509000000E+03 0.  0.
<mgrwt>
<rscale>  2 0.45048289E+03</rscale>
<asrwt>0</asrwt>
<pdfrwt beam="1">  1       21 0.13918642E-01 0.45048289E+03</pdfrwt>
<pdfrwt beam="2">  1       21 0.78828258E-01 0.45048289E+03</pdfrwt>
<totfact> 0.58900804E+04</totfact>
</mgrwt>
</event>
<event>
 7    0  0.4737014E-002  0.5043627E+03  0.7546771E-02  0.1012646E+00
         21   -1    0    0  502  501  0.00000000000E+00  0.00000000000E+00  0.10516221916E+03  0.10516221916E+03  0.00000000000E+00 0. -1.
         21   -1    0    0  501  502 -0.00000000000E+00 -0.00000000000E+00 -0.60473659798E+03  0.60473659798E+03  0.00000000000E+00 0. -1.
      99926    2    1    2    0    0  0.00000000000E+00  0.28421709430E-13 -0.49957437882E+03  0.70989881713E+03  0.50436273712E+03 0.  0.
      99925    2    3    3    0    0  0.55166703039E+02  0.13833196541E+03 -0.36220072075E+03  0.47178513040E+03  0.26308316058E+03 0.  0.
         25    1    4    4    0    0 -0.13881780336E+02  0.62579424533E+02 -0.17187403444E+03  0.22202945754E+03  0.12509000000E+03 0.  0.
         25    1    3    3    0    0 -0.55166703039E+02 -0.13833196541E+03 -0.13737365807E+03  0.23811368674E+03  0.12509000000E+03 0.  0.
         25    1    4    4    0    0  0.69048483375E+02  0.75752540875E+02 -0.19032668630E+03  0.24975567286E+03  0.12509000000E+03 0.  0.
<mgrwt>
<rscale>  2 0.50436274E+03</rscale>
<asrwt>0</asrwt>
<pdfrwt beam="1">  1       21 0.15465032E-01 0.50436274E+03</pdfrwt>
<pdfrwt beam="2">  1       21 0.88931854E-01 0.50436274E+03</pdfrwt>
<totfact> 0.36136601E+04</totfact>
</mgrwt>
</event>
<event>
 7    0  0.4737014E-002  0.4605355E+03  0.7546771E-02  0.1024626E+00
         21   -1    0    0  502  501  0.00000000000E+00  0.00000000000E+00  0.33614635395E+02  0.33614635395E+02  0.00000000000E+00 0.  1.
         21   -1    0    0  501  502 -0.00000000000E+00 -0.00000000000E+00 -0.15773853787E+04  0.15773853787E+04  0.00000000000E+00 0.  1.
      99926    2    1    2    0    0  0.00000000000E+00  0.14210854715E-13 -0.15437707433E+04  0.16110000141E+04  0.46053548998E+03 0.  0.
      99925    2    3    3    0    0 -0.62976283465E+02  0.96796108299E+02 -0.87791190415E+03  0.92372204948E+03  0.26305439436E+03 0.  0.
         25    1    3    3    0    0  0.62976283465E+02 -0.96796108299E+02 -0.66585883915E+03  0.68727796461E+03  0.12509000000E+03 0.  0.
         25    1    4    4    0    0 -0.18556131929E+02  0.66776399459E+02 -0.55863994313E+03  0.57665371907E+03  0.12509000000E+03 0.  0.
         25    1    4    4    0    0 -0.44420151536E+02  0.30019708840E+02 -0.31927196102E+03  0.34706833041E+03  0.12509000000E+03 0.  0.
<mgrwt>
<rscale>  2 0.46053549E+03</rscale>
<asrwt>0</asrwt>
<pdfrwt beam="1">  1       21 0.49433287E-02 0.46053549E+03</pdfrwt>
<pdfrwt beam="2">  1       21 0.23196844E+00 0.46053549E+03</pdfrwt>
<totfact> 0.20295891E+04</totfact>
</mgrwt>
</event>
<event>
 7    0  0.4737014E-002  0.4678955E+03  0.7546771E-02  0.1022516E+00
         21   -1    0    0  502  501  0.00000000000E+00  0.00000000000E+00  0.20370211234E+02  0.20370211234E+02  0.00000000000E+00 0. -1.
         21   -1    0    0  501  502 -0.00000000000E+00 -0.00000000000E+00 -0.26868420097E+04  0.26868420097E+04  0.00000000000E+00 0. -1.
      99926    2    1    2    0    0  0.00000000000E+00  0.00000000000E+00 -0.26664717985E+04  0.27072122210E+04  0.46789545538E+03 0.  0.
      99925    2    3    3    0    0 -0.42863231789E+02 -0.10888212866E+03 -0.19120226593E+04  0.19335626967E+04  0.26294767162E+03 0.  0.
         25    1    3    3    0    0  0.42863231789E+02  0.10888212866E+03 -0.75444913923E+03  0.77364952424E+03  0.12509000000E+03 0.  0.
         25    1    4    4    0    0 -0.39295887843E+02 -0.54970893333E+02 -0.73032036730E+03  0.74403045160E+03  0.12509000000E+03 0.  0.
         25    1    4    4    0    0 -0.35673439467E+01 -0.53911235328E+02 -0.11817022920E+04  0.11895322451E+04  0.12509000000E+03 0.  0.
<mgrwt>
<rscale>  2 0.46789546E+03</rscale>
<asrwt>0</asrwt>
<pdfrwt beam="1">  1       21 0.29956179E-02 0.46789546E+03</pdfrwt>
<pdfrwt beam="2">  1       21 0.39512401E+00 0.46789546E+03</pdfrwt>
<totfact> 0.47420629E+03</totfact>
</mgrwt>
</event>
<event>
 7    0  0.4737014E-002  0.4530301E+03  0.7546771E-02  0.1026822E+00
         21   -1    0    0  502  501  0.00000000000E+00  0.00000000000E+00  0.21899020826E+02  0.21899020826E+02  0.00000000000E+00 0.  1.
         21   -1    0    0  501  502 -0.00000000000E+00 -0.00000000000E+00 -0.23429850303E+04  0.23429850303E+04  0.00000000000E+00 0.  1.
      99926    2    1    2    0    0  0.00000000000E+00  0.00000000000E+00 -0.23210860095E+04  0.23648840511E+04  0.45303014458E+03 0.  0.
      99925    2    3    3    0    0 -0.71874140963E+02 -0.79933897428E+02 -0.16145102521E+04  0.16393138415E+04  0.26296615120E+03 0.  0.
         25    1    4    4    0    0 -0.58080851274E+02 -0.63812959881E+02 -0.10334420508E+04  0.10445551492E+04  0.12509000000E+03 0.  0.
         25    1    4    4    0    0 -0.13793289690E+02 -0.16120937547E+02 -0.58106820129E+03  0.59475869235E+03  0.12509000000E+03 0.  0.
         25    1    3    3    0    0  0.71874140963E+02  0.79933897428E+02 -0.70657575738E+03  0.72557020964E+03  0.12509000000E+03 0.  0.
<mgrwt>
<rscale>  2 0.45303014E+03</rscale>
<asrwt>0</asrwt>
<pdfrwt beam="1">  1       21 0.32204441E-02 0.45303014E+03</pdfrwt>
<pdfrwt beam="2">  1       21 0.34455664E+00 0.45303014E+03</pdfrwt>
<totfact> 0.87480526E+03</totfact>
</mgrwt>
</event>
<event>
 7    0  0.4737014E-002  0.4513441E+03  0.7546771E-02  0.1027322E+00
         21   -1    0    0  502  501  0.00000000000E+00  0.00000000000E+00  0.41662972810E+03  0.41662972810E+03  0.00000000000E+00 0. -1.
         21   -1    0    0  501  502 -0.00000000000E+00 -0.00000000000E+00 -0.12223770924E+03  0.12223770924E+03  0.00000000000E+00 0. -1.
      99926    2    1    2    0    0  0.00000000000E+00 -0.88817841970E-15  0.29439201886E+03  0.53886743734E+03  0.45134405309E+03 0.  0.
      99925    2    3    3    0    0  0.71436575721E+02 -0.65128932534E+01  0.86994845143E+02  0.28626756027E+03  0.26312622608E+03 0.  0.
         25    1    4    4    0    0  0.27381064521E+02  0.34122545976E+01  0.84112499403E+02  0.15324420652E+03  0.12509000000E+03 0.  0.
         25    1    3    3    0    0 -0.71436575721E+02  0.65128932534E+01  0.20739717372E+03  0.25259987707E+03  0.12509000000E+03 0.  0.
         25    1    4    4    0    0  0.44055511200E+02 -0.99251478510E+01  0.28823457410E+01  0.13302335375E+03  0.12509000000E+03 0.  0.
<mgrwt>
<rscale>  2 0.45134405E+03</rscale>
<asrwt>0</asrwt>
<pdfrwt beam="1">  1       21 0.61269077E-01 0.45134405E+03</pdfrwt>
<pdfrwt beam="2">  1       21 0.17976134E-01 0.45134405E+03</pdfrwt>
<totfact> 0.64452913E+04</totfact>
</mgrwt>
</event>
<event>
 7    0  0.4737014E-002  0.4450964E+03  0.7546771E-02  0.1029195E+00
         21   -1    0    0  502  501  0.00000000000E+00  0.00000000000E+00  0.11044333791E+04  0.11044333791E+04  0.00000000000E+00 0. -1.
         21   -1    0    0  501  502 -0.00000000000E+00 -0.00000000000E+00 -0.44844449847E+02  0.44844449847E+02  0.00000000000E+00 0. -1.
      99926    2    1    2    0    0  0.00000000000E+00  0.00000000000E+00  0.10595889292E+04  0.11492778289E+04  0.44509642675E+03 0.  0.
      99925    2    3    3    0    0 -0.62848132927E+02 -0.81059672219E+02  0.63529577377E+03  0.69519331240E+03  0.26300658389E+03 0.  0.
         25    1    4    4    0    0 -0.23865715440E+02 -0.81945287439E+01  0.22954788873E+03  0.26263370689E+03  0.12509000000E+03 0.  0.
         25    1    4    4    0    0 -0.38982417487E+02 -0.72865143475E+02  0.40574788503E+03  0.43255960551E+03  0.12509000000E+03 0.  0.
         25    1    3    3    0    0  0.62848132927E+02  0.81059672219E+02  0.42429315544E+03  0.45408451650E+03  0.12509000000E+03 0.  0.
<mgrwt>
<rscale>  2 0.44509643E+03</rscale>
<asrwt>0</asrwt>
<pdfrwt beam="1">  1       21 0.16241666E+00 0.44509643E+03</pdfrwt>
<pdfrwt beam="2">  1       21 0.65947727E-02 0.44509643E+03</pdfrwt>
<totfact> 0.36546947E+04</totfact>
</mgrwt>
</event>
<event>
 7    0  0.4737014E-002  0.4590098E+03  0.7546771E-02  0.1025069E+00
         21   -1    0    0  502  501  0.00000000000E+00  0.00000000000E+00  0.21550352261E+03  0.21550352261E+03  0.00000000000E+00 0. -1.
         21   -1    0    0  501  502 -0.00000000000E+00 -0.00000000000E+00 -0.24441599705E+03  0.24441599705E+03  0.00000000000E+00 0. -1.
      99926    2    1    2    0    0  0.00000000000E+00  0.00000000000E+00 -0.28912474444E+02  0.45991951966E+03  0.45900984018E+03 0.  0.
      99925    2    3    3    0    0  0.74614157247E+02  0.56493711819E+02  0.52156147114E+02  0.28391258389E+03  0.26292067183E+03 0.  0.
         25    1    3    3    0    0 -0.74614157247E+02 -0.56493711819E+02 -0.81068621558E+02  0.17600693577E+03  0.12509000000E+03 0.  0.
         25    1    4    4    0    0  0.16797253741E+02  0.18818517095E+02 -0.10240458211E+02  0.12801819950E+03  0.12509000000E+03 0.  0.
         25    1    4    4    0    0  0.57816903506E+02  0.37675194723E+02  0.62396605325E+02  0.15589438439E+03  0.12509000000E+03 0.  0.
<mgrwt>
<rscale>  2 0.45900984E+03</rscale>
<asrwt>0</asrwt>
<pdfrwt beam="1">  1       21 0.31691695E-01 0.45900984E+03</pdfrwt>
<pdfrwt beam="2">  1       21 0.35943529E-01 0.45900984E+03</pdfrwt>
<totfact> 0.66048359E+04</totfact>
</mgrwt>
</event>
<event>
 7    0  0.4737014E-002  0.4521891E+03  0.7546771E-02  0.1027071E+00
         21   -1    0    0  502  501  0.00000000000E+00  0.00000000000E+00  0.68265008956E+02  0.68265008956E+02  0.00000000000E+00 0.  1.
         21   -1    0    0  501  502 -0.00000000000E+00 -0.00000000000E+00 -0.74882781870E+03  0.74882781870E+03  0.00000000000E+00 0.  1.
      99926    2    1    2    0    0  0.00000000000E+00  0.00000000000E+00 -0.68056280975E+03  0.81709282766E+03  0.45218906555E+03 0.  0.
      99925    2    3    3    0    0 -0.15936702155E+01  0.74275764649E+01 -0.62853044636E+03  0.68139985210E+03  0.26305422969E+03 0.  0.
         25    1    4    4    0    0  0.12788922827E+02  0.15394801753E+02 -0.40931681867E+03  0.42847207915E+03  0.12509000000E+03 0.  0.
         25    1    3    3    0    0  0.15936702155E+01 -0.74275764649E+01 -0.52032363386E+02  0.13569297556E+03  0.12509000000E+03 0.  0.
         25    1    4    4    0    0 -0.14382593043E+02 -0.79672252882E+01 -0.21921362769E+03  0.25292777295E+03  0.12509000000E+03 0.  0.
<mgrwt>
<rscale>  2 0.45218907E+03</rscale>
<asrwt>0</asrwt>
<pdfrwt beam="1">  1       21 0.10038972E-01 0.45218907E+03</pdfrwt>
<pdfrwt beam="2">  1       21 0.11012174E+00 0.45218907E+03</pdfrwt>
<totfact> 0.47999131E+04</totfact>
</mgrwt>
</event>
<event>
 7    0  0.4737014E-002  0.4595610E+03  0.7546771E-02  0.1024909E+00
         21   -1    0    0  502  501  0.00000000000E+00  0.00000000000E+00  0.80473432879E+03  0.80473432879E+03  0.00000000000E+00 0.  1.
         21   -1    0    0  501  502 -0.00000000000E+00 -0.00000000000E+00 -0.65610577456E+02  0.65610577456E+02  0.00000000000E+00 0.  1.
      99926    2    1    2    0    0 -0.17763568394E-14 -0.35527136788E-14  0.73912375134E+03  0.87034490625E+03  0.45956102537E+03 0.  0.
      99925    2    3    3    0    0 -0.13731652779E+02  0.17837178062E+02  0.24508312661E+03  0.36021710835E+03  0.26302833115E+03 0.  0.
         25    1    3    3    0    0  0.13731652779E+02 -0.17837178062E+02  0.49404062473E+03  0.51012779790E+03  0.12509000000E+03 0.  0.
         25    1    4    4    0    0 -0.29471087683E+02 -0.17698200363E+02  0.15023904314E+03  0.19849697602E+03  0.12509000000E+03 0.  0.
         25    1    4    4    0    0  0.15739434904E+02  0.35535378425E+02  0.94844083464E+02  0.16172013232E+03  0.12509000000E+03 0.  0.
<mgrwt>
<rscale>  2 0.45956103E+03</rscale>
<asrwt>0</asrwt>
<pdfrwt beam="1">  1       21 0.11834328E+00 0.45956103E+03</pdfrwt>
<pdfrwt beam="2">  1       21 0.96486148E-02 0.45956103E+03</pdfrwt>
<totfact> 0.42984082E+04</totfact>
</mgrwt>
</event>
<event>
 7    0  0.4737014E-002  0.4557231E+03  0.7546771E-02  0.1026029E+00
         21   -1    0    0  502  501  0.00000000000E+00  0.00000000000E+00  0.14620723953E+03  0.14620723953E+03  0.00000000000E+00 0. -1.
         21   -1    0    0  501  502 -0.00000000000E+00 -0.00000000000E+00 -0.35511845475E+03  0.35511845475E+03  0.00000000000E+00 0. -1.
      99926    2    1    2    0    0  0.00000000000E+00 -0.35527136788E-14 -0.20891121521E+03  0.50132569428E+03  0.45572311320E+03 0.  0.
      99925    2    3    3    0    0  0.55091618940E+02  0.21680993723E+02 -0.24251440380E+02  0.27056197853E+03  0.26288875955E+03 0.  0.
         25    1    4    4    0    0  0.24523500510E+02  0.11739516561E+02  0.28341152338E+02  0.13111043949E+03  0.12509000000E+03 0.  0.
         25    1    3    3    0    0 -0.55091618940E+02 -0.21680993723E+02 -0.18465977483E+03  0.23076371575E+03  0.12509000000E+03 0.  0.
         25    1    4    4    0    0  0.30568118430E+02  0.99414771625E+01 -0.52592592718E+02  0.13945153904E+03  0.12509000000E+03 0.  0.
<mgrwt>
<rscale>  2 0.45572311E+03</rscale>
<asrwt>0</asrwt>
<pdfrwt beam="1">  1       21 0.21501065E-01 0.45572311E+03</pdfrwt>
<pdfrwt beam="2">  1       21 0.52223302E-01 0.45572311E+03</pdfrwt>
<totfact> 0.64804847E+04</totfact>
</mgrwt>
</event>
<event>
 7    0  0.4737014E-002  0.5009983E+03  0.7546771E-02  0.1013519E+00
         21   -1    0    0  502  501  0.00000000000E+00  0.00000000000E+00  0.19848800775E+03  0.19848800775E+03  0.00000000000E+00 0.  1.
         21   -1    0    0  501  502 -0.00000000000E+00 -0.00000000000E+00 -0.31613914300E+03  0.31613914300E+03  0.00000000000E+00 0.  1.
      99926    2    1    2    0    0 -0.15543122345E-14  0.00000000000E+00 -0.11765113524E+03  0.51462715075E+03  0.50099831803E+03 0.  0.
      99925    2    3    3    0    0  0.11410003433E+01  0.11952115652E+03 -0.16833524057E+03  0.33434127951E+03  0.26298427562E+03 0.  0.
         25    1    4    4    0    0 -0.26210174128E+02  0.79880702352E+02 -0.11702733078E+03  0.19081615258E+03  0.12509000000E+03 0.  0.
         25    1    3    3    0    0 -0.11410003433E+01 -0.11952115652E+03  0.50684105329E+02  0.18028587125E+03  0.12509000000E+03 0.  0.
         25    1    4    4    0    0  0.27351174471E+02  0.39640454171E+02 -0.51307909796E+02  0.14352512693E+03  0.12509000000E+03 0.  0.
<mgrwt>
<rscale>  2 0.50099832E+03</rscale>
<asrwt>0</asrwt>
<pdfrwt beam="1">  1       21 0.29189413E-01 0.50099832E+03</pdfrwt>
<pdfrwt beam="2">  1       21 0.46491050E-01 0.50099832E+03</pdfrwt>
<totfact> 0.45305321E+04</totfact>
</mgrwt>
</event>
<event>
 7    0  0.4737014E-002  0.4625409E+03  0.7546771E-02  0.1024047E+00
         21   -1    0    0  502  501  0.00000000000E+00  0.00000000000E+00  0.94432476159E+02  0.94432476159E+02  0.00000000000E+00 0.  1.
         21   -1    0    0  501  502 -0.00000000000E+00 -0.00000000000E+00 -0.56639445631E+03  0.56639445631E+03  0.00000000000E+00 0.  1.
      99926    2    1    2    0    0 -0.35527136788E-14  0.00000000000E+00 -0.47196198016E+03  0.66082693247E+03  0.46254094302E+03 0.  0.
      99925    2    3    3    0    0  0.22612687158E+02  0.11799644562E+03 -0.29232453348E+03  0.41112387853E+03  0.26293481288E+03 0.  0.
         25    1    4    4    0    0  0.15818269492E+01  0.41120324231E+02 -0.18903209991E+03  0.23037800706E+03  0.12509000000E+03 0.  0.
         25    1    4    4    0    0  0.21030860209E+02  0.76876121389E+02 -0.10329243357E+03  0.18074587147E+03  0.12509000000E+03 0.  0.
         25    1    3    3    0    0 -0.22612687158E+02 -0.11799644562E+03 -0.17963744667E+03  0.24970305394E+03  0.12509000000E+03 0.  0.
<mgrwt>
<rscale>  2 0.46254094E+03</rscale>
<asrwt>0</asrwt>
<pdfrwt beam="1">  1       21 0.13887129E-01 0.46254094E+03</pdfrwt>
<pdfrwt beam="2">  1       21 0.83293303E-01 0.46254094E+03</pdfrwt>
<totfact> 0.51924176E+04</totfact>
</mgrwt>
</event>
<event>
 7    0  0.4737014E-002  0.4322921E+03  0.7546771E-02  0.1033138E+00
         21   -1    0    0  502  501  0.00000000000E+00  0.00000000000E+00  0.72374232932E+03  0.72374232932E+03  0.00000000000E+00 0.  1.
         21   -1    0    0  501  502 -0.00000000000E+00 -0.00000000000E+00 -0.64552152313E+02  0.64552152313E+02  0.00000000000E+00 0.  1.
      99926    2    1    2    0    0  0.35527136788E-14  0.00000000000E+00  0.65919017700E+03  0.78829448163E+03  0.43229214695E+03 0.  0.
      99925    2    3    3    0    0 -0.17239108257E+02  0.87424509569E+02  0.44873918684E+03  0.52776164476E+03  0.26310694432E+03 0.  0.
         25    1    4    4    0    0 -0.49401891041E+02  0.45010576944E+02  0.23216027941E+03  0.27205220512E+03  0.12509000000E+03 0.  0.
         25    1    3    3    0    0  0.17239108257E+02 -0.87424509569E+02  0.21045099016E+03  0.26053283687E+03  0.12509000000E+03 0.  0.
         25    1    4    4    0    0  0.32162782784E+02  0.42413932625E+02  0.21657890744E+03  0.25570943964E+03  0.12509000000E+03 0.  0.
<mgrwt>
<rscale>  2 0.43229215E+03</rscale>
<asrwt>0</asrwt>
<pdfrwt beam="1">  1       21 0.10643269E+00 0.43229215E+03</pdfrwt>
<pdfrwt beam="2">  1       21 0.94929640E-02 0.43229215E+03</pdfrwt>
<totfact> 0.58003752E+04</totfact>
</mgrwt>
</event>
<event>
 7    0  0.4737014E-002  0.4725786E+03  0.7546771E-02  0.1021195E+00
         21   -1    0    0  502  501  0.00000000000E+00  0.00000000000E+00  0.10421845249E+04  0.10421845249E+04  0.00000000000E+00 0.  1.
         21   -1    0    0  501  502 -0.00000000000E+00 -0.00000000000E+00 -0.53572696993E+02  0.53572696993E+02  0.00000000000E+00 0.  1.
      99926    2    1    2    0    0  0.00000000000E+00 -0.35527136788E-14  0.98861182791E+03  0.10957572219E+04  0.47257861045E+03 0.  0.
      99925    2    3    3    0    0 -0.10885510289E+03 -0.21367548417E+02  0.46066819831E+03  0.54197207431E+03  0.26308275285E+03 0.  0.
         25    1    4    4    0    0 -0.64404856233E+02 -0.50388856268E+02  0.25085005778E+03  0.29199363338E+03  0.12509000000E+03 0.  0.
         25    1    4    4    0    0 -0.44450246660E+02  0.29021307852E+02  0.20981814052E+03  0.24997844093E+03  0.12509000000E+03 0.  0.
         25    1    3    3    0    0  0.10885510289E+03  0.21367548417E+02  0.52794362960E+03  0.55378514759E+03  0.12509000000E+03 0.  0.
<mgrwt>
<rscale>  2 0.47257861E+03</rscale>
<asrwt>0</asrwt>
<pdfrwt beam="1">  1       21 0.15326242E+00 0.47257861E+03</pdfrwt>
<pdfrwt beam="2">  1       21 0.78783385E-02 0.47257861E+03</pdfrwt>
<totfact> 0.31145983E+04</totfact>
</mgrwt>
</event>
<event>
 7    0  0.4737014E-002  0.4290888E+03  0.7546771E-02  0.1034148E+00
         21   -1    0    0  502  501  0.00000000000E+00  0.00000000000E+00  0.33268737270E+02  0.33268737270E+02  0.00000000000E+00 0. -1.
         21   -1    0    0  501  502 -0.00000000000E+00 -0.00000000000E+00 -0.13835600071E+04  0.13835600071E+04  0.00000000000E+00 0. -1.
      99926    2    1    2    0    0  0.00000000000E+00  0.00000000000E+00 -0.13502912698E+04  0.14168287444E+04  0.42908877578E+03 0.  0.
      99925    2    3    3    0    0 -0.28650556870E+02  0.80803895274E+02 -0.81643859311E+03  0.86185458962E+03  0.26243329329E+03 0.  0.
         25    1    4    4    0    0 -0.34752981189E+02  0.68175491503E+02 -0.36965936406E+03  0.39768231150E+03  0.12509000000E+03 0.  0.
         25    1    4    4    0    0  0.61024243197E+01  0.12628403772E+02 -0.44677922905E+03  0.46417227812E+03  0.12509000000E+03 0.  0.
         25    1    3    3    0    0  0.28650556870E+02 -0.80803895274E+02 -0.53385267673E+03  0.55497415476E+03  0.12509000000E+03 0.  0.
<mgrwt>
<rscale>  2 0.42908878E+03</rscale>
<asrwt>0</asrwt>
<pdfrwt beam="1">  1       21 0.48924623E-02 0.42908878E+03</pdfrwt>
<pdfrwt beam="2">  1       21 0.20346467E+00 0.42908878E+03</pdfrwt>
<totfact> 0.31829756E+04</totfact>
</mgrwt>
</event>
<event>
 7    0  0.4737014E-002  0.4520625E+03  0.7546771E-02  0.1027109E+00
         21   -1    0    0  502  501  0.00000000000E+00  0.00000000000E+00  0.40807626847E+02  0.40807626847E+02  0.00000000000E+00 0.  1.
         21   -1    0    0  501  502 -0.00000000000E+00 -0.00000000000E+00 -0.12519746879E+04  0.12519746879E+04  0.00000000000E+00 0.  1.
      99926    2    1    2    0    0  0.00000000000E+00  0.00000000000E+00 -0.12111670610E+04  0.12927823147E+04  0.45206245535E+03 0.  0.
      99925    2    3    3    0    0 -0.49569410004E+02 -0.43279714186E+02 -0.10178422589E+04  0.10532990224E+04  0.26287964277E+03 0.  0.
         25    1    3    3    0    0  0.49569410004E+02  0.43279714186E+02 -0.19332480211E+03  0.23948329227E+03  0.12509000000E+03 0.  0.
         25    1    4    4    0    0 -0.17115395487E+02 -0.12360266576E+02 -0.64823604216E+03  0.66053250292E+03  0.12509000000E+03 0.  0.
         25    1    4    4    0    0 -0.32454014518E+02 -0.30919447610E+02 -0.36960621676E+03  0.39276651953E+03  0.12509000000E+03 0.  0.
<mgrwt>
<rscale>  2 0.45206246E+03</rscale>
<asrwt>0</asrwt>
<pdfrwt beam="1">  1       21 0.60011232E-02 0.45206246E+03</pdfrwt>
<pdfrwt beam="2">  1       21 0.18411387E+00 0.45206246E+03</pdfrwt>
<totfact> 0.30004738E+04</totfact>
</mgrwt>
</event>
<event>
 7    0  0.4737014E-002  0.4825579E+03  0.7546771E-02  0.1018435E+00
         21   -1    0    0  502  501  0.00000000000E+00  0.00000000000E+00  0.93216208131E+03  0.93216208131E+03  0.00000000000E+00 0. -1.
         21   -1    0    0  501  502 -0.00000000000E+00 -0.00000000000E+00 -0.62452155786E+02  0.62452155786E+02  0.00000000000E+00 0. -1.
      99926    2    1    2    0    0  0.00000000000E+00 -0.35527136788E-14  0.86970992553E+03  0.99461423710E+03  0.48255789920E+03 0.  0.
      99925    2    3    3    0    0 -0.85876865545E+02  0.28010457250E+02  0.74850779961E+03  0.79840800586E+03  0.26273940700E+03 0.  0.
         25    1    4    4    0    0 -0.46817151997E+02  0.44953977714E+02  0.31227192556E+03  0.34259884621E+03  0.12509000000E+03 0.  0.
         25    1    4    4    0    0 -0.39059713548E+02 -0.16943520464E+02  0.43623587405E+03  0.45580915965E+03  0.12509000000E+03 0.  0.
         25    1    3    3    0    0  0.85876865545E+02 -0.28010457250E+02  0.12120212592E+03  0.19620623124E+03  0.12509000000E+03 0.  0.
<mgrwt>
<rscale>  2 0.48255790E+03</rscale>
<asrwt>0</asrwt>
<pdfrwt beam="1">  1       21 0.13708265E+00 0.48255790E+03</pdfrwt>
<pdfrwt beam="2">  1       21 0.91841411E-02 0.48255790E+03</pdfrwt>
<totfact> 0.31928739E+04</totfact>
</mgrwt>
</event>
<event>
 7    0  0.4737014E-002  0.4688405E+03  0.7546771E-02  0.1022248E+00
         21   -1    0    0  502  501  0.00000000000E+00  0.00000000000E+00  0.32204681583E+02  0.32204681583E+02  0.00000000000E+00 0. -1.
         21   -1    0    0  501  502 -0.00000000000E+00 -0.00000000000E+00 -0.17063622699E+04  0.17063622699E+04  0.00000000000E+00 0. -1.
      99926    2    1    2    0    0  0.00000000000E+00  0.00000000000E+00 -0.16741575883E+04  0.17385669515E+04  0.46884049982E+03 0.  0.
      99925    2    3    3    0    0  0.93161146234E+01 -0.66517104046E+02 -0.14351020903E+04  0.14605267487E+04  0.26288601905E+03 0.  0.
         25    1    3    3    0    0 -0.93161146234E+01  0.66517104046E+02 -0.23905549802E+03  0.27804020277E+03  0.12509000000E+03 0.  0.
         25    1    4    4    0    0 -0.36123977329E+00  0.78678512218E+01 -0.64026293254E+03  0.65241563781E+03  0.12509000000E+03 0.  0.
         25    1    4    4    0    0  0.96773543967E+01 -0.74384955268E+02 -0.79483915779E+03  0.80811111093E+03  0.12509000000E+03 0.  0.
<mgrwt>
<rscale>  2 0.46884050E+03</rscale>
<asrwt>0</asrwt>
<pdfrwt beam="1">  1       21 0.47359818E-02 0.46884050E+03</pdfrwt>
<pdfrwt beam="2">  1       21 0.25093567E+00 0.46884050E+03</pdfrwt>
<totfact> 0.16612359E+04</totfact>
</mgrwt>
</event>
<event>
 7    0  0.4737014E-002  0.4538703E+03  0.7546771E-02  0.1026574E+00
         21   -1    0    0  502  501  0.00000000000E+00  0.00000000000E+00  0.61150029921E+02  0.61150029921E+02  0.00000000000E+00 0. -1.
         21   -1    0    0  501  502 -0.00000000000E+00 -0.00000000000E+00 -0.84218372355E+03  0.84218372355E+03  0.00000000000E+00 0. -1.
      99926    2    1    2    0    0  0.00000000000E+00 -0.17763568394E-14 -0.78103369363E+03  0.90333375347E+03  0.45387028937E+03 0.  0.
      99925    2    3    3    0    0 -0.10885021994E+03  0.15545019005E+02 -0.53561385311E+03  0.60673903973E+03  0.26298297415E+03 0.  0.
         25    1    4    4    0    0 -0.26146893210E+02  0.32579180010E+01 -0.18163757941E+03  0.22211256698E+03  0.12509000000E+03 0.  0.
         25    1    4    4    0    0 -0.82703326733E+02  0.12287101004E+02 -0.35397627370E+03  0.38462647276E+03  0.12509000000E+03 0.  0.
         25    1    3    3    0    0  0.10885021994E+03 -0.15545019005E+02 -0.24541984052E+03  0.29659471374E+03  0.12509000000E+03 0.  0.
<mgrwt>
<rscale>  2 0.45387029E+03</rscale>
<asrwt>0</asrwt>
<pdfrwt beam="1">  1       21 0.89926523E-02 0.45387029E+03</pdfrwt>
<pdfrwt beam="2">  1       21 0.12385054E+00 0.45387029E+03</pdfrwt>
<totfact> 0.43473104E+04</totfact>
</mgrwt>
</event>
<event>
 7    0  0.4737014E-002  0.4547773E+03  0.7546771E-02  0.1026307E+00
         21   -1    0    0  502  501  0.00000000000E+00  0.00000000000E+00  0.98361853202E+02  0.98361853202E+02  0.00000000000E+00 0. -1.
         21   -1    0    0  501  502 -0.00000000000E+00 -0.00000000000E+00 -0.52566715873E+03  0.52566715873E+03  0.00000000000E+00 0. -1.
      99926    2    1    2    0    0  0.00000000000E+00  0.00000000000E+00 -0.42730530552E+03  0.62402901193E+03  0.45477729011E+03 0.  0.
      99925    2    3    3    0    0  0.58159170452E+02  0.90375066085E+02 -0.22149205200E+03  0.36029288414E+03  0.26306290423E+03 0.  0.
         25    1    4    4    0    0  0.50507319433E+02  0.68747351163E+02 -0.84596779653E+02  0.17343964609E+03  0.12509000000E+03 0.  0.
         25    1    3    3    0    0 -0.58159170452E+02 -0.90375066085E+02 -0.20581325352E+03  0.26373612779E+03  0.12509000000E+03 0.  0.
         25    1    4    4    0    0  0.76518510189E+01  0.21627714922E+02 -0.13689527235E+03  0.18685323805E+03  0.12509000000E+03 0.  0.
<mgrwt>
<rscale>  2 0.45477729E+03</rscale>
<asrwt>0</asrwt>
<pdfrwt beam="1">  1       21 0.14464979E-01 0.45477729E+03</pdfrwt>
<pdfrwt beam="2">  1       21 0.77303993E-01 0.45477729E+03</pdfrwt>
<totfact> 0.57323803E+04</totfact>
</mgrwt>
</event>
<event>
 7    0  0.4737014E-002  0.4438935E+03  0.7546771E-02  0.1029559E+00
         21   -1    0    0  502  501  0.00000000000E+00  0.00000000000E+00  0.18520758293E+03  0.18520758293E+03  0.00000000000E+00 0. -1.
         21   -1    0    0  501  502 -0.00000000000E+00 -0.00000000000E+00 -0.26597377960E+03  0.26597377960E+03  0.00000000000E+00 0. -1.
      99926    2    1    2    0    0  0.00000000000E+00 -0.88817841970E-15 -0.80766196674E+02  0.45118136252E+03  0.44389350453E+03 0.  0.
      99925    2    3    3    0    0  0.10009224729E+03 -0.45082869094E+01 -0.29259190071E+02  0.28283866905E+03  0.26287417121E+03 0.  0.
         25    1    4    4    0    0  0.66551068884E+02 -0.19273790405E+02 -0.48672631816E+02  0.15105315936E+03  0.12509000000E+03 0.  0.
         25    1    4    4    0    0  0.33541178402E+02  0.14765503495E+02  0.19413441745E+02  0.13178550968E+03  0.12509000000E+03 0.  0.
         25    1    3    3    0    0 -0.10009224729E+03  0.45082869094E+01 -0.51507006604E+02  0.16834269348E+03  0.12509000000E+03 0.  0.
<mgrwt>
<rscale>  2 0.44389350E+03</rscale>
<asrwt>0</asrwt>
<pdfrwt beam="1">  1       21 0.27236409E-01 0.44389350E+03</pdfrwt>
<pdfrwt beam="2">  1       21 0.39113791E-01 0.44389350E+03</pdfrwt>
<totfact> 0.75277140E+04</totfact>
</mgrwt>
</event>
<event>
 7    0  0.4737014E-002  0.4507743E+03  0.7546771E-02  0.1027491E+00
         21   -1    0    0  502  501  0.00000000000E+00  0.00000000000E+00  0.45368359267E+03  0.45368359267E+03  0.00000000000E+00 0. -1.
         21   -1    0    0  501  502 -0.00000000000E+00 -0.00000000000E+00 -0.11197089636E+03  0.11197089636E+03  0.00000000000E+00 0. -1.
      99926    2    1    2    0    0 -0.35527136788E-14  0.00000000000E+00  0.34171269631E+03  0.56565448903E+03  0.45077426074E+03 0.  0.
      99925    2    3    3    0    0  0.16076294678E+02  0.45168007595E+02  0.33890902829E+03  0.43166208322E+03  0.26300993987E+03 0.  0.
         25    1    3    3    0    0 -0.16076294678E+02 -0.45168007595E+02  0.28036680168E+01  0.13399240581E+03  0.12509000000E+03 0.  0.
         25    1    4    4    0    0 -0.27655602367E+02  0.20391190840E+02  0.19746983578E+03  0.23626780811E+03  0.12509000000E+03 0.  0.
         25    1    4    4    0    0  0.43731897045E+02  0.24776816755E+02  0.14143919251E+03  0.19539427511E+03  0.12509000000E+03 0.  0.
<mgrwt>
<rscale>  2 0.45077426E+03</rscale>
<asrwt>0</asrwt>
<pdfrwt beam="1">  1       21 0.66718175E-01 0.45077426E+03</pdfrwt>
<pdfrwt beam="2">  1       21 0.16466308E-01 0.45077426E+03</pdfrwt>
<totfact> 0.62920323E+04</totfact>
</mgrwt>
</event>
<event>
 7    0  0.4737014E-002  0.4603462E+03  0.7546771E-02  0.1024681E+00
         21   -1    0    0  502  501  0.00000000000E+00  0.00000000000E+00  0.77096523890E+02  0.77096523890E+02  0.00000000000E+00 0.  1.
         21   -1    0    0  501  502 -0.00000000000E+00 -0.00000000000E+00 -0.68718603386E+03  0.68718603386E+03  0.00000000000E+00 0.  1.
      99926    2    1    2    0    0 -0.35527136788E-14  0.00000000000E+00 -0.61008950997E+03  0.76428255775E+03  0.46034619354E+03 0.  0.
      99925    2    3    3    0    0  0.27612040155E+02  0.54937604609E+02 -0.21441686208E+03  0.34477699455E+03  0.26289925840E+03 0.  0.
         25    1    3    3    0    0 -0.27612040155E+02 -0.54937604609E+02 -0.39567264790E+03  0.41950556320E+03  0.12509000000E+03 0.  0.
         25    1    4    4    0    0 -0.14609549512E+02  0.56101161970E+02 -0.11409008559E+03  0.17895484078E+03  0.12509000000E+03 0.  0.
         25    1    4    4    0    0  0.42221589667E+02 -0.11635573603E+01 -0.10032677649E+03  0.16582215377E+03  0.12509000000E+03 0.  0.
<mgrwt>
<rscale>  2 0.46034619E+03</rscale>
<asrwt>0</asrwt>
<pdfrwt beam="1">  1       21 0.11337724E-01 0.46034619E+03</pdfrwt>
<pdfrwt beam="2">  1       21 0.10105677E+00 0.46034619E+03</pdfrwt>
<totfact> 0.47514830E+04</totfact>
</mgrwt>
</event>
<event>
 7    0  0.4737014E-002  0.4558426E+03  0.7546771E-02  0.1025994E+00
         21   -1    0    0  502  501  0.00000000000E+00  0.00000000000E+00  0.13507302162E+03  0.13507302162E+03  0.00000000000E+00 0. -1.
         21   -1    0    0  501  502 -0.00000000000E+00 -0.00000000000E+00 -0.38459289085E+03  0.38459289085E+03  0.00000000000E+00 0. -1.
      99926    2    1    2    0    0  0.00000000000E+00 -0.17763568394E-14 -0.24951986923E+03  0.51966591246E+03  0.45584262135E+03 0.  0.
      99925    2    3    3    0    0  0.12166884800E+02  0.67107432929E+01 -0.28143810329E+02  0.26501333597E+03  0.26314810852E+03 0.  0.
         25    1    4    4    0    0  0.20332572668E+02  0.29523630283E+02 -0.42267544565E+02  0.13681780469E+03  0.12509000000E+03 0.  0.
         25    1    3    3    0    0 -0.12166884800E+02 -0.67107432929E+01 -0.22137605890E+03  0.25465257649E+03  0.12509000000E+03 0.  0.
         25    1    4    4    0    0 -0.81656878679E+01 -0.22812886990E+02  0.14123734236E+02  0.12819553128E+03  0.12509000000E+03 0.  0.
<mgrwt>
<rscale>  2 0.45584262E+03</rscale>
<asrwt>0</asrwt>
<pdfrwt beam="1">  1       21 0.19863680E-01 0.45584262E+03</pdfrwt>
<pdfrwt beam="2">  1       21 0.56557778E-01 0.45584262E+03</pdfrwt>
<totfact> 0.63484558E+04</totfact>
</mgrwt>
</event>
<event>
 7    0  0.4737014E-002  0.4772466E+03  0.7546771E-02  0.1019895E+00
         21   -1    0    0  502  501  0.00000000000E+00  0.00000000000E+00  0.30390114937E+03  0.30390114937E+03  0.00000000000E+00 0. -1.
         21   -1    0    0  501  502 -0.00000000000E+00 -0.00000000000E+00 -0.18736709486E+03  0.18736709486E+03  0.00000000000E+00 0. -1.
      99926    2    1    2    0    0  0.00000000000E+00  0.14210854715E-13  0.11653405452E+03  0.49126824423E+03  0.47724658399E+03 0.  0.
      99925    2    3    3    0    0  0.15766363354E+02 -0.11090739695E+03 -0.18076423837E+01  0.28583870829E+03  0.26296667217E+03 0.  0.
         25    1    4    4    0    0  0.17975086473E+02 -0.14722445383E+02 -0.11389155584E+02  0.12773830708E+03  0.12509000000E+03 0.  0.
         25    1    3    3    0    0 -0.15766363354E+02  0.11090739695E+03  0.11834169690E+03  0.20542953594E+03  0.12509000000E+03 0.  0.
         25    1    4    4    0    0 -0.22087231193E+01 -0.96184951566E+02  0.95815131998E+01  0.15810040120E+03  0.12509000000E+03 0.  0.
<mgrwt>
<rscale>  2 0.47724658E+03</rscale>
<asrwt>0</asrwt>
<pdfrwt beam="1">  1       21 0.44691346E-01 0.47724658E+03</pdfrwt>
<pdfrwt beam="2">  1       21 0.27553984E-01 0.47724658E+03</pdfrwt>
<totfact> 0.55433701E+04</totfact>
</mgrwt>
</event>
<event>
 7    0  0.4737014E-002  0.4474503E+03  0.7546771E-02  0.1028485E+00
         21   -1    0    0  502  501  0.00000000000E+00  0.00000000000E+00  0.53852193971E+02  0.53852193971E+02  0.00000000000E+00 0. -1.
         21   -1    0    0  501  502 -0.00000000000E+00 -0.00000000000E+00 -0.92945038190E+03  0.92945038190E+03  0.00000000000E+00 0. -1.
      99926    2    1    2    0    0  0.00000000000E+00  0.14210854715E-13 -0.87559818793E+03  0.98330257588E+03  0.44745029781E+03 0.  0.
      99925    2    3    3    0    0 -0.67538672548E+01 -0.10335440540E+03 -0.50646155427E+03  0.58001965998E+03  0.26304325153E+03 0.  0.
         25    1    4    4    0    0  0.20483681190E+02 -0.25744647222E+02 -0.18890733513E+03  0.22894509696E+03  0.12509000000E+03 0.  0.
         25    1    3    3    0    0  0.67538672548E+01  0.10335440540E+03 -0.36913663367E+03  0.40328291590E+03  0.12509000000E+03 0.  0.
         25    1    4    4    0    0 -0.27237548444E+02 -0.77609758176E+02 -0.31755421914E+03  0.35107456302E+03  0.12509000000E+03 0.  0.
<mgrwt>
<rscale>  2 0.44745030E+03</rscale>
<asrwt>0</asrwt>
<pdfrwt beam="1">  1       21 0.79194406E-02 0.44745030E+03</pdfrwt>
<pdfrwt beam="2">  1       21 0.13668387E+00 0.44745030E+03</pdfrwt>
<totfact> 0.42259943E+04</totfact>
</mgrwt>
</event>
<event>
 7    0  0.4737014E-002  0.4486758E+03  0.7546771E-02  0.1028118E+00
         21   -1    0    0  502  501  0.00000000000E+00  0.00000000000E+00  0.11706630061E+03  0.11706630061E+03  0.00000000000E+00 0. -1.
         21   -1    0    0  501  502 -0.00000000000E+00 -0.00000000000E+00 -0.42990584735E+03  0.42990584735E+03  0.00000000000E+00 0. -1.
      99926    2    1    2    0    0  0.14210854715E-13 -0.14210854715E-13 -0.31283954674E+03  0.54697214796E+03  0.44867577229E+03 0.  0.
      99925    2    3    3    0    0  0.87614008090E+02 -0.61582182324E+02 -0.20271063884E+03  0.34886999238E+03  0.26296404486E+03 0.  0.
         25    1    4    4    0    0  0.61579414198E+02 -0.61672182416E+02 -0.82063048584E+02  0.17313963838E+03  0.12509000000E+03 0.  0.
         25    1    4    4    0    0  0.26034593892E+02  0.90000091874E-01 -0.12064759026E+03  0.17573035399E+03  0.12509000000E+03 0.  0.
         25    1    3    3    0    0 -0.87614008090E+02  0.61582182324E+02 -0.11012890790E+03  0.19810215559E+03  0.12509000000E+03 0.  0.
<mgrwt>
<rscale>  2 0.44867577E+03</rscale>
<asrwt>0</asrwt>
<pdfrwt beam="1">  1       21 0.17215632E-01 0.44867577E+03</pdfrwt>
<pdfrwt beam="2">  1       21 0.63221449E-01 0.44867577E+03</pdfrwt>
<totfact> 0.65272466E+04</totfact>
</mgrwt>
</event>
<event>
 7    0  0.4737014E-002  0.4544362E+03  0.7546771E-02  0.1026407E+00
         21   -1    0    0  502  501  0.00000000000E+00  0.00000000000E+00  0.63097199284E+03  0.63097199284E+03  0.00000000000E+00 0.  1.
         21   -1    0    0  501  502 -0.00000000000E+00 -0.00000000000E+00 -0.81823075702E+02  0.81823075702E+02  0.00000000000E+00 0.  1.
      99926    2    1    2    0    0 -0.71054273576E-14  0.14210854715E-13  0.54914891714E+03  0.71279506854E+03  0.45443621835E+03 0.  0.
      99925    2    3    3    0    0  0.30923202120E+02 -0.64885644527E+02  0.20966356989E+03  0.34392625664E+03  0.26298301499E+03 0.  0.
         25    1    4    4    0    0 -0.93486253552E+01 -0.56202607307E+02  0.79652701834E+02  0.15886532307E+03  0.12509000000E+03 0.  0.
         25    1    3    3    0    0 -0.30923202120E+02  0.64885644527E+02  0.33948534725E+03  0.36886881190E+03  0.12509000000E+03 0.  0.
         25    1    4    4    0    0  0.40271827475E+02 -0.86830372191E+01  0.13001086806E+03  0.18506093358E+03  0.12509000000E+03 0.  0.
<mgrwt>
<rscale>  2 0.45443622E+03</rscale>
<asrwt>0</asrwt>
<pdfrwt beam="1">  1       21 0.92789996E-01 0.45443622E+03</pdfrwt>
<pdfrwt beam="2">  1       21 0.12032806E-01 0.45443622E+03</pdfrwt>
<totfact> 0.52446016E+04</totfact>
</mgrwt>
</event>
<event>
 7    0  0.4737014E-002  0.4543892E+03  0.7546771E-02  0.1026421E+00
         21   -1    0    0  502  501  0.00000000000E+00  0.00000000000E+00  0.74842038667E+03  0.74842038667E+03  0.00000000000E+00 0. -1.
         21   -1    0    0  501  502 -0.00000000000E+00 -0.00000000000E+00 -0.68968427941E+02  0.68968427941E+02  0.00000000000E+00 0. -1.
      99926    2    1    2    0    0 -0.14210854715E-13  0.00000000000E+00  0.67945195873E+03  0.81738881461E+03  0.45438916144E+03 0.  0.
      99925    2    3    3    0    0  0.89828749415E+02  0.34951190157E+02  0.32298897403E+03  0.42751170901E+03  0.26297070954E+03 0.  0.
         25    1    4    4    0    0  0.73881742369E+02  0.10311687266E+02  0.21491248839E+03  0.25961457685E+03  0.12509000000E+03 0.  0.
         25    1    4    4    0    0  0.15947007046E+02  0.24639502891E+02  0.10807648565E+03  0.16789713216E+03  0.12509000000E+03 0.  0.
         25    1    3    3    0    0 -0.89828749415E+02 -0.34951190157E+02  0.35646298469E+03  0.38987710560E+03  0.12509000000E+03 0.  0.
<mgrwt>
<rscale>  2 0.45438916E+03</rscale>
<asrwt>0</asrwt>
<pdfrwt beam="1">  1       21 0.11006182E+00 0.45438916E+03</pdfrwt>
<pdfrwt beam="2">  1       21 0.10142416E-01 0.45438916E+03</pdfrwt>
<totfact> 0.47160857E+04</totfact>
</mgrwt>
</event>
<event>
 7    0  0.4737014E-002  0.4576886E+03  0.7546771E-02  0.1025454E+00
         21   -1    0    0  502  501  0.00000000000E+00  0.00000000000E+00  0.99081960373E+03  0.99081960373E+03  0.00000000000E+00 0.  1.
         21   -1    0    0  501  502 -0.00000000000E+00 -0.00000000000E+00 -0.52854941765E+02  0.52854941765E+02  0.00000000000E+00 0.  1.
      99926    2    1    2    0    0 -0.71054273576E-14  0.14210854715E-13  0.93796466196E+03  0.10436745455E+04  0.45768859481E+03 0.  0.
      99925    2    3    3    0    0  0.35930307517E+02  0.10651687778E+03  0.65110127270E+03  0.71114643473E+03  0.26298203753E+03 0.  0.
         25    1    4    4    0    0 -0.13915465296E+02  0.25814939985E+02  0.31473255862E+03  0.33994726481E+03  0.12509000000E+03 0.  0.
         25    1    3    3    0    0 -0.35930307517E+02 -0.10651687778E+03  0.28686338926E+03  0.33252811077E+03  0.12509000000E+03 0.  0.
         25    1    4    4    0    0  0.49845772813E+02  0.80701937793E+02  0.33636871408E+03  0.37119916991E+03  0.12509000000E+03 0.  0.
<mgrwt>
<rscale>  2 0.45768859E+03</rscale>
<asrwt>0</asrwt>
<pdfrwt beam="1">  1       21 0.14570875E+00 0.45768859E+03</pdfrwt>
<pdfrwt beam="2">  1       21 0.77727862E-02 0.45768859E+03</pdfrwt>
<totfact> 0.36733366E+04</totfact>
</mgrwt>
</event>
<event>
 7    0  0.4737014E-002  0.4522037E+03  0.7546771E-02  0.1027067E+00
         21   -1    0    0  502  501  0.00000000000E+00  0.00000000000E+00  0.22087696262E+03  0.22087696262E+03  0.00000000000E+00 0. -1.
         21   -1    0    0  501  502 -0.00000000000E+00 -0.00000000000E+00 -0.23145036385E+03  0.23145036385E+03  0.00000000000E+00 0. -1.
      99926    2    1    2    0    0  0.00000000000E+00  0.71054273576E-14 -0.10573401223E+02  0.45232732647E+03  0.45220373004E+03 0.  0.
      99925    2    3    3    0    0 -0.48515313576E+02 -0.41158715143E+02  0.83952248781E+02  0.28312217852E+03  0.26279728388E+03 0.  0.
         25    1    4    4    0    0 -0.25875407803E+02 -0.49776337933E+02  0.14100840981E+02  0.13781713378E+03  0.12509000000E+03 0.  0.
         25    1    3    3    0    0  0.48515313576E+02  0.41158715143E+02 -0.94525650004E+02  0.16920514795E+03  0.12509000000E+03 0.  0.
         25    1    4    4    0    0 -0.22639905773E+02  0.86176227898E+01  0.69851407800E+02  0.14530504474E+03  0.12509000000E+03 0.  0.
<mgrwt>
<rscale>  2 0.45220373E+03</rscale>
<asrwt>0</asrwt>
<pdfrwt beam="1">  1       21 0.32481906E-01 0.45220373E+03</pdfrwt>
<pdfrwt beam="2">  1       21 0.34036818E-01 0.45220373E+03</pdfrwt>
<totfact> 0.70297422E+04</totfact>
</mgrwt>
</event>
<event>
 7    0  0.4737014E-002  0.4407473E+03  0.7546771E-02  0.1030518E+00
         21   -1    0    0  502  501  0.00000000000E+00  0.00000000000E+00  0.10901878818E+03  0.10901878818E+03  0.00000000000E+00 0.  1.
         21   -1    0    0  501  502 -0.00000000000E+00 -0.00000000000E+00 -0.44546950806E+03  0.44546950806E+03  0.00000000000E+00 0.  1.
      99926    2    1    2    0    0  0.00000000000E+00  0.00000000000E+00 -0.33645071988E+03  0.55448829625E+03  0.44074730148E+03 0.  0.
      99925    2    3    3    0    0  0.61710933844E+02 -0.24572452239E+02 -0.12195557696E+03  0.29745188015E+03  0.26304450856E+03 0.  0.
         25    1    3    3    0    0 -0.61710933844E+02  0.24572452239E+02 -0.21449514292E+03  0.25703641610E+03  0.12509000000E+03 0.  0.
         25    1    4    4    0    0  0.35514146875E+02  0.26381917177E+02 -0.46924159635E+02  0.14073608293E+03  0.12509000000E+03 0.  0.
         25    1    4    4    0    0  0.26196786969E+02 -0.50954369416E+02 -0.75031417325E+02  0.15671579721E+03  0.12509000000E+03 0.  0.
<mgrwt>
<rscale>  2 0.44074730E+03</rscale>
<asrwt>0</asrwt>
<pdfrwt beam="1">  1       21 0.16032175E-01 0.44074730E+03</pdfrwt>
<pdfrwt beam="2">  1       21 0.65510221E-01 0.44074730E+03</pdfrwt>
<totfact> 0.69031142E+04</totfact>
</mgrwt>
</event>
<event>
 7    0  0.4737014E-002  0.4677852E+03  0.7546771E-02  0.1022547E+00
         21   -1    0    0  502  501  0.00000000000E+00  0.00000000000E+00  0.29670306507E+02  0.29670306507E+02  0.00000000000E+00 0. -1.
         21   -1    0    0  501  502 -0.00000000000E+00 -0.00000000000E+00 -0.18437874824E+04  0.18437874824E+04  0.00000000000E+00 0. -1.
      99926    2    1    2    0    0  0.00000000000E+00  0.00000000000E+00 -0.18141171759E+04  0.18734577889E+04  0.46778516324E+03 0.  0.
      99925    2    3    3    0    0  0.27985144449E+02  0.76649494512E+02 -0.75201374475E+03  0.80090498374E+03  0.26318398008E+03 0.  0.
         25    1    4    4    0    0  0.21748317633E+02  0.33061341871E+02 -0.25856755702E+03  0.28994953232E+03  0.12509000000E+03 0.  0.
         25    1    4    4    0    0  0.62368268157E+01  0.43588152641E+02 -0.49344618773E+03  0.51095545142E+03  0.12509000000E+03 0.  0.
         25    1    3    3    0    0 -0.27985144449E+02 -0.76649494512E+02 -0.10621034311E+04  0.10725528052E+04  0.12509000000E+03 0.  0.
<mgrwt>
<rscale>  2 0.46778516E+03</rscale>
<asrwt>0</asrwt>
<pdfrwt beam="1">  1       21 0.43632810E-02 0.46778516E+03</pdfrwt>
<pdfrwt beam="2">  1       21 0.27114518E+00 0.46778516E+03</pdfrwt>
<totfact> 0.14404494E+04</totfact>
</mgrwt>
</event>
<event>
 7    0  0.4737014E-002  0.4670180E+03  0.7546771E-02  0.1022765E+00
         21   -1    0    0  502  501  0.00000000000E+00  0.00000000000E+00  0.85611321101E+03  0.85611321101E+03  0.00000000000E+00 0.  1.
         21   -1    0    0  501  502 -0.00000000000E+00 -0.00000000000E+00 -0.63690696986E+02  0.63690696986E+02  0.00000000000E+00 0.  1.
      99926    2    1    2    0    0  0.00000000000E+00  0.88817841970E-15  0.79242251402E+03  0.91980390800E+03  0.46701797442E+03 0.  0.
      99925    2    3    3    0    0  0.12415253874E+03  0.68388082491E+01  0.48679400720E+03  0.56693436488E+03  0.26265099745E+03 0.  0.
         25    1    3    3    0    0 -0.12415253874E+03 -0.68388082491E+01  0.30562850682E+03  0.35286954311E+03  0.12509000000E+03 0.  0.
         25    1    4    4    0    0  0.65053268219E+02 -0.29116421328E+02  0.28923048866E+03  0.32308122410E+03  0.12509000000E+03 0.  0.
         25    1    4    4    0    0  0.59099270522E+02  0.35955229577E+02  0.19756351854E+03  0.24385314078E+03  0.12509000000E+03 0.  0.
<mgrwt>
<rscale>  2 0.46701797E+03</rscale>
<asrwt>0</asrwt>
<pdfrwt beam="1">  1       21 0.12589900E+00 0.46701797E+03</pdfrwt>
<pdfrwt beam="2">  1       21 0.93662795E-02 0.46701797E+03</pdfrwt>
<totfact> 0.38624929E+04</totfact>
</mgrwt>
</event>
<event>
 7    0  0.4737014E-002  0.4542363E+03  0.7546771E-02  0.1026466E+00
         21   -1    0    0  502  501  0.00000000000E+00  0.00000000000E+00  0.68432723298E+03  0.68432723298E+03  0.00000000000E+00 0.  1.
         21   -1    0    0  501  502 -0.00000000000E+00 -0.00000000000E+00 -0.75377161748E+02  0.75377161748E+02  0.00000000000E+00 0.  1.
      99926    2    1    2    0    0  0.00000000000E+00  0.22204460493E-14  0.60895007124E+03  0.75970439473E+03  0.45423625804E+03 0.  0.
      99925    2    3    3    0    0  0.11157704157E+03 -0.11373653606E+01  0.40688329389E+03  0.49716064521E+03  0.26299042282E+03 0.  0.
         25    1    4    4    0    0  0.52674773193E+02 -0.39248698313E+02  0.18142850035E+03  0.22995412779E+03  0.12509000000E+03 0.  0.
         25    1    4    4    0    0  0.58902268378E+02  0.38111332952E+02  0.22545479354E+03  0.26720651742E+03  0.12509000000E+03 0.  0.
         25    1    3    3    0    0 -0.11157704157E+03  0.11373653606E+01  0.20206677735E+03  0.26254374952E+03  0.12509000000E+03 0.  0.
<mgrwt>
<rscale>  2 0.45423626E+03</rscale>
<asrwt>0</asrwt>
<pdfrwt beam="1">  1       21 0.10063635E+00 0.45423626E+03</pdfrwt>
<pdfrwt beam="2">  1       21 0.11084877E-01 0.45423626E+03</pdfrwt>
<totfact> 0.50074736E+04</totfact>
</mgrwt>
</event>
<event>
 7    0  0.4737014E-002  0.4419626E+03  0.7546771E-02  0.1030146E+00
         21   -1    0    0  502  501  0.00000000000E+00  0.00000000000E+00  0.11360258537E+03  0.11360258537E+03  0.00000000000E+00 0. -1.
         21   -1    0    0  501  502 -0.00000000000E+00 -0.00000000000E+00 -0.42985576758E+03  0.42985576758E+03  0.00000000000E+00 0. -1.
      99926    2    1    2    0    0  0.17763568394E-14  0.00000000000E+00 -0.31625318221E+03  0.54345835294E+03  0.44196256190E+03 0.  0.
      99925    2    3    3    0    0  0.13581255230E+01  0.50231776900E+02 -0.30827426515E+03  0.40841670332E+03  0.26314654678E+03 0.  0.
         25    1    4    4    0    0  0.32959241291E+02  0.29970796659E+02 -0.19270276414E+03  0.23402227169E+03  0.12509000000E+03 0.  0.
         25    1    3    3    0    0 -0.13581255230E+01 -0.50231776900E+02 -0.79789170596E+01  0.13504164962E+03  0.12509000000E+03 0.  0.
         25    1    4    4    0    0 -0.31601115768E+02  0.20260980242E+02 -0.11557150101E+03  0.17439443163E+03  0.12509000000E+03 0.  0.
<mgrwt>
<rscale>  2 0.44196256E+03</rscale>
<asrwt>0</asrwt>
<pdfrwt beam="1">  1       21 0.16706262E-01 0.44196256E+03</pdfrwt>
<pdfrwt beam="2">  1       21 0.63214085E-01 0.44196256E+03</pdfrwt>
<totfact> 0.69164932E+04</totfact>
</mgrwt>
</event>
<event>
 7    0  0.4737014E-002  0.4769274E+03  0.7546771E-02  0.1019983E+00
         21   -1    0    0  502  501  0.00000000000E+00  0.00000000000E+00  0.11580718693E+03  0.11580718693E+03  0.00000000000E+00 0. -1.
         21   -1    0    0  501  502 -0.00000000000E+00 -0.00000000000E+00 -0.49103119382E+03  0.49103119382E+03  0.00000000000E+00 0. -1.
      99926    2    1    2    0    0 -0.14210854715E-13  0.00000000000E+00 -0.37522400689E+03  0.60683838075E+03  0.47692742111E+03 0.  0.
      99925    2    3    3    0    0  0.95493473299E+02  0.85541995377E+02 -0.27538101958E+03  0.40177115609E+03  0.26296182138E+03 0.  0.
         25    1    4    4    0    0  0.11775821918E+02  0.40238667286E+02 -0.15650224232E+03  0.20469069417E+03  0.12509000000E+03 0.  0.
         25    1    4    4    0    0  0.83717651381E+02  0.45303328091E+02 -0.11887877726E+03  0.19708046192E+03  0.12509000000E+03 0.  0.
         25    1    3    3    0    0 -0.95493473299E+02 -0.85541995377E+02 -0.99842987307E+02  0.20506722466E+03  0.12509000000E+03 0.  0.
<mgrwt>
<rscale>  2 0.47692742E+03</rscale>
<asrwt>0</asrwt>
<pdfrwt beam="1">  1       21 0.17030468E-01 0.47692742E+03</pdfrwt>
<pdfrwt beam="2">  1       21 0.72210471E-01 0.47692742E+03</pdfrwt>
<totfact> 0.49170973E+04</totfact>
</mgrwt>
</event>
<event>
 7    0  0.4737014E-002  0.4527875E+03  0.7546771E-02  0.1026894E+00
         21   -1    0    0  502  501  0.00000000000E+00  0.00000000000E+00  0.11399409416E+03  0.11399409416E+03  0.00000000000E+00 0.  1.
         21   -1    0    0  501  502 -0.00000000000E+00 -0.00000000000E+00 -0.44962093454E+03  0.44962093454E+03  0.00000000000E+00 0.  1.
      99926    2    1    2    0    0  0.71054273576E-14  0.00000000000E+00 -0.33562684038E+03  0.56361502871E+03  0.45278750491E+03 0.  0.
      99925    2    3    3    0    0 -0.39831616565E+02 -0.51644313038E+02 -0.32360429129E+03  0.42203204056E+03  0.26294032244E+03 0.  0.
         25    1    4    4    0    0 -0.28095976736E+02  0.14314635201E+02 -0.15530956023E+03  0.20189814335E+03  0.12509000000E+03 0.  0.
         25    1    3    3    0    0  0.39831616565E+02  0.51644313038E+02 -0.12022549085E+02  0.14158298815E+03  0.12509000000E+03 0.  0.
         25    1    4    4    0    0 -0.11735639829E+02 -0.65958948240E+02 -0.16829473106E+03  0.22013389720E+03  0.12509000000E+03 0.  0.
<mgrwt>
<rscale>  2 0.45278750E+03</rscale>
<asrwt>0</asrwt>
<pdfrwt beam="1">  1       21 0.16763837E-01 0.45278750E+03</pdfrwt>
<pdfrwt beam="2">  1       21 0.66120726E-01 0.45278750E+03</pdfrwt>
<totfact> 0.62054459E+04</totfact>
</mgrwt>
</event>
<event>
 7    0  0.4737014E-002  0.4571952E+03  0.7546771E-02  0.1025598E+00
         21   -1    0    0  502  501  0.00000000000E+00  0.00000000000E+00  0.11118340672E+04  0.11118340672E+04  0.00000000000E+00 0. -1.
         21   -1    0    0  501  502 -0.00000000000E+00 -0.00000000000E+00 -0.47000590331E+02  0.47000590331E+02  0.00000000000E+00 0. -1.
      99926    2    1    2    0    0  0.00000000000E+00  0.88817841970E-15  0.10648334768E+04  0.11588346575E+04  0.45719517717E+03 0.  0.
      99925    2    3    3    0    0  0.88849649250E+02  0.46646525228E+01  0.85440632403E+03  0.89836755037E+03  0.26294119089E+03 0.  0.
         25    1    3    3    0    0 -0.88849649250E+02 -0.46646525228E+01  0.21042715281E+03  0.26046710713E+03  0.12509000000E+03 0.  0.
         25    1    4    4    0    0  0.44869934493E+02  0.13735033202E+02  0.30259995922E+03  0.33078120499E+03  0.12509000000E+03 0.  0.
         25    1    4    4    0    0  0.43979714757E+02 -0.90703806793E+01  0.55180636481E+03  0.56758634538E+03  0.12509000000E+03 0.  0.
<mgrwt>
<rscale>  2 0.45719518E+03</rscale>
<asrwt>0</asrwt>
<pdfrwt beam="1">  1       21 0.16350499E+00 0.45719518E+03</pdfrwt>
<pdfrwt beam="2">  1       21 0.69118522E-02 0.45719518E+03</pdfrwt>
<totfact> 0.32921952E+04</totfact>
</mgrwt>
</event>
<event>
 7    0  0.4737014E-002  0.4576871E+03  0.7546771E-02  0.1025454E+00
         21   -1    0    0  502  501  0.00000000000E+00  0.00000000000E+00  0.89076496111E+02  0.89076496111E+02  0.00000000000E+00 0.  1.
         21   -1    0    0  501  502 -0.00000000000E+00 -0.00000000000E+00 -0.58791453419E+03  0.58791453419E+03  0.00000000000E+00 0.  1.
      99926    2    1    2    0    0  0.00000000000E+00  0.00000000000E+00 -0.49883803808E+03  0.67699103030E+03  0.45768708401E+03 0.  0.
      99925    2    3    3    0    0 -0.54783101182E+02  0.40863826869E+02 -0.45114310588E+03  0.52668016849E+03  0.26304155067E+03 0.  0.
         25    1    4    4    0    0 -0.19067854514E+02 -0.12090466306E+02 -0.16854989006E+03  0.21110740392E+03  0.12509000000E+03 0.  0.
         25    1    3    3    0    0  0.54783101182E+02 -0.40863826869E+02 -0.47694932204E+02  0.15031086181E+03  0.12509000000E+03 0.  0.
         25    1    4    4    0    0 -0.35715246668E+02  0.52954293175E+02 -0.28259321582E+03  0.31557276457E+03  0.12509000000E+03 0.  0.
<mgrwt>
<rscale>  2 0.45768708E+03</rscale>
<asrwt>0</asrwt>
<pdfrwt beam="1">  1       21 0.13099485E-01 0.45768708E+03</pdfrwt>
<pdfrwt beam="2">  1       21 0.86458021E-01 0.45768708E+03</pdfrwt>
<totfact> 0.53038434E+04</totfact>
</mgrwt>
</event>
<event>
 7    0  0.4737014E-002  0.4505399E+03  0.7546771E-02  0.1027561E+00
         21   -1    0    0  502  501  0.00000000000E+00  0.00000000000E+00  0.10324353131E+03  0.10324353131E+03  0.00000000000E+00 0.  1.
         21   -1    0    0  501  502 -0.00000000000E+00 -0.00000000000E+00 -0.49152270245E+03  0.49152270245E+03  0.00000000000E+00 0.  1.
      99926    2    1    2    0    0 -0.14210854715E-13  0.71054273576E-14 -0.38827917114E+03  0.59476623375E+03  0.45053985181E+03 0.  0.
      99925    2    3    3    0    0 -0.61820778828E+02  0.48514979112E+02 -0.34482972008E+03  0.44078287494E+03  0.26307127380E+03 0.  0.
         25    1    3    3    0    0  0.61820778828E+02 -0.48514979112E+02 -0.43449451063E+02  0.15398335881E+03  0.12509000000E+03 0.  0.
         25    1    4    4    0    0 -0.72338387458E+02  0.30198615772E+02 -0.19058668593E+03  0.24107175623E+03  0.12509000000E+03 0.  0.
         25    1    4    4    0    0  0.10517608630E+02  0.18316363340E+02 -0.15424303414E+03  0.19971111872E+03  0.12509000000E+03 0.  0.
<mgrwt>
<rscale>  2 0.45053985E+03</rscale>
<asrwt>0</asrwt>
<pdfrwt beam="1">  1       21 0.15182872E-01 0.45053985E+03</pdfrwt>
<pdfrwt beam="2">  1       21 0.72282750E-01 0.45053985E+03</pdfrwt>
<totfact> 0.61127730E+04</totfact>
</mgrwt>
</event>
<event>
 7    0  0.4737014E-002  0.4576983E+03  0.7546771E-02  0.1025451E+00
         21   -1    0    0  502  501  0.00000000000E+00  0.00000000000E+00  0.38361706240E+02  0.38361706240E+02  0.00000000000E+00 0. -1.
         21   -1    0    0  501  502 -0.00000000000E+00 -0.00000000000E+00 -0.13652138607E+04  0.13652138607E+04  0.00000000000E+00 0. -1.
      99926    2    1    2    0    0  0.00000000000E+00 -0.26645352591E-14 -0.13268521544E+04  0.14035755669E+04  0.45769829835E+03 0.  0.
      99925    2    3    3    0    0 -0.49090116656E+02  0.41047811940E+01 -0.51202896995E+03  0.57773598270E+03  0.26301808086E+03 0.  0.
         25    1    3    3    0    0  0.49090116656E+02 -0.41047811940E+01 -0.81482318450E+03  0.82583958422E+03  0.12509000000E+03 0.  0.
         25    1    4    4    0    0 -0.55217415934E+02 -0.25023155223E+02 -0.26735441406E+03  0.30133206291E+03  0.12509000000E+03 0.  0.
         25    1    4    4    0    0  0.61272992783E+01  0.29127936417E+02 -0.24467455590E+03  0.27640391980E+03  0.12509000000E+03 0.  0.
<mgrwt>
<rscale>  2 0.45769830E+03</rscale>
<asrwt>0</asrwt>
<pdfrwt beam="1">  1       21 0.56414260E-02 0.45769830E+03</pdfrwt>
<pdfrwt beam="2">  1       21 0.20076679E+00 0.45769830E+03</pdfrwt>
<totfact> 0.25693863E+04</totfact>
</mgrwt>
</event>
<event>
 7    0  0.4737014E-002  0.4600370E+03  0.7546771E-02  0.1024770E+00
         21   -1    0    0  502  501  0.00000000000E+00  0.00000000000E+00  0.87261087041E+02  0.87261087041E+02  0.00000000000E+00 0. -1.
         21   -1    0    0  501  502 -0.00000000000E+00 -0.00000000000E+00 -0.60632425806E+03  0.60632425806E+03  0.00000000000E+00 0. -1.
      99926    2    1    2    0    0 -0.17763568394E-14  0.14210854715E-13 -0.51906317102E+03  0.69358534511E+03  0.46003701529E+03 0.  0.
      99925    2    3    3    0    0  0.81831248593E+01 -0.11683714878E+03 -0.34393707496E+03  0.44856587549E+03  0.26306035478E+03 0.  0.
         25    1    3    3    0    0 -0.81831248593E+01  0.11683714878E+03 -0.17512609606E+03  0.24501946962E+03  0.12509000000E+03 0.  0.
         25    1    4    4    0    0 -0.53468077544E+01 -0.23823009479E+02 -0.11764612806E+03  0.17344810083E+03  0.12509000000E+03 0.  0.
         25    1    4    4    0    0  0.13529932614E+02 -0.93014139302E+02 -0.22629094689E+03  0.27511777466E+03  0.12509000000E+03 0.  0.
<mgrwt>
<rscale>  2 0.46003702E+03</rscale>
<asrwt>0</asrwt>
<pdfrwt beam="1">  1       21 0.12832513E-01 0.46003702E+03</pdfrwt>
<pdfrwt beam="2">  1       21 0.89165328E-01 0.46003702E+03</pdfrwt>
<totfact> 0.51192586E+04</totfact>
</mgrwt>
</event>
<event>
 7    0  0.4737014E-002  0.4573559E+03  0.7546771E-02  0.1025551E+00
         21   -1    0    0  502  501  0.00000000000E+00  0.00000000000E+00  0.97204420999E+03  0.97204420999E+03  0.00000000000E+00 0.  1.
         21   -1    0    0  501  502 -0.00000000000E+00 -0.00000000000E+00 -0.53797550969E+02  0.53797550969E+02  0.00000000000E+00 0.  1.
      99926    2    1    2    0    0  0.00000000000E+00  0.71054273576E-14  0.91824665902E+03  0.10258417610E+04  0.45735586989E+03 0.  0.
      99925    2    3    3    0    0  0.38223429188E+02 -0.55152525632E+02  0.36552011017E+03  0.45517813190E+03  0.26282950596E+03 0.  0.
         25    1    3    3    0    0 -0.38223429188E+02  0.55152525632E+02  0.55272654885E+03  0.57066362906E+03  0.12509000000E+03 0.  0.
         25    1    4    4    0    0 -0.13964899256E+02 -0.43057720011E+02  0.15210220632E+03  0.20206824325E+03  0.12509000000E+03 0.  0.
         25    1    4    4    0    0  0.52188328444E+02 -0.12094805621E+02  0.21341790385E+03  0.25310988865E+03  0.12509000000E+03 0.  0.
<mgrwt>
<rscale>  2 0.45735587E+03</rscale>
<asrwt>0</asrwt>
<pdfrwt beam="1">  1       21 0.14294767E+00 0.45735587E+03</pdfrwt>
<pdfrwt beam="2">  1       21 0.79114051E-02 0.45735587E+03</pdfrwt>
<totfact> 0.37482335E+04</totfact>
</mgrwt>
</event>
<event>
 7    0  0.4737014E-002  0.4526891E+03  0.7546771E-02  0.1026923E+00
         21   -1    0    0  502  501  0.00000000000E+00  0.00000000000E+00  0.36574471460E+03  0.36574471460E+03  0.00000000000E+00 0. -1.
         21   -1    0    0  501  502 -0.00000000000E+00 -0.00000000000E+00 -0.14007546400E+03  0.14007546400E+03  0.00000000000E+00 0. -1.
      99926    2    1    2    0    0  0.00000000000E+00  0.35527136788E-14  0.22566925060E+03  0.50582017859E+03  0.45268912336E+03 0.  0.
      99925    2    3    3    0    0  0.39718048513E+02 -0.17005633450E+02  0.25650756329E+03  0.36993337064E+03  0.26303584117E+03 0.  0.
         25    1    4    4    0    0  0.50960911545E+01  0.72877582434E+00  0.74502483039E+02  0.14568675073E+03  0.12509000000E+03 0.  0.
         25    1    3    3    0    0 -0.39718048513E+02  0.17005633450E+02 -0.30838312691E+02  0.13588680796E+03  0.12509000000E+03 0.  0.
         25    1    4    4    0    0  0.34621957358E+02 -0.17734409274E+02  0.18200508025E+03  0.22424661991E+03  0.12509000000E+03 0.  0.
<mgrwt>
<rscale>  2 0.45268912E+03</rscale>
<asrwt>0</asrwt>
<pdfrwt beam="1">  1       21 0.53785988E-01 0.45268912E+03</pdfrwt>
<pdfrwt beam="2">  1       21 0.20599333E-01 0.45268912E+03</pdfrwt>
<totfact> 0.66067139E+04</totfact>
</mgrwt>
</event>
<event>
 7    0  0.4737014E-002  0.4506159E+03  0.7546771E-02  0.1027539E+00
         21   -1    0    0  502  501  0.00000000000E+00  0.00000000000E+00  0.60480156603E+03  0.60480156603E+03  0.00000000000E+00 0.  1.
         21   -1    0    0  501  502 -0.00000000000E+00 -0.00000000000E+00 -0.83934416724E+02  0.83934416724E+02  0.00000000000E+00 0.  1.
      99926    2    1    2    0    0 -0.71054273576E-14  0.14210854715E-13  0.52086714930E+03  0.68873598275E+03  0.45061587490E+03 0.  0.
      99925    2    3    3    0    0  0.41969197916E+02 -0.99214181573E+02  0.35358350409E+03  0.45371216810E+03  0.26311322604E+03 0.  0.
         25    1    4    4    0    0  0.52085391391E+02 -0.77029791473E+02  0.17546042277E+03  0.23469202123E+03  0.12509000000E+03 0.  0.
         25    1    3    3    0    0 -0.41969197916E+02  0.99214181573E+02  0.16728364521E+03  0.23502381465E+03  0.12509000000E+03 0.  0.
         25    1    4    4    0    0 -0.10116193475E+02 -0.22184390099E+02  0.17812308132E+03  0.21902014687E+03  0.12509000000E+03 0.  0.
<mgrwt>
<rscale>  2 0.45061587E+03</rscale>
<asrwt>0</asrwt>
<pdfrwt beam="1">  1       21 0.88941405E-01 0.45061587E+03</pdfrwt>
<pdfrwt beam="2">  1       21 0.12343297E-01 0.45061587E+03</pdfrwt>
<totfact> 0.55406524E+04</totfact>
</mgrwt>
</event>
<event>
 7    0  0.4737014E-002  0.4585564E+03  0.7546771E-02  0.1025201E+00
         21   -1    0    0  502  501  0.00000000000E+00  0.00000000000E+00  0.34393434000E+03  0.34393434000E+03  0.00000000000E+00 0. -1.
         21   -1    0    0  501  502 -0.00000000000E+00 -0.00000000000E+00 -0.15284457330E+03  0.15284457330E+03  0.00000000000E+00 0. -1.
      99926    2    1    2    0    0  0.00000000000E+00  0.00000000000E+00  0.19108976670E+03  0.49677891330E+03  0.45855641939E+03 0.  0.
      99925    2    3    3    0    0  0.51575598418E+02 -0.10427110424E+03  0.12915713273E+03  0.31507678128E+03  0.26279137664E+03 0.  0.
         25    1    3    3    0    0 -0.51575598418E+02  0.10427110424E+03  0.61932633971E+02  0.18170213202E+03  0.12509000000E+03 0.  0.
         25    1    4    4    0    0  0.26285363717E+02 -0.66532027649E+02  0.10854124294E+03  0.18040548930E+03  0.12509000000E+03 0.  0.
         25    1    4    4    0    0  0.25290234701E+02 -0.37739076587E+02  0.20615889782E+02  0.13467129198E+03  0.12509000000E+03 0.  0.
<mgrwt>
<rscale>  2 0.45855642E+03</rscale>
<asrwt>0</asrwt>
<pdfrwt beam="1">  1       21 0.50578579E-01 0.45855642E+03</pdfrwt>
<pdfrwt beam="2">  1       21 0.22477143E-01 0.45855642E+03</pdfrwt>
<totfact> 0.63680586E+04</totfact>
</mgrwt>
</event>
<event>
 7    0  0.4737014E-002  0.4565730E+03  0.7546771E-02  0.1025780E+00
         21   -1    0    0  502  501  0.00000000000E+00  0.00000000000E+00  0.40297991136E+03  0.40297991136E+03  0.00000000000E+00 0.  1.
         21   -1    0    0  501  502 -0.00000000000E+00 -0.00000000000E+00 -0.12932341105E+03  0.12932341105E+03  0.00000000000E+00 0.  1.
      99926    2    1    2    0    0  0.00000000000E+00  0.00000000000E+00  0.27365650031E+03  0.53230332240E+03  0.45657304660E+03 0.  0.
      99925    2    3    3    0    0 -0.77423531205E+02  0.39831712232E+02  0.25885989565E+03  0.37917783108E+03  0.26303310347E+03 0.  0.
         25    1    4    4    0    0 -0.55930724014E+02  0.56458749046E+02  0.15373260939E+03  0.21353467991E+03  0.12509000000E+03 0.  0.
         25    1    4    4    0    0 -0.21492807191E+02 -0.16627036814E+02  0.10512728626E+03  0.16564315117E+03  0.12509000000E+03 0.  0.
         25    1    3    3    0    0  0.77423531205E+02 -0.39831712232E+02  0.14796604662E+02  0.15312549132E+03  0.12509000000E+03 0.  0.
<mgrwt>
<rscale>  2 0.45657305E+03</rscale>
<asrwt>0</asrwt>
<pdfrwt beam="1">  1       21 0.59261751E-01 0.45657305E+03</pdfrwt>
<pdfrwt beam="2">  1       21 0.19018149E-01 0.45657305E+03</pdfrwt>
<totfact> 0.62270871E+04</totfact>
</mgrwt>
</event>
<event>
 7    0  0.4737014E-002  0.4553511E+03  0.7546771E-02  0.1026138E+00
         21   -1    0    0  502  501  0.00000000000E+00  0.00000000000E+00  0.49156999565E+02  0.49156999565E+02  0.00000000000E+00 0. -1.
         21   -1    0    0  501  502 -0.00000000000E+00 -0.00000000000E+00 -0.10545019563E+04  0.10545019563E+04  0.00000000000E+00 0. -1.
      99926    2    1    2    0    0  0.35527136788E-14  0.00000000000E+00 -0.10053449567E+04  0.11036589559E+04  0.45535108304E+03 0.  0.
      99925    2    3    3    0    0 -0.27383655160E+02 -0.18345808400E+02 -0.89570902979E+03  0.93408897670E+03  0.26294698532E+03 0.  0.
         25    1    4    4    0    0 -0.48175787428E+02 -0.11381458908E+02 -0.53581300669E+03  0.55244323721E+03  0.12509000000E+03 0.  0.
         25    1    4    4    0    0  0.20792132269E+02 -0.69643494922E+01 -0.35989602310E+03  0.38164573949E+03  0.12509000000E+03 0.  0.
         25    1    3    3    0    0  0.27383655160E+02  0.18345808400E+02 -0.10963592694E+03  0.16956997916E+03  0.12509000000E+03 0.  0.
<mgrwt>
<rscale>  2 0.45535108E+03</rscale>
<asrwt>0</asrwt>
<pdfrwt beam="1">  1       21 0.72289700E-02 0.45535108E+03</pdfrwt>
<pdfrwt beam="2">  1       21 0.15507383E+00 0.45535108E+03</pdfrwt>
<totfact> 0.35270868E+04</totfact>
</mgrwt>
</event>
<event>
 7    0  0.4737014E-002  0.4495264E+03  0.7546771E-02  0.1027863E+00
         21   -1    0    0  502  501  0.00000000000E+00  0.00000000000E+00  0.65374856579E+03  0.65374856579E+03  0.00000000000E+00 0.  1.
         21   -1    0    0  501  502 -0.00000000000E+00 -0.00000000000E+00 -0.77275131595E+02  0.77275131595E+02  0.00000000000E+00 0.  1.
      99926    2    1    2    0    0  0.00000000000E+00  0.00000000000E+00  0.57647343420E+03  0.73102369739E+03  0.44952644617E+03 0.  0.
      99925    2    3    3    0    0  0.79362631315E+02  0.60689809451E+02  0.29821108625E+03  0.40999547027E+03  0.26302994784E+03 0.  0.
         25    1    4    4    0    0  0.26458620257E+02  0.33972148670E+02  0.90125299194E+02  0.16007574184E+03  0.12509000000E+03 0.  0.
         25    1    3    3    0    0 -0.79362631315E+02 -0.60689809451E+02  0.27826234795E+03  0.32102822712E+03  0.12509000000E+03 0.  0.
         25    1    4    4    0    0  0.52904011057E+02  0.26717660782E+02  0.20808578706E+03  0.24991972843E+03  0.12509000000E+03 0.  0.
<mgrwt>
<rscale>  2 0.44952645E+03</rscale>
<asrwt>0</asrwt>
<pdfrwt beam="1">  1       21 0.96139492E-01 0.44952645E+03</pdfrwt>
<pdfrwt beam="2">  1       21 0.11363990E-01 0.44952645E+03</pdfrwt>
<totfact> 0.53517212E+04</totfact>
</mgrwt>
</event>
<event>
 7    0  0.4737014E-002  0.4576657E+03  0.7546771E-02  0.1025460E+00
         21   -1    0    0  502  501  0.00000000000E+00  0.00000000000E+00  0.45537558335E+02  0.45537558335E+02  0.00000000000E+00 0. -1.
         21   -1    0    0  501  502 -0.00000000000E+00 -0.00000000000E+00 -0.11499182445E+04  0.11499182445E+04  0.00000000000E+00 0. -1.
      99926    2    1    2    0    0  0.00000000000E+00  0.00000000000E+00 -0.11043806862E+04  0.11954558029E+04  0.45766568209E+03 0.  0.
      99925    2    3    3    0    0 -0.63115417331E+02 -0.64608191971E+02 -0.50446444039E+03  0.57601671429E+03  0.26296978752E+03 0.  0.
         25    1    4    4    0    0 -0.19525143069E+02 -0.66881653978E+02 -0.29940169606E+03  0.33187839724E+03  0.12509000000E+03 0.  0.
         25    1    3    3    0    0  0.63115417331E+02  0.64608191971E+02 -0.59991624582E+03  0.61943908859E+03  0.12509000000E+03 0.  0.
         25    1    4    4    0    0 -0.43590274262E+02  0.22734620069E+01 -0.20506274433E+03  0.24413831705E+03  0.12509000000E+03 0.  0.
<mgrwt>
<rscale>  2 0.45766568E+03</rscale>
<asrwt>0</asrwt>
<pdfrwt beam="1">  1       21 0.66966995E-02 0.45766568E+03</pdfrwt>
<pdfrwt beam="2">  1       21 0.16910563E+00 0.45766568E+03</pdfrwt>
<totfact> 0.31638162E+04</totfact>
</mgrwt>
</event>
<event>
 7    0  0.4737014E-002  0.4519580E+03  0.7546771E-02  0.1027140E+00
         21   -1    0    0  502  501  0.00000000000E+00  0.00000000000E+00  0.29440779714E+03  0.29440779714E+03  0.00000000000E+00 0. -1.
         21   -1    0    0  501  502 -0.00000000000E+00 -0.00000000000E+00 -0.17345497608E+03  0.17345497608E+03  0.00000000000E+00 0. -1.
      99926    2    1    2    0    0  0.14432899320E-14  0.00000000000E+00  0.12095282107E+03  0.46786277322E+03  0.45195795119E+03 0.  0.
      99925    2    3    3    0    0  0.62983319568E+00  0.10149608933E+03  0.12007943358E+03  0.30677235220E+03  0.26341669056E+03 0.  0.
         25    1    4    4    0    0  0.23439415698E+02  0.29745337501E+02  0.26499995336E+02  0.13335647402E+03  0.12509000000E+03 0.  0.
         25    1    4    4    0    0 -0.22809582502E+02  0.71750751826E+02  0.93579438247E+02  0.17341587818E+03  0.12509000000E+03 0.  0.
         25    1    3    3    0    0 -0.62983319568E+00 -0.10149608933E+03  0.87338748335E+00  0.16109042102E+03  0.12509000000E+03 0.  0.
<mgrwt>
<rscale>  2 0.45195795E+03</rscale>
<asrwt>0</asrwt>
<pdfrwt beam="1">  1       21 0.43295264E-01 0.45195795E+03</pdfrwt>
<pdfrwt beam="2">  1       21 0.25508085E-01 0.45195795E+03</pdfrwt>
<totfact> 0.69251192E+04</totfact>
</mgrwt>
</event>
<event>
 7    0  0.4737014E-002  0.4716267E+03  0.7546771E-02  0.1021462E+00
         21   -1    0    0  502  501  0.00000000000E+00  0.00000000000E+00  0.12015141583E+03  0.12015141583E+03  0.00000000000E+00 0.  1.
         21   -1    0    0  501  502 -0.00000000000E+00 -0.00000000000E+00 -0.46281544093E+03  0.46281544093E+03  0.00000000000E+00 0.  1.
      99926    2    1    2    0    0 -0.17763568394E-14 -0.14210854715E-13 -0.34266402510E+03  0.58296685675E+03  0.47162667649E+03 0.  0.
      99925    2    3    3    0    0  0.89760619797E+01 -0.12603239621E+03 -0.23898776350E+03  0.37714895203E+03  0.26298563903E+03 0.  0.
         25    1    3    3    0    0 -0.89760619797E+01  0.12603239621E+03 -0.10367626161E+03  0.20581790472E+03  0.12509000000E+03 0.  0.
         25    1    4    4    0    0 -0.61338491995E+01 -0.47121803692E+02 -0.66475786848E+02  0.14941427919E+03  0.12509000000E+03 0.  0.
         25    1    4    4    0    0  0.15109911179E+02 -0.78910592518E+02 -0.17251197665E+03  0.22773467284E+03  0.12509000000E+03 0.  0.
<mgrwt>
<rscale>  2 0.47162668E+03</rscale>
<asrwt>0</asrwt>
<pdfrwt beam="1">  1       21 0.17669326E-01 0.47162668E+03</pdfrwt>
<pdfrwt beam="2">  1       21 0.68061094E-01 0.47162668E+03</pdfrwt>
<totfact> 0.52491632E+04</totfact>
</mgrwt>
</event>
<event>
 7    0  0.4737014E-002  0.4637276E+03  0.7546771E-02  0.1023706E+00
         21   -1    0    0  502  501  0.00000000000E+00  0.00000000000E+00  0.44712254227E+02  0.44712254227E+02  0.00000000000E+00 0. -1.
         21   -1    0    0  501  502 -0.00000000000E+00 -0.00000000000E+00 -0.12023733478E+04  0.12023733478E+04  0.00000000000E+00 0. -1.
      99926    2    1    2    0    0  0.00000000000E+00  0.00000000000E+00 -0.11576610936E+04  0.12470856021E+04  0.46372760454E+03 0.  0.
      99925    2    3    3    0    0  0.54634159081E+02 -0.54007000659E+02 -0.97495950990E+03  0.10127161837E+04  0.26295698391E+03 0.  0.
         25    1    4    4    0    0  0.32582358812E+02 -0.40900763468E+02 -0.36104750262E+03  0.38566473757E+03  0.12509000000E+03 0.  0.
         25    1    3    3    0    0 -0.54634159081E+02  0.54007000659E+02 -0.18270158370E+03  0.23436941832E+03  0.12509000000E+03 0.  0.
         25    1    4    4    0    0  0.22051800268E+02 -0.13106237191E+02 -0.61391200728E+03  0.62705144616E+03  0.12509000000E+03 0.  0.
<mgrwt>
<rscale>  2 0.46372760E+03</rscale>
<asrwt>0</asrwt>
<pdfrwt beam="1">  1       21 0.65753314E-02 0.46372760E+03</pdfrwt>
<pdfrwt beam="2">  1       21 0.17681961E+00 0.46372760E+03</pdfrwt>
<totfact> 0.28691517E+04</totfact>
</mgrwt>
</event>
<event>
 7    0  0.4737014E-002  0.4578487E+03  0.7546771E-02  0.1025407E+00
         21   -1    0    0  502  501  0.00000000000E+00  0.00000000000E+00  0.28477477351E+02  0.28477477351E+02  0.00000000000E+00 0.  1.
         21   -1    0    0  501  502 -0.00000000000E+00 -0.00000000000E+00 -0.18402741435E+04  0.18402741435E+04  0.00000000000E+00 0.  1.
      99926    2    1    2    0    0 -0.71054273576E-14  0.00000000000E+00 -0.18117966662E+04  0.18687516209E+04  0.45784873154E+03 0.  0.
      99925    2    3    3    0    0 -0.41216136345E+02  0.31491360673E+02 -0.15598216626E+04  0.15826932594E+04  0.26302824614E+03 0.  0.
         25    1    4    4    0    0 -0.52550234141E+02  0.41011852866E+02 -0.78324180557E+03  0.79596402763E+03  0.12509000000E+03 0.  0.
         25    1    4    4    0    0  0.11334097796E+02 -0.95204921936E+01 -0.77657985708E+03  0.78672923174E+03  0.12509000000E+03 0.  0.
         25    1    3    3    0    0  0.41216136345E+02 -0.31491360673E+02 -0.25197500355E+03  0.28605836154E+03  0.12509000000E+03 0.  0.
<mgrwt>
<rscale>  2 0.45784873E+03</rscale>
<asrwt>0</asrwt>
<pdfrwt beam="1">  1       21 0.41878638E-02 0.45784873E+03</pdfrwt>
<pdfrwt beam="2">  1       21 0.27062858E+00 0.45784873E+03</pdfrwt>
<totfact> 0.15625082E+04</totfact>
</mgrwt>
</event>
<event>
 7    0  0.4737014E-002  0.4684347E+03  0.7546771E-02  0.1022363E+00
         21   -1    0    0  502  501  0.00000000000E+00  0.00000000000E+00  0.40345293548E+02  0.40345293548E+02  0.00000000000E+00 0. -1.
         21   -1    0    0  501  502 -0.00000000000E+00 -0.00000000000E+00 -0.13597067863E+04  0.13597067863E+04  0.00000000000E+00 0. -1.
      99926    2    1    2    0    0  0.17763568394E-14 -0.14210854715E-13 -0.13193614928E+04  0.14000520799E+04  0.46843471021E+03 0.  0.
      99925    2    3    3    0    0 -0.99978160027E+01  0.12324435879E+03 -0.88093243890E+03  0.92765746550E+03  0.26309177696E+03 0.  0.
         25    1    4    4    0    0  0.19072614915E+02  0.93295790248E+02 -0.42994761815E+03  0.45778852276E+03  0.12509000000E+03 0.  0.
         25    1    3    3    0    0  0.99978160027E+01 -0.12324435879E+03 -0.43842905386E+03  0.47239461435E+03  0.12509000000E+03 0.  0.
         25    1    4    4    0    0 -0.29070430918E+02  0.29948568541E+02 -0.45098482075E+03  0.46986894275E+03  0.12509000000E+03 0.  0.
<mgrwt>
<rscale>  2 0.46843471E+03</rscale>
<asrwt>0</asrwt>
<pdfrwt beam="1">  1       21 0.59331313E-02 0.46843471E+03</pdfrwt>
<pdfrwt beam="2">  1       21 0.19995688E+00 0.46843471E+03</pdfrwt>
<totfact> 0.23752318E+04</totfact>
</mgrwt>
</event>
<event>
 7    0  0.4737014E-002  0.4533481E+03  0.7546771E-02  0.1026728E+00
         21   -1    0    0  502  501  0.00000000000E+00  0.00000000000E+00  0.96461500176E+03  0.96461500176E+03  0.00000000000E+00 0. -1.
         21   -1    0    0  501  502 -0.00000000000E+00 -0.00000000000E+00 -0.53265943380E+02  0.53265943380E+02  0.00000000000E+00 0. -1.
      99926    2    1    2    0    0  0.00000000000E+00  0.71054273576E-14  0.91134905838E+03  0.10178809451E+04  0.45334811378E+03 0.  0.
      99925    2    3    3    0    0 -0.16610511311E+02  0.54945120458E+02  0.35936246599E+03  0.44899468091E+03  0.26298282487E+03 0.  0.
         25    1    3    3    0    0  0.16610511311E+02 -0.54945120458E+02  0.55198659239E+03  0.56888626423E+03  0.12509000000E+03 0.  0.
         25    1    4    4    0    0  0.14132459368E+02  0.57035854555E+02  0.15764718940E+03  0.20964961135E+03  0.12509000000E+03 0.  0.
         25    1    4    4    0    0 -0.30742970679E+02 -0.20907340965E+01  0.20171527659E+03  0.23934506956E+03  0.12509000000E+03 0.  0.
<mgrwt>
<rscale>  2 0.45334811E+03</rscale>
<asrwt>0</asrwt>
<pdfrwt beam="1">  1       21 0.14185514E+00 0.45334811E+03</pdfrwt>
<pdfrwt beam="2">  1       21 0.78332276E-02 0.45334811E+03</pdfrwt>
<totfact> 0.38978741E+04</totfact>
</mgrwt>
</event>
<event>
 7    0  0.4737014E-002  0.4559473E+03  0.7546771E-02  0.1025963E+00
         21   -1    0    0  502  501  0.00000000000E+00  0.00000000000E+00  0.27667353875E+03  0.27667353875E+03  0.00000000000E+00 0. -1.
         21   -1    0    0  501  502 -0.00000000000E+00 -0.00000000000E+00 -0.18784589792E+03  0.18784589792E+03  0.00000000000E+00 0. -1.
      99926    2    1    2    0    0  0.00000000000E+00 -0.17763568394E-14  0.88827640827E+02  0.46451943667E+03  0.45594731853E+03 0.  0.
      99925    2    3    3    0    0 -0.45596309298E+02  0.15438854835E+02  0.16093978798E+03  0.31231874178E+03  0.26329451086E+03 0.  0.
         25    1    3    3    0    0  0.45596309298E+02 -0.15438854835E+02 -0.72112147149E+02  0.15220069490E+03  0.12509000000E+03 0.  0.
         25    1    4    4    0    0 -0.64205503400E+02  0.10363575754E+02  0.80458396489E+02  0.16232933202E+03  0.12509000000E+03 0.  0.
         25    1    4    4    0    0  0.18609194102E+02  0.50752790811E+01  0.80481391486E+02  0.14998940975E+03  0.12509000000E+03 0.  0.
<mgrwt>
<rscale>  2 0.45594732E+03</rscale>
<asrwt>0</asrwt>
<pdfrwt beam="1">  1       21 0.40687285E-01 0.45594732E+03</pdfrwt>
<pdfrwt beam="2">  1       21 0.27624397E-01 0.45594732E+03</pdfrwt>
<totfact> 0.67337378E+04</totfact>
</mgrwt>
</event>
<event>
 7    0  0.4737014E-002  0.4502296E+03  0.7546771E-02  0.1027654E+00
         21   -1    0    0  502  501  0.00000000000E+00  0.00000000000E+00  0.30460560482E+02  0.30460560482E+02  0.00000000000E+00 0.  1.
         21   -1    0    0  501  502 -0.00000000000E+00 -0.00000000000E+00 -0.16636819124E+04  0.16636819124E+04  0.00000000000E+00 0.  1.
      99926    2    1    2    0    0  0.00000000000E+00  0.00000000000E+00 -0.16332213519E+04  0.16941424729E+04  0.45022964592E+03 0.  0.
      99925    2    3    3    0    0 -0.24053208083E+02  0.46431807212E+02 -0.13904470376E+04  0.14160753132E+04  0.26304345370E+03 0.  0.
         25    1    3    3    0    0  0.24053208083E+02 -0.46431807212E+02 -0.24277431428E+03  0.27806715972E+03  0.12509000000E+03 0.  0.
         25    1    4    4    0    0  0.18199881582E+02  0.74598526768E+01 -0.78721572937E+03  0.79733493449E+03  0.12509000000E+03 0.  0.
         25    1    4    4    0    0 -0.42253089664E+02  0.38971954536E+02 -0.60323130828E+03  0.61874037868E+03  0.12509000000E+03 0.  0.
<mgrwt>
<rscale>  2 0.45022965E+03</rscale>
<asrwt>0</asrwt>
<pdfrwt beam="1">  1       21 0.44794940E-02 0.45022965E+03</pdfrwt>
<pdfrwt beam="2">  1       21 0.24465912E+00 0.45022965E+03</pdfrwt>
<totfact> 0.20118639E+04</totfact>
</mgrwt>
</event>
<event>
 7    0  0.4737014E-002  0.4530734E+03  0.7546771E-02  0.1026809E+00
         21   -1    0    0  502  501  0.00000000000E+00  0.00000000000E+00  0.15920808330E+04  0.15920808330E+04  0.00000000000E+00 0. -1.
         21   -1    0    0  501  502 -0.00000000000E+00 -0.00000000000E+00 -0.32233841878E+02  0.32233841878E+02  0.00000000000E+00 0. -1.
      99926    2    1    2    0    0  0.00000000000E+00  0.00000000000E+00  0.15598469911E+04  0.16243146749E+04  0.45307342375E+03 0.  0.
      99925    2    3    3    0    0  0.88429362113E+02 -0.32779506575E+02  0.77093803986E+03  0.82000186905E+03  0.26298926938E+03 0.  0.
         25    1    3    3    0    0 -0.88429362113E+02  0.32779506575E+02  0.78890895125E+03  0.80431280581E+03  0.12509000000E+03 0.  0.
         25    1    4    4    0    0  0.35674043692E+02  0.14419247340E+02  0.29257076661E+03  0.32050852354E+03  0.12509000000E+03 0.  0.
         25    1    4    4    0    0  0.52755318421E+02 -0.47198753915E+02  0.47836727325E+03  0.49949334551E+03  0.12509000000E+03 0.  0.
<mgrwt>
<rscale>  2 0.45307342E+03</rscale>
<asrwt>0</asrwt>
<pdfrwt beam="1">  1       21 0.23412948E+00 0.45307342E+03</pdfrwt>
<pdfrwt beam="2">  1       21 0.47402719E-02 0.45307342E+03</pdfrwt>
<totfact> 0.21201252E+04</totfact>
</mgrwt>
</event>
<event>
 7    0  0.4737014E-002  0.4570472E+03  0.7546771E-02  0.1025641E+00
         21   -1    0    0  502  501  0.00000000000E+00  0.00000000000E+00  0.40145542003E+02  0.40145542003E+02  0.00000000000E+00 0.  1.
         21   -1    0    0  501  502 -0.00000000000E+00 -0.00000000000E+00 -0.13008424497E+04  0.13008424497E+04  0.00000000000E+00 0.  1.
      99926    2    1    2    0    0 -0.14210854715E-13  0.00000000000E+00 -0.12606969077E+04  0.13409879917E+04  0.45704715382E+03 0.  0.
      99925    2    3    3    0    0  0.85237226900E+02  0.76582215553E+02 -0.81757909083E+03  0.86650814143E+03  0.26319302577E+03 0.  0.
         25    1    3    3    0    0 -0.85237226900E+02 -0.76582215553E+02 -0.44311781686E+03  0.47447985027E+03  0.12509000000E+03 0.  0.
         25    1    4    4    0    0  0.59833220930E+01  0.22464316668E+02 -0.41854418670E+03  0.43745535771E+03  0.12509000000E+03 0.  0.
         25    1    4    4    0    0  0.79253904807E+02  0.54117898884E+02 -0.39903490413E+03  0.42905278372E+03  0.12509000000E+03 0.  0.
<mgrwt>
<rscale>  2 0.45704715E+03</rscale>
<asrwt>0</asrwt>
<pdfrwt beam="1">  1       21 0.59037559E-02 0.45704715E+03</pdfrwt>
<pdfrwt beam="2">  1       21 0.19130037E+00 0.45704715E+03</pdfrwt>
<totfact> 0.27506791E+04</totfact>
</mgrwt>
</event>
<event>
 7    0  0.4737014E-002  0.4548273E+03  0.7546771E-02  0.1026292E+00
         21   -1    0    0  502  501  0.00000000000E+00  0.00000000000E+00  0.98204190604E+03  0.98204190604E+03  0.00000000000E+00 0. -1.
         21   -1    0    0  501  502 -0.00000000000E+00 -0.00000000000E+00 -0.52662692887E+02  0.52662692887E+02  0.00000000000E+00 0. -1.
      99926    2    1    2    0    0  0.00000000000E+00  0.00000000000E+00  0.92937921316E+03  0.10347045989E+04  0.45482731361E+03 0.  0.
      99925    2    3    3    0    0 -0.47526940143E+02  0.78496652777E+02  0.73500471837E+03  0.78600902828E+03  0.26297855802E+03 0.  0.
         25    1    3    3    0    0  0.47526940143E+02 -0.78496652777E+02  0.19437449479E+03  0.24869557065E+03  0.12509000000E+03 0.  0.
         25    1    4    4    0    0  0.49482003864E+01  0.67071708918E+02  0.35490128830E+03  0.38226369349E+03  0.12509000000E+03 0.  0.
         25    1    4    4    0    0 -0.52475140529E+02  0.11424943859E+02  0.38010343007E+03  0.40374533479E+03  0.12509000000E+03 0.  0.
<mgrwt>
<rscale>  2 0.45482731E+03</rscale>
<asrwt>0</asrwt>
<pdfrwt beam="1">  1       21 0.14441792E+00 0.45482731E+03</pdfrwt>
<pdfrwt beam="2">  1       21 0.77445143E-02 0.45482731E+03</pdfrwt>
<totfact> 0.37894746E+04</totfact>
</mgrwt>
</event>
<event>
 7    0  0.4737014E-002  0.4580987E+03  0.7546771E-02  0.1025334E+00
         21   -1    0    0  502  501  0.00000000000E+00  0.00000000000E+00  0.29979057512E+03  0.29979057512E+03  0.00000000000E+00 0. -1.
         21   -1    0    0  501  502 -0.00000000000E+00 -0.00000000000E+00 -0.17500081182E+03  0.17500081182E+03  0.00000000000E+00 0. -1.
      99926    2    1    2    0    0  0.00000000000E+00  0.00000000000E+00  0.12478976330E+03  0.47479138694E+03  0.45809865323E+03 0.  0.
      99925    2    3    3    0    0  0.91516728001E+02 -0.53476086338E+02  0.12733143619E+03  0.31081281665E+03  0.26297587159E+03 0.  0.
         25    1    3    3    0    0 -0.91516728001E+02  0.53476086338E+02 -0.25416728967E+01  0.16397857029E+03  0.12509000000E+03 0.  0.
         25    1    4    4    0    0  0.29752250850E+02 -0.68359255941E+00  0.90301885455E+02  0.15712288931E+03  0.12509000000E+03 0.  0.
         25    1    4    4    0    0  0.61764477150E+02 -0.52792493778E+02  0.37029550738E+02  0.15368992734E+03  0.12509000000E+03 0.  0.
<mgrwt>
<rscale>  2 0.45809865E+03</rscale>
<asrwt>0</asrwt>
<pdfrwt beam="1">  1       21 0.44086849E-01 0.45809865E+03</pdfrwt>
<pdfrwt beam="2">  1       21 0.25735413E-01 0.45809865E+03</pdfrwt>
<totfact> 0.65456996E+04</totfact>
</mgrwt>
</event>
<event>
 7    0  0.4737014E-002  0.4634257E+03  0.7546771E-02  0.1023792E+00
         21   -1    0    0  502  501  0.00000000000E+00  0.00000000000E+00  0.97917517620E+03  0.97917517620E+03  0.00000000000E+00 0.  1.
         21   -1    0    0  501  502 -0.00000000000E+00 -0.00000000000E+00 -0.54832726291E+02  0.54832726291E+02  0.00000000000E+00 0.  1.
      99926    2    1    2    0    0  0.00000000000E+00 -0.14210854715E-13  0.92434244991E+03  0.10340079025E+04  0.46342569816E+03 0.  0.
      99925    2    3    3    0    0 -0.44012508860E+02 -0.11256852647E+03  0.55967307386E+03  0.62997815605E+03  0.26273513925E+03 0.  0.
         25    1    4    4    0    0 -0.56415809268E+02 -0.52906192795E+02  0.33259047771E+03  0.36365607754E+03  0.12509000000E+03 0.  0.
         25    1    4    4    0    0  0.12403300408E+02 -0.59662333680E+02  0.22708259616E+03  0.26632207850E+03  0.12509000000E+03 0.  0.
         25    1    3    3    0    0  0.44012508860E+02  0.11256852647E+03  0.36466937604E+03  0.40402974645E+03  0.12509000000E+03 0.  0.
<mgrwt>
<rscale>  2 0.46342570E+03</rscale>
<asrwt>0</asrwt>
<pdfrwt beam="1">  1       21 0.14399634E+00 0.46342570E+03</pdfrwt>
<pdfrwt beam="2">  1       21 0.80636368E-02 0.46342570E+03</pdfrwt>
<totfact> 0.35478013E+04</totfact>
</mgrwt>
</event>
<event>
 7    0  0.4737014E-002  0.4591812E+03  0.7546771E-02  0.1025019E+00
         21   -1    0    0  502  501  0.00000000000E+00  0.00000000000E+00  0.51201114487E+03  0.51201114487E+03  0.00000000000E+00 0. -1.
         21   -1    0    0  501  502 -0.00000000000E+00 -0.00000000000E+00 -0.10295057627E+03  0.10295057627E+03  0.00000000000E+00 0. -1.
      99926    2    1    2    0    0 -0.71054273576E-14  0.00000000000E+00  0.40906056860E+03  0.61496172115E+03  0.45918119484E+03 0.  0.
      99925    2    3    3    0    0  0.37094708218E+02 -0.66940070225E+02  0.13772344063E+03  0.30653290360E+03  0.26294045811E+03 0.  0.
         25    1    4    4    0    0  0.35229739282E+02 -0.10954420388E+02  0.10009737148E+03  0.16440232886E+03  0.12509000000E+03 0.  0.
         25    1    4    4    0    0  0.18649689355E+01 -0.55985649837E+02  0.37626069144E+02  0.14213057474E+03  0.12509000000E+03 0.  0.
         25    1    3    3    0    0 -0.37094708218E+02  0.66940070225E+02  0.27133712797E+03  0.30842881755E+03  0.12509000000E+03 0.  0.
<mgrwt>
<rscale>  2 0.45918119E+03</rscale>
<asrwt>0</asrwt>
<pdfrwt beam="1">  1       21 0.75295755E-01 0.45918119E+03</pdfrwt>
<pdfrwt beam="2">  1       21 0.15139791E-01 0.45918119E+03</pdfrwt>
<totfact> 0.55897761E+04</totfact>
</mgrwt>
</event>
<event>
 7    0  0.4737014E-002  0.4511312E+03  0.7546771E-02  0.1027385E+00
         21   -1    0    0  502  501  0.00000000000E+00  0.00000000000E+00  0.75183679506E+03  0.75183679506E+03  0.00000000000E+00 0. -1.
         21   -1    0    0  501  502 -0.00000000000E+00 -0.00000000000E+00 -0.67674042560E+02  0.67674042560E+02  0.00000000000E+00 0. -1.
      99926    2    1    2    0    0  0.13322676296E-14  0.00000000000E+00  0.68416275250E+03  0.81951083762E+03  0.45113117945E+03 0.  0.
      99925    2    3    3    0    0 -0.20400387405E+01 -0.48203818973E+02  0.61039476926E+03  0.66648471772E+03  0.26323437216E+03 0.  0.
         25    1    4    4    0    0  0.15023907279E+02 -0.45631743887E+02  0.39127672943E+03  0.41358549411E+03  0.12509000000E+03 0.  0.
         25    1    3    3    0    0  0.20400387405E+01  0.48203818973E+02  0.73767983239E+02  0.15302611990E+03  0.12509000000E+03 0.  0.
         25    1    4    4    0    0 -0.17063946020E+02 -0.25720750853E+01  0.21911803982E+03  0.25289922361E+03  0.12509000000E+03 0.  0.
<mgrwt>
<rscale>  2 0.45113118E+03</rscale>
<asrwt>0</asrwt>
<pdfrwt beam="1">  1       21 0.11056423E+00 0.45113118E+03</pdfrwt>
<pdfrwt beam="2">  1       21 0.99520655E-02 0.45113118E+03</pdfrwt>
<totfact> 0.48284735E+04</totfact>
</mgrwt>
</event>
<event>
 7    0  0.4737014E-002  0.4572932E+03  0.7546771E-02  0.1025569E+00
         21   -1    0    0  502  501  0.00000000000E+00  0.00000000000E+00  0.17896456638E+03  0.17896456638E+03  0.00000000000E+00 0. -1.
         21   -1    0    0  501  502 -0.00000000000E+00 -0.00000000000E+00 -0.29212073756E+03  0.29212073756E+03  0.00000000000E+00 0. -1.
      99926    2    1    2    0    0  0.00000000000E+00  0.35527136788E-14 -0.11315617118E+03  0.47108530395E+03  0.45729317130E+03 0.  0.
      99925    2    3    3    0    0 -0.84358386420E+02 -0.12790603578E+02 -0.15102054098E+03  0.31500469817E+03  0.26294641883E+03 0.  0.
         25    1    4    4    0    0 -0.38590065999E+02  0.20220130824E+02 -0.39642006185E+02  0.13826439758E+03  0.12509000000E+03 0.  0.
         25    1    3    3    0    0  0.84358386420E+02  0.12790603578E+02  0.37864369797E+02  0.15608060578E+03  0.12509000000E+03 0.  0.
         25    1    4    4    0    0 -0.45768320421E+02 -0.33010734402E+02 -0.11137853479E+03  0.17674030059E+03  0.12509000000E+03 0.  0.
<mgrwt>
<rscale>  2 0.45729317E+03</rscale>
<asrwt>0</asrwt>
<pdfrwt beam="1">  1       21 0.26318319E-01 0.45729317E+03</pdfrwt>
<pdfrwt beam="2">  1       21 0.42958931E-01 0.45729317E+03</pdfrwt>
<totfact> 0.66143655E+04</totfact>
</mgrwt>
</event>
<event>
 7    0  0.4737014E-002  0.4527406E+03  0.7546771E-02  0.1026908E+00
         21   -1    0    0  502  501  0.00000000000E+00  0.00000000000E+00  0.24463156688E+03  0.24463156688E+03  0.00000000000E+00 0.  1.
         21   -1    0    0  501  502 -0.00000000000E+00 -0.00000000000E+00 -0.20947216754E+03  0.20947216754E+03  0.00000000000E+00 0.  1.
      99926    2    1    2    0    0  0.00000000000E+00  0.00000000000E+00  0.35159399342E+02  0.45410373442E+03  0.45274056396E+03 0.  0.
      99925    2    3    3    0    0  0.65302729131E+01 -0.63281620802E+02 -0.69211122382E+02  0.27920970393E+03  0.26290810431E+03 0.  0.
         25    1    4    4    0    0 -0.33245772209E+02 -0.28756967825E+02 -0.51897723819E+02  0.14238372943E+03  0.12509000000E+03 0.  0.
         25    1    3    3    0    0 -0.65302729131E+01  0.63281620802E+02  0.10437052172E+03  0.17489403049E+03  0.12509000000E+03 0.  0.
         25    1    4    4    0    0  0.39776045122E+02 -0.34524652977E+02 -0.17313398563E+02  0.13682597450E+03  0.12509000000E+03 0.  0.
<mgrwt>
<rscale>  2 0.45274056E+03</rscale>
<asrwt>0</asrwt>
<pdfrwt beam="1">  1       21 0.35975230E-01 0.45274056E+03</pdfrwt>
<pdfrwt beam="2">  1       21 0.30804730E-01 0.45274056E+03</pdfrwt>
<totfact> 0.69862506E+04</totfact>
</mgrwt>
</event>
<event>
 7    0  0.4737014E-002  0.4305238E+03  0.7546771E-02  0.1033695E+00
         21   -1    0    0  502  501  0.00000000000E+00  0.00000000000E+00  0.13979541556E+03  0.13979541556E+03  0.00000000000E+00 0. -1.
         21   -1    0    0  501  502 -0.00000000000E+00 -0.00000000000E+00 -0.33146790362E+03  0.33146790362E+03  0.00000000000E+00 0. -1.
      99926    2    1    2    0    0  0.00000000000E+00  0.17763568394E-14 -0.19167248807E+03  0.47126331918E+03  0.43052383595E+03 0.  0.
      99925    2    3    3    0    0 -0.84402921945E+02  0.44372009188E+01 -0.95836373762E+02  0.29244606361E+03  0.26305236665E+03 0.  0.
         25    1    3    3    0    0  0.84402921945E+02 -0.44372009188E+01 -0.95836114304E+02  0.17881725557E+03  0.12509000000E+03 0.  0.
         25    1    4    4    0    0 -0.50235857974E+02  0.28546547969E+02 -0.80708278213E+02  0.15968682193E+03  0.12509000000E+03 0.  0.
         25    1    4    4    0    0 -0.34167063971E+02 -0.24109347050E+02 -0.15128095549E+02  0.13275924168E+03  0.12509000000E+03 0.  0.
<mgrwt>
<rscale>  2 0.43052384E+03</rscale>
<asrwt>0</asrwt>
<pdfrwt beam="1">  1       21 0.20558149E-01 0.43052384E+03</pdfrwt>
<pdfrwt beam="2">  1       21 0.48745280E-01 0.43052384E+03</pdfrwt>
<totfact> 0.82186172E+04</totfact>
</mgrwt>
</event>
<event>
 7    0  0.4737014E-002  0.4578641E+03  0.7546771E-02  0.1025403E+00
         21   -1    0    0  502  501  0.00000000000E+00  0.00000000000E+00  0.13503996999E+03  0.13503996999E+03  0.00000000000E+00 0. -1.
         21   -1    0    0  501  502 -0.00000000000E+00 -0.00000000000E+00 -0.38810636852E+03  0.38810636852E+03  0.00000000000E+00 0. -1.
      99926    2    1    2    0    0  0.00000000000E+00  0.00000000000E+00 -0.25306639853E+03  0.52314633850E+03  0.45786405124E+03 0.  0.
      99925    2    3    3    0    0 -0.66219145365E+02 -0.91399089509E+02 -0.18857461320E+03  0.34274271534E+03  0.26300839416E+03 0.  0.
         25    1    3    3    0    0  0.66219145365E+02  0.91399089509E+02 -0.64491785335E+02  0.18040362317E+03  0.12509000000E+03 0.  0.
         25    1    4    4    0    0 -0.35145785475E+02 -0.84508576326E+02 -0.81984854492E+02  0.17534523140E+03  0.12509000000E+03 0.  0.
         25    1    4    4    0    0 -0.31073359890E+02 -0.68905131831E+01 -0.10658975870E+03  0.16739748393E+03  0.12509000000E+03 0.  0.
<mgrwt>
<rscale>  2 0.45786405E+03</rscale>
<asrwt>0</asrwt>
<pdfrwt beam="1">  1       21 0.19858819E-01 0.45786405E+03</pdfrwt>
<pdfrwt beam="2">  1       21 0.57074466E-01 0.45786405E+03</pdfrwt>
<totfact> 0.62246958E+04</totfact>
</mgrwt>
</event>
<event>
 6    0  0.4737014E-002  0.4628139E+03  0.7546771E-02  0.1023968E+00
         21   -1    0    0  502  501  0.00000000000E+00  0.00000000000E+00  0.12473424763E+04  0.12473424763E+04  0.00000000000E+00 0. -1.
         21   -1    0    0  501  502 -0.00000000000E+00 -0.00000000000E+00 -0.42930609399E+02  0.42930609399E+02  0.00000000000E+00 0. -1.
      99926    2    1    2    0    0 -0.71054273576E-14  0.00000000000E+00  0.12044118669E+04  0.12902730857E+04  0.46281388327E+03 0.  0.
         25    1    3    3    0    0 -0.48666948226E+02  0.10231549263E+03  0.58882081677E+03  0.61253113737E+03  0.12509000000E+03 0.  0.
         25    1    3    3    0    0  0.42908694469E+02 -0.77685201685E+02  0.38040683295E+03  0.41016217924E+03  0.12509000000E+03 0.  0.
         25    1    3    3    0    0  0.57582537568E+01 -0.24630290946E+02  0.23518421719E+03  0.26757976910E+03  0.12509000000E+03 0.  0.
<mgrwt>
<rscale>  2 0.46281388E+03</rscale>
<asrwt>0</asrwt>
<pdfrwt beam="1">  1       21 0.18343269E+00 0.46281388E+03</pdfrwt>
<pdfrwt beam="2">  1       21 0.63133257E-02 0.46281388E+03</pdfrwt>
<totfact> 0.27677105E+04</totfact>
</mgrwt>
</event>
<event>
 7    0  0.4737014E-002  0.4652767E+03  0.7546771E-02  0.1023262E+00
         21   -1    0    0  502  501  0.00000000000E+00  0.00000000000E+00  0.73594692654E+03  0.73594692654E+03  0.00000000000E+00 0. -1.
         21   -1    0    0  501  502 -0.00000000000E+00 -0.00000000000E+00 -0.73538726740E+02  0.73538726740E+02  0.00000000000E+00 0. -1.
      99926    2    1    2    0    0 -0.35527136788E-14  0.00000000000E+00  0.66240819980E+03  0.80948565328E+03  0.46527669155E+03 0.  0.
      99925    2    3    3    0    0 -0.26925426433E+02  0.11645848842E+03  0.36623300131E+03  0.46647717756E+03  0.26303381498E+03 0.  0.
         25    1    4    4    0    0 -0.53728875609E+02  0.53825519102E+02  0.19129543623E+03  0.24088468321E+03  0.12509000000E+03 0.  0.
         25    1    3    3    0    0  0.26925426433E+02 -0.11645848842E+03  0.29617519848E+03  0.34300847571E+03  0.12509000000E+03 0.  0.
         25    1    4    4    0    0  0.26803449176E+02  0.62632969319E+02  0.17493756508E+03  0.22559249436E+03  0.12509000000E+03 0.  0.
<mgrwt>
<rscale>  2 0.46527669E+03</rscale>
<asrwt>0</asrwt>
<pdfrwt beam="1">  1       21 0.10822749E+00 0.46527669E+03</pdfrwt>
<pdfrwt beam="2">  1       21 0.10814519E-01 0.46527669E+03</pdfrwt>
<totfact> 0.43679007E+04</totfact>
</mgrwt>
</event>
<event>
 6    0  0.4737014E-002  0.4549975E+03  0.7546771E-02  0.1026242E+00
         21   -1    0    0  502  501  0.00000000000E+00  0.00000000000E+00  0.80129550421E+02  0.80129550421E+02  0.00000000000E+00 0.  1.
         21   -1    0    0  501  502 -0.00000000000E+00 -0.00000000000E+00 -0.64590009889E+03  0.64590009889E+03  0.00000000000E+00 0.  1.
      99926    2    1    2    0    0  0.00000000000E+00  0.00000000000E+00 -0.56577054847E+03  0.72602964931E+03  0.45499751446E+03 0.  0.
         25    1    3    3    0    0 -0.15061882831E+02  0.21311049495E+02 -0.11072044159E+03  0.16907851854E+03  0.12509000000E+03 0.  0.
         25    1    3    3    0    0 -0.84623226510E+02  0.45105250323E+01 -0.15818573230E+03  0.21875024412E+03  0.12509000000E+03 0.  0.
         25    1    3    3    0    0  0.99685109341E+02 -0.25821574527E+02 -0.29686437459E+03  0.33820088665E+03  0.12509000000E+03 0.  0.
<mgrwt>
<rscale>  2 0.45499751E+03</rscale>
<asrwt>0</asrwt>
<pdfrwt beam="1">  1       21 0.11783758E-01 0.45499751E+03</pdfrwt>
<pdfrwt beam="2">  1       21 0.94985306E-01 0.45499751E+03</pdfrwt>
<totfact> 0.51513448E+04</totfact>
</mgrwt>
</event>
<event>
 7    0  0.4737014E-002  0.4579825E+03  0.7546771E-02  0.1025368E+00
         21   -1    0    0  502  501  0.00000000000E+00  0.00000000000E+00  0.18960903851E+03  0.18960903851E+03  0.00000000000E+00 0.  1.
         21   -1    0    0  501  502 -0.00000000000E+00 -0.00000000000E+00 -0.27655327064E+03  0.27655327064E+03  0.00000000000E+00 0.  1.
      99926    2    1    2    0    0  0.00000000000E+00  0.00000000000E+00 -0.86944232136E+02  0.46616230915E+03  0.45798253130E+03 0.  0.
      99925    2    3    3    0    0 -0.65967662164E+02  0.77520897879E+02 -0.11072304759E+03  0.30314647488E+03  0.26320518594E+03 0.  0.
         25    1    3    3    0    0  0.65967662164E+02 -0.77520897879E+02  0.23778815458E+02  0.16301583427E+03  0.12509000000E+03 0.  0.
         25    1    4    4    0    0 -0.29378352090E+02  0.66749887871E+02 -0.90668920239E+02  0.17084202147E+03  0.12509000000E+03 0.  0.
         25    1    4    4    0    0 -0.36589310075E+02  0.10771010008E+02 -0.20054127355E+02  0.13230445341E+03  0.12509000000E+03 0.  0.
<mgrwt>
<rscale>  2 0.45798253E+03</rscale>
<asrwt>0</asrwt>
<pdfrwt beam="1">  1       21 0.27883682E-01 0.45798253E+03</pdfrwt>
<pdfrwt beam="2">  1       21 0.40669598E-01 0.45798253E+03</pdfrwt>
<totfact> 0.66141865E+04</totfact>
</mgrwt>
</event>
<event>
 7    0  0.4737014E-002  0.4450791E+03  0.7546771E-02  0.1029200E+00
         21   -1    0    0  502  501  0.00000000000E+00  0.00000000000E+00  0.14204104254E+03  0.14204104254E+03  0.00000000000E+00 0. -1.
         21   -1    0    0  501  502 -0.00000000000E+00 -0.00000000000E+00 -0.34865871239E+03  0.34865871239E+03  0.00000000000E+00 0. -1.
      99926    2    1    2    0    0  0.00000000000E+00 -0.71054273576E-14 -0.20661766985E+03  0.49069975493E+03  0.44507908061E+03 0.  0.
      99925    2    3    3    0    0 -0.50419250398E+02  0.57798967443E+02 -0.54897871557E+02  0.27963287751E+03  0.26324503497E+03 0.  0.
         25    1    3    3    0    0  0.50419250398E+02 -0.57798967443E+02 -0.15171979829E+03  0.21106687741E+03  0.12509000000E+03 0.  0.
         25    1    4    4    0    0 -0.35369550644E+02  0.63186145085E+02 -0.69051057492E+01  0.14470204777E+03  0.12509000000E+03 0.  0.
         25    1    4    4    0    0 -0.15049699754E+02 -0.53871776417E+01 -0.47992765808E+02  0.13493082974E+03  0.12509000000E+03 0.  0.
<mgrwt>
<rscale>  2 0.44507908E+03</rscale>
<asrwt>0</asrwt>
<pdfrwt beam="1">  1       21 0.20888388E-01 0.44507908E+03</pdfrwt>
<pdfrwt beam="2">  1       21 0.51273340E-01 0.44507908E+03</pdfrwt>
<totfact> 0.71387837E+04</totfact>
</mgrwt>
</event>
<event>
 7    0  0.4737014E-002  0.4572320E+03  0.7546771E-02  0.1025587E+00
         21   -1    0    0  502  501  0.00000000000E+00  0.00000000000E+00  0.22921814765E+04  0.22921814765E+04  0.00000000000E+00 0. -1.
         21   -1    0    0  501  502 -0.00000000000E+00 -0.00000000000E+00 -0.22801543885E+02  0.22801543885E+02  0.00000000000E+00 0. -1.
      99926    2    1    2    0    0 -0.14210854715E-13  0.00000000000E+00  0.22693799326E+04  0.23149830204E+04  0.45723200470E+03 0.  0.
      99925    2    3    3    0    0 -0.92574106875E+02  0.39948323971E+02  0.11421878566E+04  0.11763982329E+04  0.26297123202E+03 0.  0.
         25    1    3    3    0    0  0.92574106875E+02 -0.39948323971E+02  0.11271920761E+04  0.11385847875E+04  0.12509000000E+03 0.  0.
         25    1    4    4    0    0 -0.65911106054E+02  0.55618718838E+02  0.57243882275E+03  0.59225959652E+03  0.12509000000E+03 0.  0.
         25    1    4    4    0    0 -0.26663000821E+02 -0.15670394867E+02  0.56974903383E+03  0.58413863640E+03  0.12509000000E+03 0.  0.
<mgrwt>
<rscale>  2 0.45723200E+03</rscale>
<asrwt>0</asrwt>
<pdfrwt beam="1">  1       21 0.33708535E+00 0.45723200E+03</pdfrwt>
<pdfrwt beam="2">  1       21 0.33531698E-02 0.45723200E+03</pdfrwt>
<totfact> 0.90571040E+03</totfact>
</mgrwt>
</event>
<event>
 7    0  0.4737014E-002  0.4498248E+03  0.7546771E-02  0.1027774E+00
         21   -1    0    0  502  501  0.00000000000E+00  0.00000000000E+00  0.48319355211E+02  0.48319355211E+02  0.00000000000E+00 0.  1.
         21   -1    0    0  501  502 -0.00000000000E+00 -0.00000000000E+00 -0.10469013380E+04  0.10469013380E+04  0.00000000000E+00 0.  1.
      99926    2    1    2    0    0  0.00000000000E+00  0.35527136788E-14 -0.99858198280E+03  0.10952206932E+04  0.44982484423E+03 0.  0.
      99925    2    3    3    0    0 -0.74083456881E+02  0.18203302926E+02 -0.44238054900E+03  0.52004484021E+03  0.26253831507E+03 0.  0.
         25    1    4    4    0    0 -0.76838351541E+02 -0.61046146437E+00 -0.24321970604E+03  0.28409125020E+03  0.12509000000E+03 0.  0.
         25    1    3    3    0    0  0.74083456881E+02 -0.18203302926E+02 -0.55620143381E+03  0.57517585302E+03  0.12509000000E+03 0.  0.
         25    1    4    4    0    0  0.27548946603E+01  0.18813764390E+02 -0.19916084295E+03  0.23595359002E+03  0.12509000000E+03 0.  0.
<mgrwt>
<rscale>  2 0.44982484E+03</rscale>
<asrwt>0</asrwt>
<pdfrwt beam="1">  1       21 0.71057883E-02 0.44982484E+03</pdfrwt>
<pdfrwt beam="2">  1       21 0.15395606E+00 0.44982484E+03</pdfrwt>
<totfact> 0.37137281E+04</totfact>
</mgrwt>
</event>
<event>
 7    0  0.4737014E-002  0.4541062E+03  0.7546771E-02  0.1026505E+00
         21   -1    0    0  502  501  0.00000000000E+00  0.00000000000E+00  0.12191243352E+03  0.12191243352E+03  0.00000000000E+00 0.  1.
         21   -1    0    0  501  502 -0.00000000000E+00 -0.00000000000E+00 -0.42286991801E+03  0.42286991801E+03  0.00000000000E+00 0.  1.
      99926    2    1    2    0    0  0.17763568394E-14  0.00000000000E+00 -0.30095748449E+03  0.54478235153E+03  0.45410615837E+03 0.  0.
      99925    2    3    3    0    0 -0.13948754227E+02 -0.64737955727E+02 -0.29837532201E+03  0.40322054058E+03  0.26300836660E+03 0.  0.
         25    1    4    4    0    0 -0.40375176227E+02 -0.54782936805E+02 -0.17007648888E+03  0.22182165176E+03  0.12509000000E+03 0.  0.
         25    1    3    3    0    0  0.13948754227E+02  0.64737955727E+02 -0.25821624789E+01  0.14156181095E+03  0.12509000000E+03 0.  0.
         25    1    4    4    0    0  0.26426422001E+02 -0.99550189222E+01 -0.12829883313E+03  0.18139888882E+03  0.12509000000E+03 0.  0.
<mgrwt>
<rscale>  2 0.45410616E+03</rscale>
<asrwt>0</asrwt>
<pdfrwt beam="1">  1       21 0.17928299E-01 0.45410616E+03</pdfrwt>
<pdfrwt beam="2">  1       21 0.62186752E-01 0.45410616E+03</pdfrwt>
<totfact> 0.62654597E+04</totfact>
</mgrwt>
</event>
<event>
 7    0  0.4737014E-002  0.4621649E+03  0.7546771E-02  0.1024155E+00
         21   -1    0    0  502  501  0.00000000000E+00  0.00000000000E+00  0.56037863021E+03  0.56037863021E+03  0.00000000000E+00 0.  1.
         21   -1    0    0  501  502 -0.00000000000E+00 -0.00000000000E+00 -0.95291097789E+02  0.95291097789E+02  0.00000000000E+00 0.  1.
      99926    2    1    2    0    0  0.00000000000E+00  0.00000000000E+00  0.46508753243E+03  0.65566972800E+03  0.46216488335E+03 0.  0.
      99925    2    3    3    0    0 -0.43660813174E+02  0.94963321569E+02  0.37384058623E+03  0.46886016631E+03  0.26296154203E+03 0.  0.
         25    1    4    4    0    0 -0.51556141236E+02  0.45670658707E+02  0.14624051179E+03  0.20439579290E+03  0.12509000000E+03 0.  0.
         25    1    3    3    0    0  0.43660813174E+02 -0.94963321569E+02  0.91246946192E+02  0.18680956169E+03  0.12509000000E+03 0.  0.
         25    1    4    4    0    0  0.78953280612E+01  0.49292662862E+02  0.22760007445E+03  0.26446437342E+03  0.12509000000E+03 0.  0.
<mgrwt>
<rscale>  2 0.46216488E+03</rscale>
<asrwt>0</asrwt>
<pdfrwt beam="1">  1       21 0.82408621E-01 0.46216488E+03</pdfrwt>
<pdfrwt beam="2">  1       21 0.14013397E-01 0.46216488E+03</pdfrwt>
<totfact> 0.52353848E+04</totfact>
</mgrwt>
</event>
<event>
 7    0  0.4737014E-002  0.4544850E+03  0.7546771E-02  0.1026393E+00
         21   -1    0    0  502  501  0.00000000000E+00  0.00000000000E+00  0.32951210534E+03  0.32951210534E+03  0.00000000000E+00 0.  1.
         21   -1    0    0  501  502 -0.00000000000E+00 -0.00000000000E+00 -0.15671395156E+03  0.15671395156E+03  0.00000000000E+00 0.  1.
      99926    2    1    2    0    0  0.00000000000E+00 -0.14210854715E-13  0.17279815377E+03  0.48622605690E+03  0.45448495735E+03 0.  0.
      99925    2    3    3    0    0 -0.26753250892E+02 -0.10909420650E+03  0.99245745113E+02  0.30271925254E+03  0.26300559996E+03 0.  0.
         25    1    4    4    0    0  0.22367362314E+02 -0.55230532884E+02  0.69102210421E+02  0.15483324657E+03  0.12509000000E+03 0.  0.
         25    1    3    3    0    0  0.26753250892E+02  0.10909420650E+03  0.73552408661E+02  0.18350680436E+03  0.12509000000E+03 0.  0.
         25    1    4    4    0    0 -0.49120613206E+02 -0.53863673619E+02  0.30143534692E+02  0.14788600597E+03  0.12509000000E+03 0.  0.
<mgrwt>
<rscale>  2 0.45448496E+03</rscale>
<asrwt>0</asrwt>
<pdfrwt beam="1">  1       21 0.48457663E-01 0.45448496E+03</pdfrwt>
<pdfrwt beam="2">  1       21 0.23046169E-01 0.45448496E+03</pdfrwt>
<totfact> 0.66521177E+04</totfact>
</mgrwt>
</event>
<event>
 7    0  0.4737014E-002  0.4547155E+03  0.7546771E-02  0.1026325E+00
         21   -1    0    0  502  501  0.00000000000E+00  0.00000000000E+00  0.27599707598E+03  0.27599707598E+03  0.00000000000E+00 0.  1.
         21   -1    0    0  501  502 -0.00000000000E+00 -0.00000000000E+00 -0.18729019378E+03  0.18729019378E+03  0.00000000000E+00 0.  1.
      99926    2    1    2    0    0  0.00000000000E+00 -0.17763568394E-14  0.88706882199E+02  0.46328726976E+03  0.45471549717E+03 0.  0.
      99925    2    3    3    0    0 -0.74381540130E+02 -0.13015017657E+02  0.14110534308E+03  0.30806127000E+03  0.26322808367E+03 0.  0.
         25    1    4    4    0    0 -0.48322583152E+02 -0.42697249498E+02  0.54731325554E+02  0.15100050746E+03  0.12509000000E+03 0.  0.
         25    1    4    4    0    0 -0.26058956977E+02  0.29682231841E+02  0.86374017528E+02  0.15706076254E+03  0.12509000000E+03 0.  0.
         25    1    3    3    0    0  0.74381540130E+02  0.13015017657E+02 -0.52398460883E+02  0.15522599975E+03  0.12509000000E+03 0.  0.
<mgrwt>
<rscale>  2 0.45471550E+03</rscale>
<asrwt>0</asrwt>
<pdfrwt beam="1">  1       21 0.40587805E-01 0.45471550E+03</pdfrwt>
<pdfrwt beam="2">  1       21 0.27542675E-01 0.45471550E+03</pdfrwt>
<totfact> 0.68091395E+04</totfact>
</mgrwt>
</event>
<event>
 7    0  0.4737014E-002  0.4416993E+03  0.7546771E-02  0.1030227E+00
         21   -1    0    0  502  501  0.00000000000E+00  0.00000000000E+00  0.50691588953E+02  0.50691588953E+02  0.00000000000E+00 0.  1.
         21   -1    0    0  501  502 -0.00000000000E+00 -0.00000000000E+00 -0.96218261814E+03  0.96218261814E+03  0.00000000000E+00 0.  1.
      99926    2    1    2    0    0  0.00000000000E+00  0.00000000000E+00 -0.91149102918E+03  0.10128742071E+04  0.44169929036E+03 0.  0.
      99925    2    3    3    0    0  0.19602823566E+02 -0.97076569466E+02 -0.61261477781E+03  0.67407832051E+03  0.26320445504E+03 0.  0.
         25    1    3    3    0    0 -0.19602823566E+02  0.97076569466E+02 -0.29887625137E+03  0.33879588658E+03  0.12509000000E+03 0.  0.
         25    1    4    4    0    0 -0.13241138523E+02 -0.35598666881E+02 -0.21689607757E+03  0.25324693364E+03  0.12509000000E+03 0.  0.
         25    1    4    4    0    0  0.32843962089E+02 -0.61477902585E+02 -0.39571870024E+03  0.42083138687E+03  0.12509000000E+03 0.  0.
<mgrwt>
<rscale>  2 0.44169929E+03</rscale>
<asrwt>0</asrwt>
<pdfrwt beam="1">  1       21 0.74546449E-02 0.44169929E+03</pdfrwt>
<pdfrwt beam="2">  1       21 0.14149745E+00 0.44169929E+03</pdfrwt>
<totfact> 0.42961117E+04</totfact>
</mgrwt>
</event>
<event>
 7    0  0.4737014E-002  0.4669330E+03  0.7546771E-02  0.1022789E+00
         21   -1    0    0  502  501  0.00000000000E+00  0.00000000000E+00  0.18262780498E+03  0.18262780498E+03  0.00000000000E+00 0.  1.
         21   -1    0    0  501  502 -0.00000000000E+00 -0.00000000000E+00 -0.29845734428E+03  0.29845734428E+03  0.00000000000E+00 0.  1.
      99926    2    1    2    0    0 -0.71054273576E-14 -0.15543122345E-14 -0.11582953930E+03  0.48108514926E+03  0.46693301304E+03 0.  0.
      99925    2    3    3    0    0 -0.63111896487E+02  0.17220053689E+01 -0.18214614643E+03  0.32606425628E+03  0.26297262934E+03 0.  0.
         25    1    4    4    0    0 -0.30420012257E+02 -0.28614468434E+02 -0.12425098584E+03  0.18119045376E+03  0.12509000000E+03 0.  0.
         25    1    4    4    0    0 -0.32691884231E+02  0.30336473803E+02 -0.57895160589E+02  0.14487380252E+03  0.12509000000E+03 0.  0.
         25    1    3    3    0    0  0.63111896487E+02 -0.17220053689E+01  0.66316607133E+02  0.15502089299E+03  0.12509000000E+03 0.  0.
<mgrwt>
<rscale>  2 0.46693301E+03</rscale>
<asrwt>0</asrwt>
<pdfrwt beam="1">  1       21 0.26857030E-01 0.46693301E+03</pdfrwt>
<pdfrwt beam="2">  1       21 0.43890786E-01 0.46693301E+03</pdfrwt>
<totfact> 0.60669558E+04</totfact>
</mgrwt>
</event>
<event>
 7    0  0.4737014E-002  0.4509773E+03  0.7546771E-02  0.1027431E+00
         21   -1    0    0  502  501  0.00000000000E+00  0.00000000000E+00  0.41149196353E+02  0.41149196353E+02  0.00000000000E+00 0.  1.
         21   -1    0    0  501  502 -0.00000000000E+00 -0.00000000000E+00 -0.12356287422E+04  0.12356287422E+04  0.00000000000E+00 0.  1.
      99926    2    1    2    0    0  0.14210854715E-13  0.35527136788E-14 -0.11944795459E+04  0.12767779386E+04  0.45097729315E+03 0.  0.
      99925    2    3    3    0    0 -0.10186960651E+03 -0.20424898781E+02 -0.65938437503E+03  0.71752044585E+03  0.26316010896E+03 0.  0.
         25    1    3    3    0    0  0.10186960651E+03  0.20424898781E+02 -0.53509517085E+03  0.55925749274E+03  0.12509000000E+03 0.  0.
         25    1    4    4    0    0 -0.64508594858E+02  0.27360689711E+02 -0.31286482268E+03  0.34415384863E+03  0.12509000000E+03 0.  0.
         25    1    4    4    0    0 -0.37361011653E+02 -0.47785588492E+02 -0.34651955235E+03  0.37336659722E+03  0.12509000000E+03 0.  0.
<mgrwt>
<rscale>  2 0.45097729E+03</rscale>
<asrwt>0</asrwt>
<pdfrwt beam="1">  1       21 0.60513520E-02 0.45097729E+03</pdfrwt>
<pdfrwt beam="2">  1       21 0.18171012E+00 0.45097729E+03</pdfrwt>
<totfact> 0.30747724E+04</totfact>
</mgrwt>
</event>
<event>
 7    0  0.4737014E-002  0.4552834E+03  0.7546771E-02  0.1026158E+00
         21   -1    0    0  502  501  0.00000000000E+00  0.00000000000E+00  0.67611599549E+03  0.67611599549E+03  0.00000000000E+00 0. -1.
         21   -1    0    0  501  502 -0.00000000000E+00 -0.00000000000E+00 -0.76644742512E+02  0.76644742512E+02  0.00000000000E+00 0. -1.
      99926    2    1    2    0    0 -0.14210854715E-13  0.00000000000E+00  0.59947125298E+03  0.75276073801E+03  0.45528336839E+03 0.  0.
      99925    2    3    3    0    0 -0.11257600323E+03 -0.48837359591E+01  0.39880824323E+03  0.49082494633E+03  0.26299031482E+03 0.  0.
         25    1    3    3    0    0  0.11257600323E+03  0.48837359591E+01  0.20066300975E+03  0.26193579168E+03  0.12509000000E+03 0.  0.
         25    1    4    4    0    0 -0.75585403512E+02  0.27029155996E+02  0.24579064344E+03  0.28723557753E+03  0.12509000000E+03 0.  0.
         25    1    4    4    0    0 -0.36990599718E+02 -0.31912891955E+02  0.15301759979E+03  0.20358936880E+03  0.12509000000E+03 0.  0.
<mgrwt>
<rscale>  2 0.45528337E+03</rscale>
<asrwt>0</asrwt>
<pdfrwt beam="1">  1       21 0.99428820E-01 0.45528337E+03</pdfrwt>
<pdfrwt beam="2">  1       21 0.11271286E-01 0.45528337E+03</pdfrwt>
<totfact> 0.50018773E+04</totfact>
</mgrwt>
</event>
<event>
 7    0  0.4737014E-002  0.3983853E+03  0.7546771E-02  0.1044340E+00
         21   -1    0    0  502  501  0.00000000000E+00  0.00000000000E+00  0.53492886295E+02  0.53492886295E+02  0.00000000000E+00 0. -1.
         21   -1    0    0  501  502 -0.00000000000E+00 -0.00000000000E+00 -0.74173822895E+03  0.74173822895E+03  0.00000000000E+00 0. -1.
      99926    2    1    2    0    0  0.00000000000E+00  0.00000000000E+00 -0.68824534265E+03  0.79523111524E+03  0.39838533478E+03 0.  0.
      99925    2    3    3    0    0  0.30625716099E+02  0.82769225641E+01 -0.40447461299E+03  0.48349440414E+03  0.26298419030E+03 0.  0.
         25    1    4    4    0    0 -0.66077125201E+00  0.12100114929E+02 -0.13331482992E+03  0.18321354037E+03  0.12509000000E+03 0.  0.
         25    1    4    4    0    0  0.31286487351E+02 -0.38231923645E+01 -0.27115978307E+03  0.30028086377E+03  0.12509000000E+03 0.  0.
         25    1    3    3    0    0 -0.30625716099E+02 -0.82769225641E+01 -0.28377072966E+03  0.31173671110E+03  0.12509000000E+03 0.  0.
<mgrwt>
<rscale>  2 0.39838533E+03</rscale>
<asrwt>0</asrwt>
<pdfrwt beam="1">  1       21 0.78666017E-02 0.39838533E+03</pdfrwt>
<pdfrwt beam="2">  1       21 0.10907914E+00 0.39838533E+03</pdfrwt>
<totfact> 0.76873110E+04</totfact>
</mgrwt>
</event>
<event>
 7    0  0.4737014E-002  0.4539260E+03  0.7546771E-02  0.1026558E+00
         21   -1    0    0  502  501  0.00000000000E+00  0.00000000000E+00  0.65915636568E+03  0.65915636568E+03  0.00000000000E+00 0.  1.
         21   -1    0    0  501  502 -0.00000000000E+00 -0.00000000000E+00 -0.78148695045E+02  0.78148695045E+02  0.00000000000E+00 0.  1.
      99926    2    1    2    0    0  0.00000000000E+00 -0.14210854715E-13  0.58100767064E+03  0.73730506073E+03  0.45392602837E+03 0.  0.
      99925    2    3    3    0    0 -0.75363165912E+02 -0.78331664135E+02  0.32103729717E+03  0.42900721843E+03  0.26299580018E+03 0.  0.
         25    1    3    3    0    0  0.75363165912E+02  0.78331664135E+02  0.25997037346E+03  0.30829784229E+03  0.12509000000E+03 0.  0.
         25    1    4    4    0    0 -0.47802306668E+02 -0.33151445593E+02  0.22019061833E+03  0.25983744027E+03  0.12509000000E+03 0.  0.
         25    1    4    4    0    0 -0.27560859244E+02 -0.45180218542E+02  0.10084667884E+03  0.16916977816E+03  0.12509000000E+03 0.  0.
<mgrwt>
<rscale>  2 0.45392603E+03</rscale>
<asrwt>0</asrwt>
<pdfrwt beam="1">  1       21 0.96934757E-01 0.45392603E+03</pdfrwt>
<pdfrwt beam="2">  1       21 0.11492456E-01 0.45392603E+03</pdfrwt>
<totfact> 0.51356165E+04</totfact>
</mgrwt>
</event>
<event>
 7    0  0.4737014E-002  0.4531425E+03  0.7546771E-02  0.1026789E+00
         21   -1    0    0  502  501  0.00000000000E+00  0.00000000000E+00  0.13465385364E+03  0.13465385364E+03  0.00000000000E+00 0.  1.
         21   -1    0    0  501  502 -0.00000000000E+00 -0.00000000000E+00 -0.38123331984E+03  0.38123331984E+03  0.00000000000E+00 0.  1.
      99926    2    1    2    0    0  0.00000000000E+00  0.35527136788E-14 -0.24657946620E+03  0.51588717348E+03  0.45314251909E+03 0.  0.
      99925    2    3    3    0    0 -0.27798197363E+02  0.30678316068E+02 -0.27349072152E+03  0.38140437675E+03  0.26259898132E+03 0.  0.
         25    1    3    3    0    0  0.27798197363E+02 -0.30678316068E+02  0.26911255318E+02  0.13448279673E+03  0.12509000000E+03 0.  0.
         25    1    4    4    0    0 -0.43367432016E+01  0.32087480297E+01 -0.81382524515E+02  0.14933093049E+03  0.12509000000E+03 0.  0.
         25    1    4    4    0    0 -0.23461454161E+02  0.27469568038E+02 -0.19210819701E+03  0.23207344625E+03  0.12509000000E+03 0.  0.
<mgrwt>
<rscale>  2 0.45314252E+03</rscale>
<asrwt>0</asrwt>
<pdfrwt beam="1">  1       21 0.19802038E-01 0.45314252E+03</pdfrwt>
<pdfrwt beam="2">  1       21 0.56063723E-01 0.45314252E+03</pdfrwt>
<totfact> 0.65122870E+04</totfact>
</mgrwt>
</event>
<event>
 7    0  0.4737014E-002  0.4541953E+03  0.7546771E-02  0.1026478E+00
         21   -1    0    0  502  501  0.00000000000E+00  0.00000000000E+00  0.11604065568E+04  0.11604065568E+04  0.00000000000E+00 0. -1.
         21   -1    0    0  501  502 -0.00000000000E+00 -0.00000000000E+00 -0.44444195269E+02  0.44444195269E+02  0.00000000000E+00 0. -1.
      99926    2    1    2    0    0 -0.35527136788E-14  0.00000000000E+00  0.11159623616E+04  0.12048507521E+04  0.45419526904E+03 0.  0.
      99925    2    3    3    0    0 -0.16144668249E+02 -0.90711112395E+02  0.87287271086E+03  0.91635596427E+03  0.26327234506E+03 0.  0.
         25    1    4    4    0    0  0.20180129466E+02 -0.22324870176E+02  0.47641797544E+03  0.49348478485E+03  0.12509000000E+03 0.  0.
         25    1    4    4    0    0 -0.36324797714E+02 -0.68386242219E+02  0.39645473542E+03  0.42287117943E+03  0.12509000000E+03 0.  0.
         25    1    3    3    0    0  0.16144668249E+02  0.90711112395E+02  0.24308965072E+03  0.28849478784E+03  0.12509000000E+03 0.  0.
<mgrwt>
<rscale>  2 0.45419527E+03</rscale>
<asrwt>0</asrwt>
<pdfrwt beam="1">  1       21 0.17064800E+00 0.45419527E+03</pdfrwt>
<pdfrwt beam="2">  1       21 0.65359118E-02 0.45419527E+03</pdfrwt>
<totfact> 0.32203986E+04</totfact>
</mgrwt>
</event>
<event>
 7    0  0.4737014E-002  0.4563346E+03  0.7546771E-02  0.1025850E+00
         21   -1    0    0  502  501  0.00000000000E+00  0.00000000000E+00  0.15493606944E+03  0.15493606944E+03  0.00000000000E+00 0. -1.
         21   -1    0    0  501  502 -0.00000000000E+00 -0.00000000000E+00 -0.33601159092E+03  0.33601159092E+03  0.00000000000E+00 0. -1.
      99926    2    1    2    0    0  0.71054273576E-14 -0.14210854715E-13 -0.18107552148E+03  0.49094766036E+03  0.45633459296E+03 0.  0.
      99925    2    3    3    0    0 -0.40860982013E+02  0.80034344408E+02 -0.18847041311E+03  0.33674873475E+03  0.26420351550E+03 0.  0.
         25    1    3    3    0    0  0.40860982013E+02 -0.80034344408E+02  0.73948916269E+01  0.15419892561E+03  0.12509000000E+03 0.  0.
         25    1    4    4    0    0 -0.77158366192E+01  0.67947739497E+02 -0.13457628237E+03  0.19604773223E+03  0.12509000000E+03 0.  0.
         25    1    4    4    0    0 -0.33145145393E+02  0.12086604911E+02 -0.53894130742E+02  0.14070100252E+03  0.12509000000E+03 0.  0.
<mgrwt>
<rscale>  2 0.45633459E+03</rscale>
<asrwt>0</asrwt>
<pdfrwt beam="1">  1       21 0.22784717E-01 0.45633459E+03</pdfrwt>
<pdfrwt beam="2">  1       21 0.49413468E-01 0.45633459E+03</pdfrwt>
<totfact> 0.65217691E+04</totfact>
</mgrwt>
</event>
<event>
 7    0  0.4737014E-002  0.4552638E+03  0.7546771E-02  0.1026164E+00
         21   -1    0    0  502  501  0.00000000000E+00  0.00000000000E+00  0.20741547361E+04  0.20741547361E+04  0.00000000000E+00 0.  1.
         21   -1    0    0  501  502 -0.00000000000E+00 -0.00000000000E+00 -0.24981877068E+02  0.24981877068E+02  0.00000000000E+00 0.  1.
      99926    2    1    2    0    0  0.00000000000E+00 -0.35527136788E-14  0.20491728590E+04  0.20991366131E+04  0.45526378567E+03 0.  0.
      99925    2    3    3    0    0 -0.97737054415E+02  0.28310566864E+02  0.15218487783E+04  0.15477091798E+04  0.26272796074E+03 0.  0.
         25    1    4    4    0    0 -0.47986109855E+02 -0.46916213310E+00  0.54597720316E+03  0.56217568546E+03  0.12509000000E+03 0.  0.
         25    1    3    3    0    0  0.97737054415E+02 -0.28310566864E+02  0.52732408073E+03  0.55142743332E+03  0.12509000000E+03 0.  0.
         25    1    4    4    0    0 -0.49750944560E+02  0.28779728997E+02  0.97587157512E+03  0.98553349437E+03  0.12509000000E+03 0.  0.
<mgrwt>
<rscale>  2 0.45526379E+03</rscale>
<asrwt>0</asrwt>
<pdfrwt beam="1">  1       21 0.30502264E+00 0.45526379E+03</pdfrwt>
<pdfrwt beam="2">  1       21 0.36738069E-02 0.45526379E+03</pdfrwt>
<totfact> 0.12133032E+04</totfact>
</mgrwt>
</event>
<event>
 7    0  0.4737014E-002  0.4548983E+03  0.7546771E-02  0.1026271E+00
         21   -1    0    0  502  501  0.00000000000E+00  0.00000000000E+00  0.88574111340E+03  0.88574111340E+03  0.00000000000E+00 0.  1.
         21   -1    0    0  501  502 -0.00000000000E+00 -0.00000000000E+00 -0.58406592349E+02  0.58406592349E+02  0.00000000000E+00 0.  1.
      99926    2    1    2    0    0  0.17763568394E-14  0.00000000000E+00  0.82733452105E+03  0.94414770575E+03  0.45489831891E+03 0.  0.
      99925    2    3    3    0    0 -0.11288790252E+02  0.97524852239E+02  0.63885004180E+03  0.69754592025E+03  0.26230211850E+03 0.  0.
         25    1    4    4    0    0  0.28330953170E+02  0.28971460000E+02  0.27896565295E+03  0.30840125166E+03  0.12509000000E+03 0.  0.
         25    1    4    4    0    0 -0.39619743422E+02  0.68553392240E+02  0.35988438885E+03  0.38914466859E+03  0.12509000000E+03 0.  0.
         25    1    3    3    0    0  0.11288790252E+02 -0.97524852239E+02  0.18848447926E+03  0.24660178550E+03  0.12509000000E+03 0.  0.
<mgrwt>
<rscale>  2 0.45489832E+03</rscale>
<asrwt>0</asrwt>
<pdfrwt beam="1">  1       21 0.13025604E+00 0.45489832E+03</pdfrwt>
<pdfrwt beam="2">  1       21 0.85892053E-02 0.45489832E+03</pdfrwt>
<totfact> 0.41411609E+04</totfact>
</mgrwt>
</event>
<event>
 7    0  0.4737014E-002  0.4498612E+03  0.7546771E-02  0.1027763E+00
         21   -1    0    0  502  501  0.00000000000E+00  0.00000000000E+00  0.46426131512E+03  0.46426131512E+03  0.00000000000E+00 0. -1.
         21   -1    0    0  501  502 -0.00000000000E+00 -0.00000000000E+00 -0.10897693425E+03  0.10897693425E+03  0.00000000000E+00 0. -1.
      99926    2    1    2    0    0  0.00000000000E+00  0.00000000000E+00  0.35528438088E+03  0.57323824937E+03  0.44986119998E+03 0.  0.
      99925    2    3    3    0    0  0.88997048923E+02  0.44427319984E+02  0.27909194664E+03  0.39618724934E+03  0.26301665418E+03 0.  0.
         25    1    3    3    0    0 -0.88997048923E+02 -0.44427319984E+02  0.76192434232E+02  0.17705100003E+03  0.12509000000E+03 0.  0.
         25    1    4    4    0    0  0.36793804225E+02 -0.79846982408E+01  0.94385605817E+02  0.16116355084E+03  0.12509000000E+03 0.  0.
         25    1    4    4    0    0  0.52203244697E+02  0.52412018225E+02  0.18470634083E+03  0.23502369849E+03  0.12509000000E+03 0.  0.
<mgrwt>
<rscale>  2 0.44986120E+03</rscale>
<asrwt>0</asrwt>
<pdfrwt beam="1">  1       21 0.68273722E-01 0.44986120E+03</pdfrwt>
<pdfrwt beam="2">  1       21 0.16026020E-01 0.44986120E+03</pdfrwt>
<totfact> 0.62872520E+04</totfact>
</mgrwt>
</event>
<event>
 7    0  0.4737014E-002  0.4554609E+03  0.7546771E-02  0.1026106E+00
         21   -1    0    0  502  501  0.00000000000E+00  0.00000000000E+00  0.82924849069E+02  0.82924849069E+02  0.00000000000E+00 0.  1.
         21   -1    0    0  501  502 -0.00000000000E+00 -0.00000000000E+00 -0.62539941896E+03  0.62539941896E+03  0.00000000000E+00 0.  1.
      99926    2    1    2    0    0  0.00000000000E+00  0.14210854715E-13 -0.54247456989E+03  0.70832426803E+03  0.45546087615E+03 0.  0.
      99925    2    3    3    0    0 -0.37796650413E+02  0.81118169121E+02 -0.23745676695E+03  0.36672199585E+03  0.26474622175E+03 0.  0.
         25    1    3    3    0    0  0.37796650413E+02 -0.81118169121E+02 -0.30501780294E+03  0.34160227218E+03  0.12509000000E+03 0.  0.
         25    1    4    4    0    0 -0.51840968402E+02  0.65902996556E+02 -0.10652937442E+03  0.18446329357E+03  0.12509000000E+03 0.  0.
         25    1    4    4    0    0  0.14044317989E+02  0.15215172565E+02 -0.13092739253E+03  0.18225870229E+03  0.12509000000E+03 0.  0.
<mgrwt>
<rscale>  2 0.45546088E+03</rscale>
<asrwt>0</asrwt>
<pdfrwt beam="1">  1       21 0.12194831E-01 0.45546088E+03</pdfrwt>
<pdfrwt beam="2">  1       21 0.91970504E-01 0.45546088E+03</pdfrwt>
<totfact> 0.52263562E+04</totfact>
</mgrwt>
</event>
<event>
 7    0  0.4737014E-002  0.4446213E+03  0.7546771E-02  0.1029338E+00
         21   -1    0    0  502  501  0.00000000000E+00  0.00000000000E+00  0.28260855237E+02  0.28260855237E+02  0.00000000000E+00 0.  1.
         21   -1    0    0  501  502 -0.00000000000E+00 -0.00000000000E+00 -0.17487801269E+04  0.17487801269E+04  0.00000000000E+00 0.  1.
      99926    2    1    2    0    0 -0.88817841970E-15  0.00000000000E+00 -0.17205192716E+04  0.17770409821E+04  0.44462128607E+03 0.  0.
      99925    2    3    3    0    0  0.59738089494E+01 -0.52514797059E+02 -0.14471059308E+04  0.14717610232E+04  0.26300464626E+03 0.  0.
         25    1    4    4    0    0  0.37287038040E+01 -0.62920319931E+02 -0.86534499418E+03  0.87660842852E+03  0.12509000000E+03 0.  0.
         25    1    4    4    0    0  0.22451051454E+01  0.10405522872E+02 -0.58176093665E+03  0.59515259464E+03  0.12509000000E+03 0.  0.
         25    1    3    3    0    0 -0.59738089494E+01  0.52514797059E+02 -0.27341334080E+03  0.30527995894E+03  0.12509000000E+03 0.  0.
<mgrwt>
<rscale>  2 0.44462129E+03</rscale>
<asrwt>0</asrwt>
<pdfrwt beam="1">  1       21 0.41560079E-02 0.44462129E+03</pdfrwt>
<pdfrwt beam="2">  1       21 0.25717356E+00 0.44462129E+03</pdfrwt>
<totfact> 0.19206121E+04</totfact>
</mgrwt>
</event>
<event>
 7    0  0.4737014E-002  0.4702326E+03  0.7546771E-02  0.1021855E+00
         21   -1    0    0  502  501  0.00000000000E+00  0.00000000000E+00  0.34490410396E+03  0.34490410396E+03  0.00000000000E+00 0. -1.
         21   -1    0    0  501  502 -0.00000000000E+00 -0.00000000000E+00 -0.16027551326E+03  0.16027551326E+03  0.00000000000E+00 0. -1.
      99926    2    1    2    0    0 -0.71054273576E-14 -0.14210854715E-13  0.18462859071E+03  0.50517961722E+03  0.47023263301E+03 0.  0.
      99925    2    3    3    0    0 -0.32675615630E+02 -0.12264737145E+03  0.10823342917E+03  0.31128840446E+03  0.26282298602E+03 0.  0.
         25    1    4    4    0    0 -0.24458417733E+02 -0.18642191887E+02  0.42608853911E+02  0.13567891527E+03  0.12509000000E+03 0.  0.
         25    1    3    3    0    0  0.32675615630E+02  0.12264737145E+03  0.76395161533E+02  0.19389121276E+03  0.12509000000E+03 0.  0.
         25    1    4    4    0    0 -0.82171978977E+01 -0.10400517956E+03  0.65624575261E+02  0.17560948919E+03  0.12509000000E+03 0.  0.
<mgrwt>
<rscale>  2 0.47023263E+03</rscale>
<asrwt>0</asrwt>
<pdfrwt beam="1">  1       21 0.50721192E-01 0.47023263E+03</pdfrwt>
<pdfrwt beam="2">  1       21 0.23569928E-01 0.47023263E+03</pdfrwt>
<totfact> 0.57619280E+04</totfact>
</mgrwt>
</event>
<event>
 7    0  0.4737014E-002  0.4808378E+03  0.7546771E-02  0.1018905E+00
         21   -1    0    0  502  501  0.00000000000E+00  0.00000000000E+00  0.89195516507E+03  0.89195516507E+03  0.00000000000E+00 0. -1.
         21   -1    0    0  501  502 -0.00000000000E+00 -0.00000000000E+00 -0.64802860467E+02  0.64802860467E+02  0.00000000000E+00 0. -1.
      99926    2    1    2    0    0  0.00000000000E+00  0.00000000000E+00  0.82715230461E+03  0.95675802554E+03  0.48083779429E+03 0.  0.
      99925    2    3    3    0    0 -0.36854996332E+02  0.12663656744E+03  0.44647998047E+03  0.53491203773E+03  0.26342248230E+03 0.  0.
         25    1    3    3    0    0  0.36854996332E+02 -0.12663656744E+03  0.38067232414E+03  0.42184598781E+03  0.12509000000E+03 0.  0.
         25    1    4    4    0    0 -0.49608745980E+02  0.81760437918E+02  0.19944916724E+03  0.25411272164E+03  0.12509000000E+03 0.  0.
         25    1    4    4    0    0  0.12753749648E+02  0.44876129525E+02  0.24703081323E+03  0.28079931609E+03  0.12509000000E+03 0.  0.
<mgrwt>
<rscale>  2 0.48083779E+03</rscale>
<asrwt>0</asrwt>
<pdfrwt beam="1">  1       21 0.13116987E+00 0.48083779E+03</pdfrwt>
<pdfrwt beam="2">  1       21 0.95298330E-02 0.48083779E+03</pdfrwt>
<totfact> 0.33554868E+04</totfact>
</mgrwt>
</event>
<event>
 6    0  0.4737014E-002  0.4537544E+03  0.7546771E-02  0.1026608E+00
         21   -1    0    0  502  501  0.00000000000E+00  0.00000000000E+00  0.41029812281E+03  0.41029812281E+03  0.00000000000E+00 0.  1.
         21   -1    0    0  501  502 -0.00000000000E+00 -0.00000000000E+00 -0.12545331191E+03  0.12545331191E+03  0.00000000000E+00 0.  1.
      99926    2    1    2    0    0  0.00000000000E+00  0.00000000000E+00  0.28484481090E+03  0.53575143472E+03  0.45375437575E+03 0.  0.
         25    1    3    3    0    0  0.43517246955E+01  0.67571728466E+02  0.13284715687E+03  0.19462977980E+03  0.12509000000E+03 0.  0.
         25    1    3    3    0    0 -0.51007741933E+02 -0.84143179657E+02  0.35280708988E+02  0.16301564632E+03  0.12509000000E+03 0.  0.
         25    1    3    3    0    0  0.46656017238E+02  0.16571451191E+02  0.11671694504E+03  0.17810600860E+03  0.12509000000E+03 0.  0.
<mgrwt>
<rscale>  2 0.45375438E+03</rscale>
<asrwt>0</asrwt>
<pdfrwt beam="1">  1       21 0.60337959E-01 0.45375438E+03</pdfrwt>
<pdfrwt beam="2">  1       21 0.18449017E-01 0.45375438E+03</pdfrwt>
<totfact> 0.63441147E+04</totfact>
</mgrwt>
</event>
<event>
 6    0  0.4737014E-002  0.4569865E+03  0.7546771E-02  0.1025659E+00
         21   -1    0    0  502  501  0.00000000000E+00  0.00000000000E+00  0.71861253646E+03  0.71861253646E+03  0.00000000000E+00 0.  1.
         21   -1    0    0  501  502 -0.00000000000E+00 -0.00000000000E+00 -0.72652734760E+02  0.72652734760E+02  0.00000000000E+00 0.  1.
      99926    2    1    2    0    0 -0.71054273576E-14 -0.14210854715E-13  0.64595980170E+03  0.79126527122E+03  0.45698650311E+03 0.  0.
         25    1    3    3    0    0 -0.47125327423E+02 -0.80637705851E+02  0.34657924917E+03  0.38011566679E+03  0.12509000000E+03 0.  0.
         25    1    3    3    0    0  0.46335811952E+02  0.66312705173E+02  0.11648769800E+03  0.18910651554E+03  0.12509000000E+03 0.  0.
         25    1    3    3    0    0  0.78951547128E+00  0.14325000678E+02  0.18289285454E+03  0.22204308888E+03  0.12509000000E+03 0.  0.
<mgrwt>
<rscale>  2 0.45698650E+03</rscale>
<asrwt>0</asrwt>
<pdfrwt beam="1">  1       21 0.10567831E+00 0.45698650E+03</pdfrwt>
<pdfrwt beam="2">  1       21 0.10684226E-01 0.45698650E+03</pdfrwt>
<totfact> 0.47446160E+04</totfact>
</mgrwt>
</event>
<event>
 7    0  0.4737014E-002  0.4466149E+03  0.7546771E-02  0.1028736E+00
         21   -1    0    0  502  501  0.00000000000E+00  0.00000000000E+00  0.39819726264E+03  0.39819726264E+03  0.00000000000E+00 0.  1.
         21   -1    0    0  501  502 -0.00000000000E+00 -0.00000000000E+00 -0.12522992122E+03  0.12522992122E+03  0.00000000000E+00 0.  1.
      99926    2    1    2    0    0  0.00000000000E+00 -0.17763568394E-14  0.27296734141E+03  0.52342718386E+03  0.44661487584E+03 0.  0.
      99925    2    3    3    0    0 -0.84965179405E+02 -0.15782331332E+02  0.24325895466E+03  0.36851346582E+03  0.26298116239E+03 0.  0.
         25    1    4    4    0    0 -0.54781932631E+02 -0.30350773225E+02  0.16842453054E+03  0.21894419418E+03  0.12509000000E+03 0.  0.
         25    1    3    3    0    0  0.84965179405E+02  0.15782331332E+02  0.29708386753E+02  0.15491371804E+03  0.12509000000E+03 0.  0.
         25    1    4    4    0    0 -0.30183246774E+02  0.14568441893E+02  0.74834424123E+02  0.14956927164E+03  0.12509000000E+03 0.  0.
<mgrwt>
<rscale>  2 0.44661488E+03</rscale>
<asrwt>0</asrwt>
<pdfrwt beam="1">  1       21 0.58558421E-01 0.44661488E+03</pdfrwt>
<pdfrwt beam="2">  1       21 0.18416165E-01 0.44661488E+03</pdfrwt>
<totfact> 0.68064619E+04</totfact>
</mgrwt>
</event>
<event>
 7    0  0.4737014E-002  0.4530912E+03  0.7546771E-02  0.1026804E+00
         21   -1    0    0  502  501  0.00000000000E+00  0.00000000000E+00  0.55763285701E+03  0.55763285701E+03  0.00000000000E+00 0. -1.
         21   -1    0    0  501  502 -0.00000000000E+00 -0.00000000000E+00 -0.92037083433E+02  0.92037083433E+02  0.00000000000E+00 0. -1.
      99926    2    1    2    0    0  0.71054273576E-14 -0.35527136788E-14  0.46559577358E+03  0.64966994044E+03  0.45309116869E+03 0.  0.
      99925    2    3    3    0    0 -0.32186558267E+02  0.29966757699E+02  0.44021865651E+03  0.51466813575E+03  0.26297688741E+03 0.  0.
         25    1    4    4    0    0 -0.64340716359E+01  0.38897141285E+02  0.28301357356E+03  0.31192719631E+03  0.12509000000E+03 0.  0.
         25    1    3    3    0    0  0.32186558267E+02 -0.29966757699E+02  0.25377117063E+02  0.13500180469E+03  0.12509000000E+03 0.  0.
         25    1    4    4    0    0 -0.25752486631E+02 -0.89303835866E+01  0.15720508295E+03  0.20274093944E+03  0.12509000000E+03 0.  0.
<mgrwt>
<rscale>  2 0.45309117E+03</rscale>
<asrwt>0</asrwt>
<pdfrwt beam="1">  1       21 0.82004830E-01 0.45309117E+03</pdfrwt>
<pdfrwt beam="2">  1       21 0.13534865E-01 0.45309117E+03</pdfrwt>
<totfact> 0.56567537E+04</totfact>
</mgrwt>
</event>
<event>
 7    0  0.4737014E-002  0.4519185E+03  0.7546771E-02  0.1027151E+00
         21   -1    0    0  502  501  0.00000000000E+00  0.00000000000E+00  0.77096832291E+02  0.77096832291E+02  0.00000000000E+00 0.  1.
         21   -1    0    0  501  502 -0.00000000000E+00 -0.00000000000E+00 -0.66225274211E+03  0.66225274211E+03  0.00000000000E+00 0.  1.
      99926    2    1    2    0    0 -0.14210854715E-13  0.17763568394E-14 -0.58515590981E+03  0.73934957440E+03  0.45191852625E+03 0.  0.
      99925    2    3    3    0    0  0.74245272654E+02 -0.10178765458E+02 -0.23665273683E+03  0.36156929770E+03  0.26289136809E+03 0.  0.
         25    1    3    3    0    0 -0.74245272654E+02  0.10178765458E+02 -0.34850317299E+03  0.37778027670E+03  0.12509000000E+03 0.  0.
         25    1    4    4    0    0  0.24253988579E+02  0.28181107644E+02 -0.14002329475E+03  0.19140653584E+03  0.12509000000E+03 0.  0.
         25    1    4    4    0    0  0.49991284075E+02 -0.38359873102E+02 -0.96629442080E+02  0.17016276186E+03  0.12509000000E+03 0.  0.
<mgrwt>
<rscale>  2 0.45191853E+03</rscale>
<asrwt>0</asrwt>
<pdfrwt beam="1">  1       21 0.11337769E-01 0.45191853E+03</pdfrwt>
<pdfrwt beam="2">  1       21 0.97390114E-01 0.45191853E+03</pdfrwt>
<totfact> 0.52068001E+04</totfact>
</mgrwt>
</event>
<event>
 7    0  0.4737014E-002  0.4551945E+03  0.7546771E-02  0.1026184E+00
         21   -1    0    0  502  501  0.00000000000E+00  0.00000000000E+00  0.41609491123E+03  0.41609491123E+03  0.00000000000E+00 0.  1.
         21   -1    0    0  501  502 -0.00000000000E+00 -0.00000000000E+00 -0.12449204330E+03  0.12449204330E+03  0.00000000000E+00 0.  1.
      99926    2    1    2    0    0 -0.17763568394E-14  0.00000000000E+00  0.29160286793E+03  0.54058695454E+03  0.45519448902E+03 0.  0.
      99925    2    3    3    0    0  0.11355770175E+02 -0.88445028845E+02  0.10036792512E+03  0.29529164661E+03  0.26300562640E+03 0.  0.
         25    1    4    4    0    0  0.28125181148E+02 -0.42040747137E+02  0.86116890328E+02  0.16006897618E+03  0.12509000000E+03 0.  0.
         25    1    3    3    0    0 -0.11355770175E+02  0.88445028845E+02  0.19123494281E+03  0.24529530793E+03  0.12509000000E+03 0.  0.
         25    1    4    4    0    0 -0.16769410973E+02 -0.46404281708E+02  0.14251034797E+02  0.13522267043E+03  0.12509000000E+03 0.  0.
<mgrwt>
<rscale>  2 0.45519449E+03</rscale>
<asrwt>0</asrwt>
<pdfrwt beam="1">  1       21 0.61190428E-01 0.45519449E+03</pdfrwt>
<pdfrwt beam="2">  1       21 0.18307653E-01 0.45519449E+03</pdfrwt>
<totfact> 0.62396759E+04</totfact>
</mgrwt>
</event>
<event>
 7    0  0.4737014E-002  0.4558794E+03  0.7546771E-02  0.1025983E+00
         21   -1    0    0  502  501  0.00000000000E+00  0.00000000000E+00  0.89468842796E+02  0.89468842796E+02  0.00000000000E+00 0. -1.
         21   -1    0    0  501  502 -0.00000000000E+00 -0.00000000000E+00 -0.58072179446E+03  0.58072179446E+03  0.00000000000E+00 0. -1.
      99926    2    1    2    0    0 -0.71054273576E-14  0.00000000000E+00 -0.49125295166E+03  0.67019063726E+03  0.45587940044E+03 0.  0.
      99925    2    3    3    0    0  0.63597151038E+02 -0.31720546027E+02 -0.17781434575E+03  0.32531086337E+03  0.26297989583E+03 0.  0.
         25    1    4    4    0    0  0.19267785844E+02 -0.53049629784E+02 -0.77645784912E+02  0.15767652586E+03  0.12509000000E+03 0.  0.
         25    1    4    4    0    0  0.44329365194E+02  0.21329083757E+02 -0.10016856084E+03  0.16763433751E+03  0.12509000000E+03 0.  0.
         25    1    3    3    0    0 -0.63597151038E+02  0.31720546027E+02 -0.31343860591E+03  0.34487977389E+03  0.12509000000E+03 0.  0.
<mgrwt>
<rscale>  2 0.45587940E+03</rscale>
<asrwt>0</asrwt>
<pdfrwt beam="1">  1       21 0.13157183E-01 0.45587940E+03</pdfrwt>
<pdfrwt beam="2">  1       21 0.85400264E-01 0.45587940E+03</pdfrwt>
<totfact> 0.54175035E+04</totfact>
</mgrwt>
</event>
<event>
 7    0  0.4737014E-002  0.4745023E+03  0.7546771E-02  0.1020657E+00
         21   -1    0    0  502  501  0.00000000000E+00  0.00000000000E+00  0.92364903443E+02  0.92364903443E+02  0.00000000000E+00 0.  1.
         21   -1    0    0  501  502 -0.00000000000E+00 -0.00000000000E+00 -0.60941004287E+03  0.60941004287E+03  0.00000000000E+00 0.  1.
      99926    2    1    2    0    0  0.00000000000E+00  0.00000000000E+00 -0.51704513943E+03  0.70177494631E+03  0.47450226455E+03 0.  0.
      99925    2    3    3    0    0 -0.12233603420E+03 -0.14405721590E+02 -0.25492715687E+03  0.38629598512E+03  0.26279859727E+03 0.  0.
         25    1    4    4    0    0 -0.40799079619E+02 -0.15205619957E+02 -0.74042643320E+02  0.15174187591E+03  0.12509000000E+03 0.  0.
         25    1    4    4    0    0 -0.81536954586E+02  0.79989836655E+00 -0.18088451355E+03  0.23455410920E+03  0.12509000000E+03 0.  0.
         25    1    3    3    0    0  0.12233603420E+03  0.14405721590E+02 -0.26211798255E+03  0.31547896120E+03  0.12509000000E+03 0.  0.
<mgrwt>
<rscale>  2 0.47450226E+03</rscale>
<asrwt>0</asrwt>
<pdfrwt beam="1">  1       21 0.13583074E-01 0.47450226E+03</pdfrwt>
<pdfrwt beam="2">  1       21 0.89619125E-01 0.47450226E+03</pdfrwt>
<totfact> 0.45420057E+04</totfact>
</mgrwt>
</event>
<event>
 7    0  0.4737014E-002  0.4581360E+03  0.7546771E-02  0.1025323E+00
         21   -1    0    0  502  501  0.00000000000E+00  0.00000000000E+00  0.86011757766E+03  0.86011757766E+03  0.00000000000E+00 0. -1.
         21   -1    0    0  501  502 -0.00000000000E+00 -0.00000000000E+00 -0.61005780541E+02  0.61005780541E+02  0.00000000000E+00 0. -1.
      99926    2    1    2    0    0  0.00000000000E+00  0.00000000000E+00  0.79911179712E+03  0.92112335821E+03  0.45813598061E+03 0.  0.
      99925    2    3    3    0    0  0.47436106131E+02  0.83814395927E+02  0.63175048478E+03  0.69105303396E+03  0.26300301062E+03 0.  0.
         25    1    4    4    0    0  0.56881884363E+02  0.33132754825E+02  0.37652344646E+03  0.40218247357E+03  0.12509000000E+03 0.  0.
         25    1    4    4    0    0 -0.94457782320E+01  0.50681641102E+02  0.25522703833E+03  0.28887056040E+03  0.12509000000E+03 0.  0.
         25    1    3    3    0    0 -0.47436106131E+02 -0.83814395927E+02  0.16736131234E+03  0.23007032424E+03  0.12509000000E+03 0.  0.
<mgrwt>
<rscale>  2 0.45813598E+03</rscale>
<asrwt>0</asrwt>
<pdfrwt beam="1">  1       21 0.12648787E+00 0.45813598E+03</pdfrwt>
<pdfrwt beam="2">  1       21 0.89714388E-02 0.45813598E+03</pdfrwt>
<totfact> 0.41309787E+04</totfact>
</mgrwt>
</event>
<event>
 7    0  0.4737014E-002  0.4466970E+03  0.7546771E-02  0.1028712E+00
         21   -1    0    0  502  501  0.00000000000E+00  0.00000000000E+00  0.47338410782E+02  0.47338410782E+02  0.00000000000E+00 0.  1.
         21   -1    0    0  501  502 -0.00000000000E+00 -0.00000000000E+00 -0.10537859321E+04  0.10537859321E+04  0.00000000000E+00 0.  1.
      99926    2    1    2    0    0  0.00000000000E+00  0.00000000000E+00 -0.10064475213E+04  0.11011243429E+04  0.44669699498E+03 0.  0.
      99925    2    3    3    0    0 -0.34917004350E+02  0.91431971975E+02 -0.54275240068E+03  0.61098183739E+03  0.26294416609E+03 0.  0.
         25    1    4    4    0    0 -0.81301098832E+01  0.82878952431E+02 -0.32959083076E+03  0.36223285779E+03  0.12509000000E+03 0.  0.
         25    1    4    4    0    0 -0.26786894467E+02  0.85530195438E+01 -0.21316156993E+03  0.24874897960E+03  0.12509000000E+03 0.  0.
         25    1    3    3    0    0  0.34917004350E+02 -0.91431971975E+02 -0.46369512064E+03  0.49014250550E+03  0.12509000000E+03 0.  0.
<mgrwt>
<rscale>  2 0.44669699E+03</rscale>
<asrwt>0</asrwt>
<pdfrwt beam="1">  1       21 0.69615310E-02 0.44669699E+03</pdfrwt>
<pdfrwt beam="2">  1       21 0.15496852E+00 0.44669699E+03</pdfrwt>
<totfact> 0.37847881E+04</totfact>
</mgrwt>
</event>
<event>
 7    0  0.6139520E-002  0.4234902E+03  0.7546771E-02  0.1035936E+00
         21   -1    0    0  502  501  0.00000000000E+00  0.00000000000E+00  0.39708363209E+03  0.39708363209E+03  0.00000000000E+00 0.  1.
         21   -1    0    0  501  502 -0.00000000000E+00 -0.00000000000E+00 -0.11291322207E+03  0.11291322207E+03  0.00000000000E+00 0.  1.
      99926    2    1    2    0    0  0.71054273576E-14  0.14210854715E-13  0.28417041002E+03  0.50999685415E+03  0.42349022340E+03 0.  0.
      99925    2    3    3    0    0 -0.41600572862E+02 -0.67908993019E+02  0.17207313600E+03  0.32410563344E+03  0.26285558487E+03 0.  0.
         25    1    4    4    0    0 -0.10246424273E+02  0.61126358267E+01  0.71238687260E+02  0.14444657209E+03  0.12509000000E+03 0.  0.
         25    1    4    4    0    0 -0.31354148588E+02 -0.74021628846E+02  0.10083444874E+03  0.17965906134E+03  0.12509000000E+03 0.  0.
         25    1    3    3    0    0  0.41600572862E+02  0.67908993019E+02  0.11209727403E+03  0.18589122072E+03  0.12509000000E+03 0.  0.
<mgrwt>
<rscale>  2 0.42349022E+03</rscale>
<asrwt>0</asrwt>
<pdfrwt beam="1">  1       21 0.58394651E-01 0.42349022E+03</pdfrwt>
<pdfrwt beam="2">  1       21 0.16604886E-01 0.42349022E+03</pdfrwt>
<totfact> 0.83573998E+04</totfact>
</mgrwt>
</event>
<event>
 7    0  0.4737014E-002  0.4588340E+03  0.7546771E-02  0.1025120E+00
         21   -1    0    0  502  501  0.00000000000E+00  0.00000000000E+00  0.67211567330E+02  0.67211567330E+02  0.00000000000E+00 0.  1.
         21   -1    0    0  501  502 -0.00000000000E+00 -0.00000000000E+00 -0.78308182749E+03  0.78308182749E+03  0.00000000000E+00 0.  1.
      99926    2    1    2    0    0  0.14210854715E-13  0.88817841970E-15 -0.71587026016E+03  0.85029339482E+03  0.45883398729E+03 0.  0.
      99925    2    3    3    0    0  0.10643405931E+03  0.21325420827E+01 -0.53811081948E+03  0.60826305877E+03  0.26284584437E+03 0.  0.
         25    1    4    4    0    0  0.32565993180E+02 -0.68511622933E+01 -0.18004763562E+03  0.22174792339E+03  0.12509000000E+03 0.  0.
         25    1    3    3    0    0 -0.10643405931E+03 -0.21325420827E+01 -0.17775944068E+03  0.24203033605E+03  0.12509000000E+03 0.  0.
         25    1    4    4    0    0  0.73868066134E+02  0.89837043760E+01 -0.35806318387E+03  0.38651513538E+03  0.12509000000E+03 0.  0.
<mgrwt>
<rscale>  2 0.45883399E+03</rscale>
<asrwt>0</asrwt>
<pdfrwt beam="1">  1       21 0.98840536E-02 0.45883399E+03</pdfrwt>
<pdfrwt beam="2">  1       21 0.11515910E+00 0.45883399E+03</pdfrwt>
<totfact> 0.44085307E+04</totfact>
</mgrwt>
</event>
<event>
 7    0  0.4737014E-002  0.4597430E+03  0.7546771E-02  0.1024856E+00
         21   -1    0    0  502  501  0.00000000000E+00  0.00000000000E+00  0.31030810041E+02  0.31030810041E+02  0.00000000000E+00 0. -1.
         21   -1    0    0  501  502 -0.00000000000E+00 -0.00000000000E+00 -0.17028529933E+04  0.17028529933E+04  0.00000000000E+00 0. -1.
      99926    2    1    2    0    0  0.00000000000E+00  0.00000000000E+00 -0.16718221833E+04  0.17338838034E+04  0.45974300544E+03 0.  0.
      99925    2    3    3    0    0 -0.50810498400E+02  0.29209035254E+02 -0.14318985389E+04  0.14570341371E+04  0.26302124710E+03 0.  0.
         25    1    3    3    0    0  0.50810498400E+02 -0.29209035254E+02 -0.23992364439E+03  0.27684966629E+03  0.12509000000E+03 0.  0.
         25    1    4    4    0    0 -0.19644269892E+02 -0.12524925215E+02 -0.85627002474E+03  0.86567235976E+03  0.12509000000E+03 0.  0.
         25    1    4    4    0    0 -0.31166228508E+02  0.41733960470E+02 -0.57562851416E+03  0.59136177731E+03  0.12509000000E+03 0.  0.
<mgrwt>
<rscale>  2 0.45974301E+03</rscale>
<asrwt>0</asrwt>
<pdfrwt beam="1">  1       21 0.45633535E-02 0.45974301E+03</pdfrwt>
<pdfrwt beam="2">  1       21 0.25041961E+00 0.45974301E+03</pdfrwt>
<totfact> 0.17897026E+04</totfact>
</mgrwt>
</event>
<event>
 7    0  0.4737014E-002  0.4607489E+03  0.7546771E-02  0.1024564E+00
         21   -1    0    0  502  501  0.00000000000E+00  0.00000000000E+00  0.11258030879E+03  0.11258030879E+03  0.00000000000E+00 0.  1.
         21   -1    0    0  501  502 -0.00000000000E+00 -0.00000000000E+00 -0.47141805622E+03  0.47141805622E+03  0.00000000000E+00 0.  1.
      99926    2    1    2    0    0  0.00000000000E+00  0.00000000000E+00 -0.35883774742E+03  0.58399836501E+03  0.46074891358E+03 0.  0.
      99925    2    3    3    0    0 -0.70580810762E+02  0.49241813308E+02 -0.32786503534E+03  0.42903635670E+03  0.26300248468E+03 0.  0.
         25    1    3    3    0    0  0.70580810762E+02 -0.49241813308E+02 -0.30972712087E+02  0.15496200831E+03  0.12509000000E+03 0.  0.
         25    1    4    4    0    0 -0.43847960411E+02  0.55853128729E+02 -0.13338445363E+03  0.19616609338E+03  0.12509000000E+03 0.  0.
         25    1    4    4    0    0 -0.26732850351E+02 -0.66113154219E+01 -0.19448058171E+03  0.23287026332E+03  0.12509000000E+03 0.  0.
<mgrwt>
<rscale>  2 0.46074891E+03</rscale>
<asrwt>0</asrwt>
<pdfrwt beam="1">  1       21 0.16555928E-01 0.46074891E+03</pdfrwt>
<pdfrwt beam="2">  1       21 0.69326183E-01 0.46074891E+03</pdfrwt>
<totfact> 0.57037563E+04</totfact>
</mgrwt>
</event>
<event>
 7    0  0.4737014E-002  0.4564490E+03  0.7546771E-02  0.1025816E+00
         21   -1    0    0  502  501  0.00000000000E+00  0.00000000000E+00  0.11290100325E+04  0.11290100325E+04  0.00000000000E+00 0. -1.
         21   -1    0    0  501  502 -0.00000000000E+00 -0.00000000000E+00 -0.46134598284E+02  0.46134598284E+02  0.00000000000E+00 0. -1.
      99926    2    1    2    0    0  0.00000000000E+00  0.00000000000E+00  0.10828754342E+04  0.11751446308E+04  0.45644900836E+03 0.  0.
      99925    2    3    3    0    0  0.60762545158E+02  0.64532221579E+02  0.49244259225E+03  0.56513238215E+03  0.26271354775E+03 0.  0.
         25    1    4    4    0    0  0.64005808016E+01  0.62007293371E+01  0.27080570166E+03  0.29843366538E+03  0.12509000000E+03 0.  0.
         25    1    4    4    0    0  0.54361964356E+02  0.58331492241E+02  0.22163689059E+03  0.26669871677E+03  0.12509000000E+03 0.  0.
         25    1    3    3    0    0 -0.60762545158E+02 -0.64532221579E+02  0.59043284196E+03  0.61001224863E+03  0.12509000000E+03 0.  0.
<mgrwt>
<rscale>  2 0.45644901E+03</rscale>
<asrwt>0</asrwt>
<pdfrwt beam="1">  1       21 0.16603087E+00 0.45644901E+03</pdfrwt>
<pdfrwt beam="2">  1       21 0.67845005E-02 0.45644901E+03</pdfrwt>
<totfact> 0.32584399E+04</totfact>
</mgrwt>
</event>
<event>
 7    0  0.4737014E-002  0.4451218E+03  0.7546771E-02  0.1029187E+00
         21   -1    0    0  502  501  0.00000000000E+00  0.00000000000E+00  0.43746875797E+03  0.43746875797E+03  0.00000000000E+00 0. -1.
         21   -1    0    0  501  502 -0.00000000000E+00 -0.00000000000E+00 -0.11322719871E+03  0.11322719871E+03  0.00000000000E+00 0. -1.
      99926    2    1    2    0    0  0.00000000000E+00  0.00000000000E+00  0.32424155926E+03  0.55069595668E+03  0.44512183495E+03 0.  0.
      99925    2    3    3    0    0 -0.46012805857E+02 -0.57846435917E+02  0.29623469007E+03  0.40272541477E+03  0.26262021942E+03 0.  0.
         25    1    3    3    0    0  0.46012805857E+02  0.57846435917E+02  0.28006869191E+02  0.14797054191E+03  0.12509000000E+03 0.  0.
         25    1    4    4    0    0 -0.45475275399E+02 -0.70444954768E+01  0.11067648179E+03  0.17324669495E+03  0.12509000000E+03 0.  0.
         25    1    4    4    0    0 -0.53753045808E+00 -0.50801940440E+02  0.18555820828E+03  0.22947871982E+03  0.12509000000E+03 0.  0.
<mgrwt>
<rscale>  2 0.44512183E+03</rscale>
<asrwt>0</asrwt>
<pdfrwt beam="1">  1       21 0.64333640E-01 0.44512183E+03</pdfrwt>
<pdfrwt beam="2">  1       21 0.16651059E-01 0.44512183E+03</pdfrwt>
<totfact> 0.66897455E+04</totfact>
</mgrwt>
</event>
<event>
 7    0  0.4737014E-002  0.4531294E+03  0.7546771E-02  0.1026793E+00
         21   -1    0    0  502  501  0.00000000000E+00  0.00000000000E+00  0.90076693240E+03  0.90076693240E+03  0.00000000000E+00 0. -1.
         21   -1    0    0  501  502 -0.00000000000E+00 -0.00000000000E+00 -0.56986504088E+02  0.56986504088E+02  0.00000000000E+00 0. -1.
      99926    2    1    2    0    0  0.00000000000E+00  0.00000000000E+00  0.84378042831E+03  0.95775343649E+03  0.45312937877E+03 0.  0.
      99925    2    3    3    0    0 -0.65436956549E+02 -0.53654955225E+02  0.68467630088E+03  0.73838506828E+03  0.26319198805E+03 0.  0.
         25    1    4    4    0    0 -0.22286369456E+02 -0.16977155321E+02  0.43435343837E+03  0.45287451197E+03  0.12509000000E+03 0.  0.
         25    1    4    4    0    0 -0.43150587092E+02 -0.36677799904E+02  0.25032286251E+03  0.28551055631E+03  0.12509000000E+03 0.  0.
         25    1    3    3    0    0  0.65436956549E+02  0.53654955225E+02  0.15910412743E+03  0.21936836820E+03  0.12509000000E+03 0.  0.
<mgrwt>
<rscale>  2 0.45312938E+03</rscale>
<asrwt>0</asrwt>
<pdfrwt beam="1">  1       21 0.13246572E+00 0.45312938E+03</pdfrwt>
<pdfrwt beam="2">  1       21 0.83803688E-02 0.45312938E+03</pdfrwt>
<totfact> 0.41431137E+04</totfact>
</mgrwt>
</event>
<event>
 7    0  0.4737014E-002  0.4501641E+03  0.7546771E-02  0.1027673E+00
         21   -1    0    0  502  501  0.00000000000E+00  0.00000000000E+00  0.56847832897E+03  0.56847832897E+03  0.00000000000E+00 0.  1.
         21   -1    0    0  501  502 -0.00000000000E+00 -0.00000000000E+00 -0.89118507784E+02  0.89118507784E+02  0.00000000000E+00 0.  1.
      99926    2    1    2    0    0  0.00000000000E+00 -0.14210854715E-13  0.47935982118E+03  0.65759683675E+03  0.45016414955E+03 0.  0.
      99925    2    3    3    0    0 -0.32331374884E+02  0.83628510217E+02  0.21322914192E+03  0.35016864665E+03  0.26289231372E+03 0.  0.
         25    1    3    3    0    0  0.32331374884E+02 -0.83628510217E+02  0.26613067926E+03  0.30742819010E+03  0.12509000000E+03 0.  0.
         25    1    4    4    0    0 -0.31086049539E+02  0.73096990766E+02  0.14484572535E+03  0.20721318681E+03  0.12509000000E+03 0.  0.
         25    1    4    4    0    0 -0.12453253451E+01  0.10531519450E+02  0.68383416570E+02  0.14295545984E+03  0.12509000000E+03 0.  0.
<mgrwt>
<rscale>  2 0.45016415E+03</rscale>
<asrwt>0</asrwt>
<pdfrwt beam="1">  1       21 0.83599752E-01 0.45016415E+03</pdfrwt>
<pdfrwt beam="2">  1       21 0.13105663E-01 0.45016415E+03</pdfrwt>
<totfact> 0.57424525E+04</totfact>
</mgrwt>
</event>
<event>
 7    0  0.4737014E-002  0.4641825E+03  0.7546771E-02  0.1023575E+00
         21   -1    0    0  502  501  0.00000000000E+00  0.00000000000E+00  0.13682727934E+03  0.13682727934E+03  0.00000000000E+00 0.  1.
         21   -1    0    0  501  502 -0.00000000000E+00 -0.00000000000E+00 -0.39368132523E+03  0.39368132523E+03  0.00000000000E+00 0.  1.
      99926    2    1    2    0    0 -0.35527136788E-14  0.14210854715E-13 -0.25685404589E+03  0.53050860457E+03  0.46418248420E+03 0.  0.
      99925    2    3    3    0    0  0.28037408825E+02 -0.10435073650E+03 -0.96528226534E+02  0.30023257683E+03  0.26295765661E+03 0.  0.
         25    1    4    4    0    0  0.16314689745E+02 -0.10073801680E+02 -0.32897103105E+02  0.13075694274E+03  0.12509000000E+03 0.  0.
         25    1    3    3    0    0 -0.28037408825E+02  0.10435073650E+03 -0.16032581935E+03  0.23027602774E+03  0.12509000000E+03 0.  0.
         25    1    4    4    0    0  0.11722719080E+02 -0.94276934819E+02 -0.63631123429E+02  0.16947563409E+03  0.12509000000E+03 0.  0.
<mgrwt>
<rscale>  2 0.46418248E+03</rscale>
<asrwt>0</asrwt>
<pdfrwt beam="1">  1       21 0.20121659E-01 0.46418248E+03</pdfrwt>
<pdfrwt beam="2">  1       21 0.57894312E-01 0.46418248E+03</pdfrwt>
<totfact> 0.58775792E+04</totfact>
</mgrwt>
</event>
<event>
 7    0  0.4737014E-002  0.4585520E+03  0.7546771E-02  0.1025202E+00
         21   -1    0    0  502  501  0.00000000000E+00  0.00000000000E+00  0.60065856652E+03  0.60065856652E+03  0.00000000000E+00 0.  1.
         21   -1    0    0  501  502 -0.00000000000E+00 -0.00000000000E+00 -0.87516399452E+02  0.87516399452E+02  0.00000000000E+00 0.  1.
      99926    2    1    2    0    0  0.00000000000E+00  0.00000000000E+00  0.51314216707E+03  0.68817496597E+03  0.45855196016E+03 0.  0.
      99925    2    3    3    0    0  0.51543011792E+02 -0.10250581273E+03  0.35179319485E+03  0.45398461040E+03  0.26301986774E+03 0.  0.
         25    1    4    4    0    0 -0.12096801755E+02 -0.60491604951E+02  0.19034002577E+03  0.23597118551E+03  0.12509000000E+03 0.  0.
         25    1    3    3    0    0 -0.51543011792E+02  0.10250581273E+03  0.16134897222E+03  0.23419035557E+03  0.12509000000E+03 0.  0.
         25    1    4    4    0    0  0.63639813546E+02 -0.42014207781E+02  0.16145316909E+03  0.21801342489E+03  0.12509000000E+03 0.  0.
<mgrwt>
<rscale>  2 0.45855196E+03</rscale>
<asrwt>0</asrwt>
<pdfrwt beam="1">  1       21 0.88332140E-01 0.45855196E+03</pdfrwt>
<pdfrwt beam="2">  1       21 0.12870059E-01 0.45855196E+03</pdfrwt>
<totfact> 0.52078239E+04</totfact>
</mgrwt>
</event>
<event>
 7    0  0.4737014E-002  0.4595990E+03  0.7546771E-02  0.1024898E+00
         21   -1    0    0  502  501  0.00000000000E+00  0.00000000000E+00  0.26025802572E+03  0.26025802572E+03  0.00000000000E+00 0.  1.
         21   -1    0    0  501  502 -0.00000000000E+00 -0.00000000000E+00 -0.20290555882E+03  0.20290555882E+03  0.00000000000E+00 0.  1.
      99926    2    1    2    0    0  0.00000000000E+00  0.17763568394E-14  0.57352466904E+02  0.46316358454E+03  0.45959895625E+03 0.  0.
      99925    2    3    3    0    0  0.11174190229E+03  0.14960478289E+02  0.69208237082E+02  0.29434967509E+03  0.26294844077E+03 0.  0.
         25    1    4    4    0    0  0.32386825994E+02 -0.21002473114E+02  0.11736605609E+02  0.13143540766E+03  0.12509000000E+03 0.  0.
         25    1    4    4    0    0  0.79355076301E+02  0.35962951403E+02  0.57471631474E+02  0.16291426743E+03  0.12509000000E+03 0.  0.
         25    1    3    3    0    0 -0.11174190229E+03 -0.14960478289E+02 -0.11855770179E+02  0.16881390946E+03  0.12509000000E+03 0.  0.
<mgrwt>
<rscale>  2 0.45959896E+03</rscale>
<asrwt>0</asrwt>
<pdfrwt beam="1">  1       21 0.38273239E-01 0.45959896E+03</pdfrwt>
<pdfrwt beam="2">  1       21 0.29839053E-01 0.45959896E+03</pdfrwt>
<totfact> 0.65514593E+04</totfact>
</mgrwt>
</event>
<event>
 7    0  0.4737014E-002  0.4505352E+03  0.7546771E-02  0.1027563E+00
         21   -1    0    0  502  501  0.00000000000E+00  0.00000000000E+00  0.12559123580E+04  0.12559123580E+04  0.00000000000E+00 0. -1.
         21   -1    0    0  501  502 -0.00000000000E+00 -0.00000000000E+00 -0.40405288365E+02  0.40405288365E+02  0.00000000000E+00 0. -1.
      99926    2    1    2    0    0  0.00000000000E+00  0.00000000000E+00  0.12155070696E+04  0.12963176464E+04  0.45053524162E+03 0.  0.
      99925    2    3    3    0    0  0.95932909525E+02 -0.11076095100E+02  0.62400167626E+03  0.68406611186E+03  0.26313979252E+03 0.  0.
         25    1    4    4    0    0  0.27550756330E+02 -0.31290533782E+01  0.38391072723E+03  0.40472680877E+03  0.12509000000E+03 0.  0.
         25    1    4    4    0    0  0.68382153195E+02 -0.79470417220E+01  0.24009094903E+03  0.27933930309E+03  0.12509000000E+03 0.  0.
         25    1    3    3    0    0 -0.95932909525E+02  0.11076095100E+02  0.59150539338E+03  0.61225153451E+03  0.12509000000E+03 0.  0.
<mgrwt>
<rscale>  2 0.45053524E+03</rscale>
<asrwt>0</asrwt>
<pdfrwt beam="1">  1       21 0.18469297E+00 0.45053524E+03</pdfrwt>
<pdfrwt beam="2">  1       21 0.59419550E-02 0.45053524E+03</pdfrwt>
<totfact> 0.30258972E+04</totfact>
</mgrwt>
</event>
<event>
 7    0  0.4737014E-002  0.4491861E+03  0.7546771E-02  0.1027965E+00
         21   -1    0    0  502  501  0.00000000000E+00  0.00000000000E+00  0.58427732544E+03  0.58427732544E+03  0.00000000000E+00 0. -1.
         21   -1    0    0  501  502 -0.00000000000E+00 -0.00000000000E+00 -0.86332345115E+02  0.86332345115E+02  0.00000000000E+00 0. -1.
      99926    2    1    2    0    0  0.00000000000E+00 -0.35527136788E-14  0.49794498032E+03  0.67060967055E+03  0.44918607148E+03 0.  0.
      99925    2    3    3    0    0  0.76594875561E+02 -0.20843876491E+02  0.20660815436E+03  0.34376735932E+03  0.26303578794E+03 0.  0.
         25    1    4    4    0    0  0.64327677217E+02 -0.64079861795E+01  0.14817890494E+03  0.20441039189E+03  0.12509000000E+03 0.  0.
         25    1    4    4    0    0  0.12267198344E+02 -0.14435890312E+02  0.58429249424E+02  0.13935696743E+03  0.12509000000E+03 0.  0.
         25    1    3    3    0    0 -0.76594875561E+02  0.20843876491E+02  0.29133682596E+03  0.32684231123E+03  0.12509000000E+03 0.  0.
<mgrwt>
<rscale>  2 0.44918607E+03</rscale>
<asrwt>0</asrwt>
<pdfrwt beam="1">  1       21 0.85923134E-01 0.44918607E+03</pdfrwt>
<pdfrwt beam="2">  1       21 0.12695933E-01 0.44918607E+03</pdfrwt>
<totfact> 0.57098953E+04</totfact>
</mgrwt>
</event>
<event>
 7    0  0.4737014E-002  0.4548822E+03  0.7546771E-02  0.1026276E+00
         21   -1    0    0  502  501  0.00000000000E+00  0.00000000000E+00  0.14505900216E+03  0.14505900216E+03  0.00000000000E+00 0.  1.
         21   -1    0    0  501  502 -0.00000000000E+00 -0.00000000000E+00 -0.35660970172E+03  0.35660970172E+03  0.00000000000E+00 0.  1.
      99926    2    1    2    0    0  0.00000000000E+00  0.71054273576E-14 -0.21155069956E+03  0.50166870388E+03  0.45488217152E+03 0.  0.
      99925    2    3    3    0    0  0.96585517340E+02 -0.52179007270E+02 -0.10369023796E+03  0.30334372251E+03  0.26308617899E+03 0.  0.
         25    1    3    3    0    0 -0.96585517340E+02  0.52179007270E+02 -0.10786046160E+03  0.19832498137E+03  0.12509000000E+03 0.  0.
         25    1    4    4    0    0  0.68552172001E+02  0.55693390606E+01 -0.68872607879E+02  0.15849719884E+03  0.12509000000E+03 0.  0.
         25    1    4    4    0    0  0.28033345339E+02 -0.57748346330E+02 -0.34817630083E+02  0.14484652367E+03  0.12509000000E+03 0.  0.
<mgrwt>
<rscale>  2 0.45488217E+03</rscale>
<asrwt>0</asrwt>
<pdfrwt beam="1">  1       21 0.21332206E-01 0.45488217E+03</pdfrwt>
<pdfrwt beam="2">  1       21 0.52442603E-01 0.45488217E+03</pdfrwt>
<totfact> 0.65214563E+04</totfact>
</mgrwt>
</event>
<event>
 7    0  0.4737014E-002  0.4545567E+03  0.7546771E-02  0.1026372E+00
         21   -1    0    0  502  501  0.00000000000E+00  0.00000000000E+00  0.42639374516E+03  0.42639374516E+03  0.00000000000E+00 0.  1.
         21   -1    0    0  501  502 -0.00000000000E+00 -0.00000000000E+00 -0.12114494967E+03  0.12114494967E+03  0.00000000000E+00 0.  1.
      99926    2    1    2    0    0 -0.71054273576E-14  0.00000000000E+00  0.30524879549E+03  0.54753869484E+03  0.45455670185E+03 0.  0.
      99925    2    3    3    0    0  0.50102057874E+02 -0.98181697865E+02  0.16368403052E+03  0.32881980498E+03  0.26302117843E+03 0.  0.
         25    1    4    4    0    0  0.24981696473E+02 -0.58160438955E+02  0.12938488932E+03  0.19077389628E+03  0.12509000000E+03 0.  0.
         25    1    4    4    0    0  0.25120361401E+02 -0.40021258911E+02  0.34299141199E+02  0.13804590870E+03  0.12509000000E+03 0.  0.
         25    1    3    3    0    0 -0.50102057874E+02  0.98181697865E+02  0.14156476497E+03  0.21871888985E+03  0.12509000000E+03 0.  0.
<mgrwt>
<rscale>  2 0.45455670E+03</rscale>
<asrwt>0</asrwt>
<pdfrwt beam="1">  1       21 0.62704962E-01 0.45455670E+03</pdfrwt>
<pdfrwt beam="2">  1       21 0.17815434E-01 0.45455670E+03</pdfrwt>
<totfact> 0.62247500E+04</totfact>
</mgrwt>
</event>
<event>
 7    0  0.4737014E-002  0.4550577E+03  0.7546771E-02  0.1026224E+00
         21   -1    0    0  502  501  0.00000000000E+00  0.00000000000E+00  0.28416511594E+03  0.28416511594E+03  0.00000000000E+00 0.  1.
         21   -1    0    0  501  502 -0.00000000000E+00 -0.00000000000E+00 -0.18218065810E+03  0.18218065810E+03  0.00000000000E+00 0.  1.
      99926    2    1    2    0    0  0.00000000000E+00 -0.71054273576E-14  0.10198445785E+03  0.46634577404E+03  0.45505774504E+03 0.  0.
      99925    2    3    3    0    0 -0.20938315519E+02 -0.31592498879E+02  0.17361186103E+03  0.31730050565E+03  0.26287265653E+03 0.  0.
         25    1    3    3    0    0  0.20938315519E+02  0.31592498879E+02 -0.71627403184E+02  0.14904526839E+03  0.12509000000E+03 0.  0.
         25    1    4    4    0    0 -0.41907058326E+01 -0.46542382644E+02  0.58337972705E+02  0.14572090638E+03  0.12509000000E+03 0.  0.
         25    1    4    4    0    0 -0.16747609686E+02  0.14949883765E+02  0.11527388832E+03  0.17157959927E+03  0.12509000000E+03 0.  0.
<mgrwt>
<rscale>  2 0.45505775E+03</rscale>
<asrwt>0</asrwt>
<pdfrwt beam="1">  1       21 0.41788988E-01 0.45505775E+03</pdfrwt>
<pdfrwt beam="2">  1       21 0.26791273E-01 0.45505775E+03</pdfrwt>
<totfact> 0.67677843E+04</totfact>
</mgrwt>
</event>
<event>
 7    0  0.4737014E-002  0.4471132E+03  0.7546771E-02  0.1028586E+00
         21   -1    0    0  502  501  0.00000000000E+00  0.00000000000E+00  0.13313461198E+04  0.13313461198E+04  0.00000000000E+00 0.  1.
         21   -1    0    0  501  502 -0.00000000000E+00 -0.00000000000E+00 -0.37539107479E+02  0.37539107479E+02  0.00000000000E+00 0.  1.
      99926    2    1    2    0    0  0.00000000000E+00  0.00000000000E+00  0.12938070124E+04  0.13688852273E+04  0.44711316278E+03 0.  0.
      99925    2    3    3    0    0  0.78165942754E+02  0.22508482344E+02  0.10259176099E+04  0.10622440911E+04  0.26313308483E+03 0.  0.
         25    1    3    3    0    0 -0.78165942754E+02 -0.22508482344E+02  0.26788940241E+03  0.30664113620E+03  0.12509000000E+03 0.  0.
         25    1    4    4    0    0  0.51408884260E+02  0.13242396185E+01  0.37768458346E+03  0.40117051197E+03  0.12509000000E+03 0.  0.
         25    1    4    4    0    0  0.26757058494E+02  0.21184242725E+02  0.64823302648E+03  0.66107357914E+03  0.12509000000E+03 0.  0.
<mgrwt>
<rscale>  2 0.44711316E+03</rscale>
<asrwt>0</asrwt>
<pdfrwt beam="1">  1       21 0.19578616E+00 0.44711316E+03</pdfrwt>
<pdfrwt beam="2">  1       21 0.55204578E-02 0.44711316E+03</pdfrwt>
<totfact> 0.28904784E+04</totfact>
</mgrwt>
</event>
<event>
 7    0  0.4737014E-002  0.4473325E+03  0.7546771E-02  0.1028521E+00
         21   -1    0    0  502  501  0.00000000000E+00  0.00000000000E+00  0.70737889661E+02  0.70737889661E+02  0.00000000000E+00 0. -1.
         21   -1    0    0  501  502 -0.00000000000E+00 -0.00000000000E+00 -0.70721075295E+03  0.70721075295E+03  0.00000000000E+00 0. -1.
      99926    2    1    2    0    0  0.00000000000E+00  0.00000000000E+00 -0.63647286329E+03  0.77794864261E+03  0.44733252155E+03 0.  0.
      99925    2    3    3    0    0  0.85443962748E+02  0.49957545636E+02 -0.46724875300E+03  0.54539599322E+03  0.26332292932E+03 0.  0.
         25    1    4    4    0    0  0.19632824674E+02 -0.10844121256E+02 -0.22508114166E+03  0.25848031105E+03  0.12509000000E+03 0.  0.
         25    1    3    3    0    0 -0.85443962748E+02 -0.49957545636E+02 -0.16922411029E+03  0.23255264939E+03  0.12509000000E+03 0.  0.
         25    1    4    4    0    0  0.65811138074E+02  0.60801666892E+02 -0.24216761134E+03  0.28691568217E+03  0.12509000000E+03 0.  0.
<mgrwt>
<rscale>  2 0.44733252E+03</rscale>
<asrwt>0</asrwt>
<pdfrwt beam="1">  1       21 0.10402631E-01 0.44733252E+03</pdfrwt>
<pdfrwt beam="2">  1       21 0.10400158E+00 0.44733252E+03</pdfrwt>
<totfact> 0.51904022E+04</totfact>
</mgrwt>
</event>
<event>
 7    0  0.4737014E-002  0.4504666E+03  0.7546771E-02  0.1027583E+00
         21   -1    0    0  502  501  0.00000000000E+00  0.00000000000E+00  0.58186408910E+02  0.58186408910E+02  0.00000000000E+00 0.  1.
         21   -1    0    0  501  502 -0.00000000000E+00 -0.00000000000E+00 -0.87185379439E+03  0.87185379439E+03  0.00000000000E+00 0.  1.
      99926    2    1    2    0    0  0.00000000000E+00  0.00000000000E+00 -0.81366738548E+03  0.93004020330E+03  0.45046660871E+03 0.  0.
      99925    2    3    3    0    0  0.24478224691E+02 -0.70831606284E+02 -0.35126354309E+03  0.44518855435E+03  0.26304081867E+03 0.  0.
         25    1    4    4    0    0  0.77731238357E+01 -0.31450069586E+02 -0.10835726764E+03  0.16863669198E+03  0.12509000000E+03 0.  0.
         25    1    4    4    0    0  0.16705100855E+02 -0.39381536698E+02 -0.24290627545E+03  0.27655186237E+03  0.12509000000E+03 0.  0.
         25    1    3    3    0    0 -0.24478224691E+02  0.70831606284E+02 -0.46240384239E+03  0.48485164895E+03  0.12509000000E+03 0.  0.
<mgrwt>
<rscale>  2 0.45046661E+03</rscale>
<asrwt>0</asrwt>
<pdfrwt beam="1">  1       21 0.85568248E-02 0.45046661E+03</pdfrwt>
<pdfrwt beam="2">  1       21 0.12821379E+00 0.45046661E+03</pdfrwt>
<totfact> 0.43481196E+04</totfact>
</mgrwt>
</event>
<event>
 7    0  0.4737014E-002  0.4523415E+03  0.7546771E-02  0.1027026E+00
         21   -1    0    0  502  501  0.00000000000E+00  0.00000000000E+00  0.13842338322E+03  0.13842338322E+03  0.00000000000E+00 0.  1.
         21   -1    0    0  501  502 -0.00000000000E+00 -0.00000000000E+00 -0.36954162238E+03  0.36954162238E+03  0.00000000000E+00 0.  1.
      99926    2    1    2    0    0  0.00000000000E+00  0.26645352591E-14 -0.23111823916E+03  0.50796500560E+03  0.45234147106E+03 0.  0.
      99925    2    3    3    0    0  0.19459356918E+02 -0.60385043158E+01 -0.23758865278E+02  0.26494124515E+03  0.26308601179E+03 0.  0.
         25    1    3    3    0    0 -0.19459356918E+02  0.60385043158E+01 -0.20735937389E+03  0.24302376045E+03  0.12509000000E+03 0.  0.
         25    1    4    4    0    0  0.33401227282E+02 -0.32580318657E+02  0.30539927517E+01  0.13354382846E+03  0.12509000000E+03 0.  0.
         25    1    4    4    0    0 -0.13941870364E+02  0.26541814341E+02 -0.26812858030E+02  0.13139741669E+03  0.12509000000E+03 0.  0.
<mgrwt>
<rscale>  2 0.45234147E+03</rscale>
<asrwt>0</asrwt>
<pdfrwt beam="1">  1       21 0.20356380E-01 0.45234147E+03</pdfrwt>
<pdfrwt beam="2">  1       21 0.54344357E-01 0.45234147E+03</pdfrwt>
<totfact> 0.66098286E+04</totfact>
</mgrwt>
</event>
<event>
 7    0  0.4737014E-002  0.4631574E+03  0.7546771E-02  0.1023869E+00
         21   -1    0    0  502  501  0.00000000000E+00  0.00000000000E+00  0.17628919714E+03  0.17628919714E+03  0.00000000000E+00 0.  1.
         21   -1    0    0  501  502 -0.00000000000E+00 -0.00000000000E+00 -0.30420860469E+03  0.30420860469E+03  0.00000000000E+00 0.  1.
      99926    2    1    2    0    0  0.00000000000E+00 -0.71054273576E-14 -0.12791940755E+03  0.48049780183E+03  0.46315738441E+03 0.  0.
      99925    2    3    3    0    0  0.25950625867E+02  0.49573992306E+02 -0.19083479108E+03  0.32971030473E+03  0.26298279766E+03 0.  0.
         25    1    4    4    0    0  0.22148726219E+02  0.28876266849E+02 -0.48391128822E+02  0.13897343023E+03  0.12509000000E+03 0.  0.
         25    1    4    4    0    0  0.38018996486E+01  0.20697725457E+02 -0.14244366225E+03  0.19073687451E+03  0.12509000000E+03 0.  0.
         25    1    3    3    0    0 -0.25950625867E+02 -0.49573992306E+02  0.62915383526E+02  0.15078749710E+03  0.12509000000E+03 0.  0.
<mgrwt>
<rscale>  2 0.46315738E+03</rscale>
<asrwt>0</asrwt>
<pdfrwt beam="1">  1       21 0.25924883E-01 0.46315738E+03</pdfrwt>
<pdfrwt beam="2">  1       21 0.44736558E-01 0.46315738E+03</pdfrwt>
<totfact> 0.62517578E+04</totfact>
</mgrwt>
</event>
<event>
 7    0  0.4737014E-002  0.4407954E+03  0.7546771E-02  0.1030503E+00
         21   -1    0    0  502  501  0.00000000000E+00  0.00000000000E+00  0.10980061574E+03  0.10980061574E+03  0.00000000000E+00 0. -1.
         21   -1    0    0  501  502 -0.00000000000E+00 -0.00000000000E+00 -0.44239419740E+03  0.44239419740E+03  0.00000000000E+00 0. -1.
      99926    2    1    2    0    0  0.00000000000E+00 -0.71054273576E-14 -0.33259358167E+03  0.55219481314E+03  0.44079544132E+03 0.  0.
      99925    2    3    3    0    0 -0.80856081099E+02 -0.52652256273E+02 -0.18263353685E+03  0.33437495848E+03  0.26294797610E+03 0.  0.
         25    1    4    4    0    0 -0.61224556607E+02 -0.54950969164E+02 -0.71631684342E+02  0.16597187004E+03  0.12509000000E+03 0.  0.
         25    1    4    4    0    0 -0.19631524492E+02  0.22987128908E+01 -0.11100185251E+03  0.16840308844E+03  0.12509000000E+03 0.  0.
         25    1    3    3    0    0  0.80856081099E+02  0.52652256273E+02 -0.14996004481E+03  0.21781985466E+03  0.12509000000E+03 0.  0.
<mgrwt>
<rscale>  2 0.44079544E+03</rscale>
<asrwt>0</asrwt>
<pdfrwt beam="1">  1       21 0.16147149E-01 0.44079544E+03</pdfrwt>
<pdfrwt beam="2">  1       21 0.65057970E-01 0.44079544E+03</pdfrwt>
<totfact> 0.69173600E+04</totfact>
</mgrwt>
</event>
<event>
 7    0  0.4737014E-002  0.4516171E+03  0.7546771E-02  0.1027241E+00
         21   -1    0    0  502  501  0.00000000000E+00  0.00000000000E+00  0.28281358865E+03  0.28281358865E+03  0.00000000000E+00 0.  1.
         21   -1    0    0  501  502 -0.00000000000E+00 -0.00000000000E+00 -0.18029366049E+03  0.18029366049E+03  0.00000000000E+00 0.  1.
      99926    2    1    2    0    0  0.00000000000E+00 -0.71054273576E-14  0.10251992816E+03  0.46310724914E+03  0.45161708176E+03 0.  0.
      99925    2    3    3    0    0  0.45983665320E+02 -0.39660155400E+02 -0.29360501504E+02  0.27146335743E+03  0.26295035649E+03 0.  0.
         25    1    3    3    0    0 -0.45983665320E+02  0.39660155400E+02  0.13188042966E+03  0.19164389171E+03  0.12509000000E+03 0.  0.
         25    1    4    4    0    0  0.46718178587E+02  0.10045702734E+02 -0.28243799438E+02  0.13685293077E+03  0.12509000000E+03 0.  0.
         25    1    4    4    0    0 -0.73451326770E+00 -0.49705858134E+02 -0.11167020667E+01  0.13461042666E+03  0.12509000000E+03 0.  0.
<mgrwt>
<rscale>  2 0.45161708E+03</rscale>
<asrwt>0</asrwt>
<pdfrwt beam="1">  1       21 0.41590234E-01 0.45161708E+03</pdfrwt>
<pdfrwt beam="2">  1       21 0.26513774E-01 0.45161708E+03</pdfrwt>
<totfact> 0.69806607E+04</totfact>
</mgrwt>
</event>
<event>
 7    0  0.4737014E-002  0.4338395E+03  0.7546771E-02  0.1032654E+00
         21   -1    0    0  502  501  0.00000000000E+00  0.00000000000E+00  0.11772051745E+03  0.11772051745E+03  0.00000000000E+00 0. -1.
         21   -1    0    0  501  502 -0.00000000000E+00 -0.00000000000E+00 -0.39971102101E+03  0.39971102101E+03  0.00000000000E+00 0. -1.
      99926    2    1    2    0    0  0.00000000000E+00  0.00000000000E+00 -0.28199050356E+03  0.51743153846E+03  0.43383954741E+03 0.  0.
      99925    2    3    3    0    0 -0.53574003108E+02 -0.40791742421E+02 -0.25548369398E+03  0.37291766677E+03  0.26317585041E+03 0.  0.
         25    1    4    4    0    0  0.96026189495E+01 -0.38593269137E+02 -0.13136102295E+03  0.18570104244E+03  0.12509000000E+03 0.  0.
         25    1    3    3    0    0  0.53574003108E+02  0.40791742421E+02 -0.26506809578E+02  0.14451387170E+03  0.12509000000E+03 0.  0.
         25    1    4    4    0    0 -0.63176622057E+02 -0.21984732839E+01 -0.12412267103E+03  0.18721662433E+03  0.12509000000E+03 0.  0.
<mgrwt>
<rscale>  2 0.43383955E+03</rscale>
<asrwt>0</asrwt>
<pdfrwt beam="1">  1       21 0.17311841E-01 0.43383955E+03</pdfrwt>
<pdfrwt beam="2">  1       21 0.58781033E-01 0.43383955E+03</pdfrwt>
<totfact> 0.76032401E+04</totfact>
</mgrwt>
</event>
<event>
 7    0  0.4737014E-002  0.4394073E+03  0.7546771E-02  0.1030929E+00
         21   -1    0    0  502  501  0.00000000000E+00  0.00000000000E+00  0.44785042531E+02  0.44785042531E+02  0.00000000000E+00 0. -1.
         21   -1    0    0  501  502 -0.00000000000E+00 -0.00000000000E+00 -0.10778084497E+04  0.10778084497E+04  0.00000000000E+00 0. -1.
      99926    2    1    2    0    0  0.00000000000E+00 -0.14210854715E-13 -0.10330234072E+04  0.11225934923E+04  0.43940731565E+03 0.  0.
      99925    2    3    3    0    0  0.38365759469E+02 -0.78636389463E+02 -0.77151886126E+03  0.81979364270E+03  0.26299173006E+03 0.  0.
         25    1    3    3    0    0 -0.38365759469E+02  0.78636389463E+02 -0.26150454594E+03  0.30279984956E+03  0.12509000000E+03 0.  0.
         25    1    4    4    0    0  0.11813103841E+02 -0.51030171903E+01 -0.42423140241E+03  0.44247641869E+03  0.12509000000E+03 0.  0.
         25    1    4    4    0    0  0.26552655628E+02 -0.73533372272E+02 -0.34728745885E+03  0.37731722401E+03  0.12509000000E+03 0.  0.
<mgrwt>
<rscale>  2 0.43940732E+03</rscale>
<asrwt>0</asrwt>
<pdfrwt beam="1">  1       21 0.65860372E-02 0.43940732E+03</pdfrwt>
<pdfrwt beam="2">  1       21 0.15850120E+00 0.43940732E+03</pdfrwt>
<totfact> 0.39271756E+04</totfact>
</mgrwt>
</event>
<event>
 7    0  0.4737014E-002  0.4578831E+03  0.7546771E-02  0.1025397E+00
         21   -1    0    0  502  501  0.00000000000E+00  0.00000000000E+00  0.77836798294E+03  0.77836798294E+03  0.00000000000E+00 0.  1.
         21   -1    0    0  501  502 -0.00000000000E+00 -0.00000000000E+00 -0.67338634748E+02  0.67338634748E+02  0.00000000000E+00 0.  1.
      99926    2    1    2    0    0  0.00000000000E+00  0.00000000000E+00  0.71102934819E+03  0.84570661769E+03  0.45788311741E+03 0.  0.
      99925    2    3    3    0    0 -0.20732162012E+02  0.10912451661E+03  0.50701517657E+03  0.58187471478E+03  0.26301294980E+03 0.  0.
         25    1    4    4    0    0  0.36604144051E+01  0.95320305492E+02  0.28076151663E+03  0.32182898657E+03  0.12509000000E+03 0.  0.
         25    1    4    4    0    0 -0.24392576417E+02  0.13804211121E+02  0.22625365994E+03  0.26004572822E+03  0.12509000000E+03 0.  0.
         25    1    3    3    0    0  0.20732162012E+02 -0.10912451661E+03  0.20401417162E+03  0.26383190291E+03  0.12509000000E+03 0.  0.
<mgrwt>
<rscale>  2 0.45788312E+03</rscale>
<asrwt>0</asrwt>
<pdfrwt beam="1">  1       21 0.11446587E+00 0.45788312E+03</pdfrwt>
<pdfrwt beam="2">  1       21 0.99027408E-02 0.45788312E+03</pdfrwt>
<totfact> 0.44614372E+04</totfact>
</mgrwt>
</event>
<event>
 7    0  0.4737014E-002  0.4476720E+03  0.7546771E-02  0.1028419E+00
         21   -1    0    0  502  501  0.00000000000E+00  0.00000000000E+00  0.82736396022E+02  0.82736396022E+02  0.00000000000E+00 0.  1.
         21   -1    0    0  501  502 -0.00000000000E+00 -0.00000000000E+00 -0.60556844617E+03  0.60556844617E+03  0.00000000000E+00 0.  1.
      99926    2    1    2    0    0  0.00000000000E+00 -0.17763568394E-14 -0.52283205015E+03  0.68830484219E+03  0.44767198161E+03 0.  0.
      99925    2    3    3    0    0 -0.50140265903E+02 -0.11387450221E+02 -0.18856112233E+03  0.32771049729E+03  0.26304971563E+03 0.  0.
         25    1    3    3    0    0  0.50140265903E+02  0.11387450221E+02 -0.33427092782E+03  0.36059434490E+03  0.12509000000E+03 0.  0.
         25    1    4    4    0    0 -0.55795002900E+02  0.81295025623E+01 -0.12639722902E+03  0.18655545761E+03  0.12509000000E+03 0.  0.
         25    1    4    4    0    0  0.56547369973E+01 -0.19516952784E+02 -0.62163893309E+02  0.14115503968E+03  0.12509000000E+03 0.  0.
<mgrwt>
<rscale>  2 0.44767198E+03</rscale>
<asrwt>0</asrwt>
<pdfrwt beam="1">  1       21 0.12167117E-01 0.44767198E+03</pdfrwt>
<pdfrwt beam="2">  1       21 0.89054182E-01 0.44767198E+03</pdfrwt>
<totfact> 0.56746044E+04</totfact>
</mgrwt>
</event>
<event>
 7    0  0.4737014E-002  0.4587955E+03  0.7546771E-02  0.1025131E+00
         21   -1    0    0  502  501  0.00000000000E+00  0.00000000000E+00  0.21296772832E+03  0.21296772832E+03  0.00000000000E+00 0.  1.
         21   -1    0    0  501  502 -0.00000000000E+00 -0.00000000000E+00 -0.24709530914E+03  0.24709530914E+03  0.00000000000E+00 0.  1.
      99926    2    1    2    0    0  0.00000000000E+00  0.00000000000E+00 -0.34127580817E+02  0.46006303746E+03  0.45879549547E+03 0.  0.
      99925    2    3    3    0    0 -0.49233548361E+02 -0.99955380881E+02 -0.56246773454E+02  0.29109029637E+03  0.26297307973E+03 0.  0.
         25    1    4    4    0    0 -0.34146659628E+02 -0.57770796384E+02  0.10604664867E+02  0.14234966208E+03  0.12509000000E+03 0.  0.
         25    1    4    4    0    0 -0.15086888733E+02 -0.42184584497E+02 -0.66851438322E+02  0.14874063428E+03  0.12509000000E+03 0.  0.
         25    1    3    3    0    0  0.49233548361E+02  0.99955380881E+02  0.22119192637E+02  0.16897274110E+03  0.12509000000E+03 0.  0.
<mgrwt>
<rscale>  2 0.45879550E+03</rscale>
<asrwt>0</asrwt>
<pdfrwt beam="1">  1       21 0.31318784E-01 0.45879550E+03</pdfrwt>
<pdfrwt beam="2">  1       21 0.36337545E-01 0.45879550E+03</pdfrwt>
<totfact> 0.66150432E+04</totfact>
</mgrwt>
</event>
<event>
 7    0  0.4737014E-002  0.4533776E+03  0.7546771E-02  0.1026720E+00
         21   -1    0    0  502  501  0.00000000000E+00  0.00000000000E+00  0.38790512182E+02  0.38790512182E+02  0.00000000000E+00 0.  1.
         21   -1    0    0  501  502 -0.00000000000E+00 -0.00000000000E+00 -0.13247523325E+04  0.13247523325E+04  0.00000000000E+00 0.  1.
      99926    2    1    2    0    0  0.14210854715E-13  0.71054273576E-14 -0.12859618203E+04  0.13635428447E+04  0.45337764167E+03 0.  0.
      99925    2    3    3    0    0  0.97543104086E+02 -0.35305959690E+02 -0.93495782361E+03  0.97674511751E+03  0.26291391119E+03 0.  0.
         25    1    4    4    0    0  0.90547246215E+02 -0.29135793406E+02 -0.51036436676E+03  0.53401029317E+03  0.12509000000E+03 0.  0.
         25    1    4    4    0    0  0.69958578709E+01 -0.61701662841E+01 -0.42459345685E+03  0.44273482434E+03  0.12509000000E+03 0.  0.
         25    1    3    3    0    0 -0.97543104086E+02  0.35305959690E+02 -0.35100399673E+03  0.38679772720E+03  0.12509000000E+03 0.  0.
<mgrwt>
<rscale>  2 0.45337764E+03</rscale>
<asrwt>0</asrwt>
<pdfrwt beam="1">  1       21 0.57044875E-02 0.45337764E+03</pdfrwt>
<pdfrwt beam="2">  1       21 0.19481651E+00 0.45337764E+03</pdfrwt>
<totfact> 0.27667182E+04</totfact>
</mgrwt>
</event>
<event>
 7    0  0.4737014E-002  0.4573160E+03  0.7546771E-02  0.1025563E+00
         21   -1    0    0  502  501  0.00000000000E+00  0.00000000000E+00  0.29534222547E+03  0.29534222547E+03  0.00000000000E+00 0. -1.
         21   -1    0    0  501  502 -0.00000000000E+00 -0.00000000000E+00 -0.17703012411E+03  0.17703012411E+03  0.00000000000E+00 0. -1.
      99926    2    1    2    0    0  0.35527136788E-14  0.00000000000E+00  0.11831210136E+03  0.47237234959E+03  0.45731595569E+03 0.  0.
      99925    2    3    3    0    0  0.27839966976E+02  0.88967964551E+02  0.14469132402E+03  0.31415182637E+03  0.26280302184E+03 0.  0.
         25    1    4    4    0    0 -0.76913961940E+01  0.78073039730E+02  0.87873069042E+02  0.17182474057E+03  0.12509000000E+03 0.  0.
         25    1    4    4    0    0  0.35531363170E+02  0.10894924821E+02  0.56818254979E+02  0.14232708581E+03  0.12509000000E+03 0.  0.
         25    1    3    3    0    0 -0.27839966976E+02 -0.88967964551E+02 -0.26379222662E+02  0.15822052321E+03  0.12509000000E+03 0.  0.
<mgrwt>
<rscale>  2 0.45731596E+03</rscale>
<asrwt>0</asrwt>
<pdfrwt beam="1">  1       21 0.43432680E-01 0.45731596E+03</pdfrwt>
<pdfrwt beam="2">  1       21 0.26033842E-01 0.45731596E+03</pdfrwt>
<totfact> 0.66037993E+04</totfact>
</mgrwt>
</event>
<event>
 7    0  0.4737014E-002  0.4646501E+03  0.7546771E-02  0.1023441E+00
         21   -1    0    0  502  501  0.00000000000E+00  0.00000000000E+00  0.11047034680E+04  0.11047034680E+04  0.00000000000E+00 0. -1.
         21   -1    0    0  501  502 -0.00000000000E+00 -0.00000000000E+00 -0.48859207808E+02  0.48859207808E+02  0.00000000000E+00 0. -1.
      99926    2    1    2    0    0  0.00000000000E+00  0.00000000000E+00  0.10558442602E+04  0.11535626758E+04  0.46465013207E+03 0.  0.
      99925    2    3    3    0    0  0.99299206789E+02 -0.42737161426E+02  0.79931323898E+03  0.84837016217E+03  0.26295147958E+03 0.  0.
         25    1    4    4    0    0  0.51980751245E+02  0.54190176596E+01  0.29983703362E+03  0.32906096560E+03  0.12509000000E+03 0.  0.
         25    1    3    3    0    0 -0.99299206789E+02  0.42737161426E+02  0.25653102120E+03  0.30519251363E+03  0.12509000000E+03 0.  0.
         25    1    4    4    0    0  0.47318455545E+02 -0.48156179086E+02  0.49947620536E+03  0.51930919657E+03  0.12509000000E+03 0.  0.
<mgrwt>
<rscale>  2 0.46465013E+03</rscale>
<asrwt>0</asrwt>
<pdfrwt beam="1">  1       21 0.16245638E+00 0.46465013E+03</pdfrwt>
<pdfrwt beam="2">  1       21 0.71851783E-02 0.46465013E+03</pdfrwt>
<totfact> 0.31246668E+04</totfact>
</mgrwt>
</event>
<event>
 7    0  0.4737014E-002  0.4515171E+03  0.7546771E-02  0.1027271E+00
         21   -1    0    0  502  501  0.00000000000E+00  0.00000000000E+00  0.10481816743E+04  0.10481816743E+04  0.00000000000E+00 0. -1.
         21   -1    0    0  501  502 -0.00000000000E+00 -0.00000000000E+00 -0.48624134413E+02  0.48624134413E+02  0.00000000000E+00 0. -1.
      99926    2    1    2    0    0  0.00000000000E+00 -0.14210854715E-13  0.99955753989E+03  0.10968058087E+04  0.45151711649E+03 0.  0.
      99925    2    3    3    0    0  0.27619708579E+02 -0.79074689261E+02  0.45936685438E+03  0.53603032815E+03  0.26323934170E+03 0.  0.
         25    1    4    4    0    0  0.20113909494E+02 -0.15120798837E+01  0.17926270965E+03  0.21952103068E+03  0.12509000000E+03 0.  0.
         25    1    3    3    0    0 -0.27619708579E+02  0.79074689261E+02  0.54019068551E+03  0.56077548056E+03  0.12509000000E+03 0.  0.
         25    1    4    4    0    0  0.75057990854E+01 -0.77562609377E+02  0.28010414472E+03  0.31650929747E+03  0.12509000000E+03 0.  0.
<mgrwt>
<rscale>  2 0.45151712E+03</rscale>
<asrwt>0</asrwt>
<pdfrwt beam="1">  1       21 0.15414435E+00 0.45151712E+03</pdfrwt>
<pdfrwt beam="2">  1       21 0.71506087E-02 0.45151712E+03</pdfrwt>
<totfact> 0.36589313E+04</totfact>
</mgrwt>
</event>
<event>
 7    0  0.4737014E-002  0.4500731E+03  0.7546771E-02  0.1027700E+00
         21   -1    0    0  502  501  0.00000000000E+00  0.00000000000E+00  0.13769214540E+03  0.13769214540E+03  0.00000000000E+00 0. -1.
         21   -1    0    0  501  502 -0.00000000000E+00 -0.00000000000E+00 -0.36778749131E+03  0.36778749131E+03  0.00000000000E+00 0. -1.
      99926    2    1    2    0    0 -0.35527136788E-14  0.00000000000E+00 -0.23009534592E+03  0.50547963671E+03  0.45007309953E+03 0.  0.
      99925    2    3    3    0    0 -0.28681697015E+02  0.10268720101E+03 -0.12253852915E+03  0.30905337083E+03  0.26292773513E+03 0.  0.
         25    1    4    4    0    0 -0.83186576138E+01  0.91287773269E+02 -0.82469327560E+02  0.17564553994E+03  0.12509000000E+03 0.  0.
         25    1    3    3    0    0  0.28681697015E+02 -0.10268720101E+03 -0.10755681677E+03  0.19642626588E+03  0.12509000000E+03 0.  0.
         25    1    4    4    0    0 -0.20363039401E+02  0.11399427740E+02 -0.40069201589E+02  0.13340783089E+03  0.12509000000E+03 0.  0.
<mgrwt>
<rscale>  2 0.45007310E+03</rscale>
<asrwt>0</asrwt>
<pdfrwt beam="1">  1       21 0.20248845E-01 0.45007310E+03</pdfrwt>
<pdfrwt beam="2">  1       21 0.54086395E-01 0.45007310E+03</pdfrwt>
<totfact> 0.67488018E+04</totfact>
</mgrwt>
</event>
<event>
 7    0  0.4737014E-002  0.4531215E+03  0.7546771E-02  0.1026795E+00
         21   -1    0    0  502  501  0.00000000000E+00  0.00000000000E+00  0.73399577450E+03  0.73399577450E+03  0.00000000000E+00 0.  1.
         21   -1    0    0  501  502 -0.00000000000E+00 -0.00000000000E+00 -0.69931959342E+02  0.69931959342E+02  0.00000000000E+00 0.  1.
      99926    2    1    2    0    0  0.71054273576E-14  0.00000000000E+00  0.66406381516E+03  0.80392773384E+03  0.45312145241E+03 0.  0.
      99925    2    3    3    0    0 -0.63946262229E+02 -0.86079812556E+02  0.36450035965E+03  0.46204379072E+03  0.26291651485E+03 0.  0.
         25    1    4    4    0    0 -0.33579908363E+02 -0.83329441526E+02  0.21936531630E+03  0.26802995386E+03  0.12509000000E+03 0.  0.
         25    1    4    4    0    0 -0.30366353866E+02 -0.27503710296E+01  0.14513504334E+03  0.19401383686E+03  0.12509000000E+03 0.  0.
         25    1    3    3    0    0  0.63946262229E+02  0.86079812556E+02  0.29956345551E+03  0.34188394312E+03  0.12509000000E+03 0.  0.
<mgrwt>
<rscale>  2 0.45312145E+03</rscale>
<asrwt>0</asrwt>
<pdfrwt beam="1">  1       21 0.10794055E+00 0.45312145E+03</pdfrwt>
<pdfrwt beam="2">  1       21 0.10284112E-01 0.45312145E+03</pdfrwt>
<totfact> 0.48283284E+04</totfact>
</mgrwt>
</event>
<event>
 7    0  0.4737014E-002  0.4537535E+03  0.7546771E-02  0.1026609E+00
         21   -1    0    0  502  501  0.00000000000E+00  0.00000000000E+00  0.14657335667E+03  0.14657335667E+03  0.00000000000E+00 0.  1.
         21   -1    0    0  501  502 -0.00000000000E+00 -0.00000000000E+00 -0.35117612415E+03  0.35117612415E+03  0.00000000000E+00 0.  1.
      99926    2    1    2    0    0  0.14210854715E-13  0.71054273576E-14 -0.20460276748E+03  0.49774948081E+03  0.45375351590E+03 0.  0.
      99925    2    3    3    0    0 -0.97862401226E+02 -0.52938807322E+02 -0.14300200957E+03  0.31936302289E+03  0.26298973128E+03 0.  0.
         25    1    4    4    0    0 -0.50404599983E+02  0.10527631014E+02 -0.48538849755E+02  0.14371841479E+03  0.12509000000E+03 0.  0.
         25    1    4    4    0    0 -0.47457801243E+02 -0.63466438335E+02 -0.94463159810E+02  0.17564460810E+03  0.12509000000E+03 0.  0.
         25    1    3    3    0    0  0.97862401226E+02  0.52938807322E+02 -0.61600757915E+02  0.17838645792E+03  0.12509000000E+03 0.  0.
<mgrwt>
<rscale>  2 0.45375352E+03</rscale>
<asrwt>0</asrwt>
<pdfrwt beam="1">  1       21 0.21554905E-01 0.45375352E+03</pdfrwt>
<pdfrwt beam="2">  1       21 0.51643548E-01 0.45375352E+03</pdfrwt>
<totfact> 0.66080498E+04</totfact>
</mgrwt>
</event>
<event>
 7    0  0.4737014E-002  0.4558138E+03  0.7546771E-02  0.1026002E+00
         21   -1    0    0  502  501  0.00000000000E+00  0.00000000000E+00  0.13294773214E+03  0.13294773214E+03  0.00000000000E+00 0.  1.
         21   -1    0    0  501  502 -0.00000000000E+00 -0.00000000000E+00 -0.39069148272E+03  0.39069148272E+03  0.00000000000E+00 0.  1.
      99926    2    1    2    0    0  0.00000000000E+00  0.00000000000E+00 -0.25774375058E+03  0.52363921486E+03  0.45581376282E+03 0.  0.
      99925    2    3    3    0    0  0.89125442221E+02 -0.61253400109E+02 -0.20348884104E+03  0.34960925542E+03  0.26291367322E+03 0.  0.
         25    1    4    4    0    0  0.74911028860E+02 -0.24461571170E+02 -0.74119265319E+02  0.16538199509E+03  0.12509000000E+03 0.  0.
         25    1    4    4    0    0  0.14214413361E+02 -0.36791828939E+02 -0.12936957572E+03  0.18422726032E+03  0.12509000000E+03 0.  0.
         25    1    3    3    0    0 -0.89125442221E+02  0.61253400109E+02 -0.54254909536E+02  0.17402995945E+03  0.12509000000E+03 0.  0.
<mgrwt>
<rscale>  2 0.45581376E+03</rscale>
<asrwt>0</asrwt>
<pdfrwt beam="1">  1       21 0.19551137E-01 0.45581376E+03</pdfrwt>
<pdfrwt beam="2">  1       21 0.57454630E-01 0.45581376E+03</pdfrwt>
<totfact> 0.63230224E+04</totfact>
</mgrwt>
</event>
<event>
 7    0  0.4737014E-002  0.4509826E+03  0.7546771E-02  0.1027429E+00
         21   -1    0    0  502  501  0.00000000000E+00  0.00000000000E+00  0.67787298247E+02  0.67787298247E+02  0.00000000000E+00 0. -1.
         21   -1    0    0  501  502 -0.00000000000E+00 -0.00000000000E+00 -0.75008637014E+03  0.75008637014E+03  0.00000000000E+00 0. -1.
      99926    2    1    2    0    0  0.00000000000E+00  0.00000000000E+00 -0.68229907189E+03  0.81787366839E+03  0.45098260935E+03 0.  0.
      99925    2    3    3    0    0 -0.28399119821E+02 -0.96778862052E+02 -0.35704749879E+03  0.45509446274E+03  0.26354391565E+03 0.  0.
         25    1    4    4    0    0 -0.22215698730E+02 -0.77104262370E+02 -0.14253114351E+03  0.20591561261E+03  0.12509000000E+03 0.  0.
         25    1    4    4    0    0 -0.61834210904E+01 -0.19674599682E+02 -0.21451635528E+03  0.24917885013E+03  0.12509000000E+03 0.  0.
         25    1    3    3    0    0  0.28399119821E+02  0.96778862052E+02 -0.32525157310E+03  0.36277920565E+03  0.12509000000E+03 0.  0.
<mgrwt>
<rscale>  2 0.45098261E+03</rscale>
<asrwt>0</asrwt>
<pdfrwt beam="1">  1       21 0.99687206E-02 0.45098261E+03</pdfrwt>
<pdfrwt beam="2">  1       21 0.11030682E+00 0.45098261E+03</pdfrwt>
<totfact> 0.48420859E+04</totfact>
</mgrwt>
</event>
<event>
 7    0  0.4737014E-002  0.4604534E+03  0.7546771E-02  0.1024650E+00
         21   -1    0    0  502  501  0.00000000000E+00  0.00000000000E+00  0.46923390677E+03  0.46923390677E+03  0.00000000000E+00 0. -1.
         21   -1    0    0  501  502 -0.00000000000E+00 -0.00000000000E+00 -0.11295927666E+03  0.11295927666E+03  0.00000000000E+00 0. -1.
      99926    2    1    2    0    0  0.14210854715E-13  0.00000000000E+00  0.35627463011E+03  0.58219318342E+03  0.46045335352E+03 0.  0.
      99925    2    3    3    0    0 -0.80137850981E+02  0.84942497244E+02  0.19722392396E+03  0.34856540634E+03  0.26260857434E+03 0.  0.
         25    1    4    4    0    0 -0.22601293267E+02  0.89076534915E+01  0.11211778241E+03  0.16972940223E+03  0.12509000000E+03 0.  0.
         25    1    4    4    0    0 -0.57536557715E+02  0.76034843752E+02  0.85106141553E+02  0.17883600412E+03  0.12509000000E+03 0.  0.
         25    1    3    3    0    0  0.80137850981E+02 -0.84942497244E+02  0.15905070615E+03  0.23362777708E+03  0.12509000000E+03 0.  0.
<mgrwt>
<rscale>  2 0.46045335E+03</rscale>
<asrwt>0</asrwt>
<pdfrwt beam="1">  1       21 0.69004985E-01 0.46045335E+03</pdfrwt>
<pdfrwt beam="2">  1       21 0.16611659E-01 0.46045335E+03</pdfrwt>
<totfact> 0.57278382E+04</totfact>
</mgrwt>
</event>
<event>
 7    0  0.4737014E-002  0.4591238E+03  0.7546771E-02  0.1025036E+00
         21   -1    0    0  502  501  0.00000000000E+00  0.00000000000E+00  0.22742074536E+03  0.22742074536E+03  0.00000000000E+00 0. -1.
         21   -1    0    0  501  502 -0.00000000000E+00 -0.00000000000E+00 -0.23172316447E+03  0.23172316447E+03  0.00000000000E+00 0. -1.
      99926    2    1    2    0    0  0.00000000000E+00 -0.14210854715E-13 -0.43024191120E+01  0.45914390982E+03  0.45912375142E+03 0.  0.
      99925    2    3    3    0    0  0.33249923103E+02 -0.82342632878E+02  0.74385740116E+02  0.28673393019E+03  0.26229228317E+03 0.  0.
         25    1    4    4    0    0 -0.14716053474E+02 -0.20376608345E+02  0.50429841593E+02  0.13719491762E+03  0.12509000000E+03 0.  0.
         25    1    4    4    0    0  0.47965976577E+02 -0.61966024533E+02  0.23955898523E+02  0.14953901257E+03  0.12509000000E+03 0.  0.
         25    1    3    3    0    0 -0.33249923103E+02  0.82342632878E+02 -0.78688159228E+02  0.17240997964E+03  0.12509000000E+03 0.  0.
<mgrwt>
<rscale>  2 0.45912375E+03</rscale>
<asrwt>0</asrwt>
<pdfrwt beam="1">  1       21 0.33444227E-01 0.45912375E+03</pdfrwt>
<pdfrwt beam="2">  1       21 0.34076936E-01 0.45912375E+03</pdfrwt>
<totfact> 0.66043335E+04</totfact>
</mgrwt>
</event>
<event>
 6    0  0.4737014E-002  0.4571387E+03  0.7546771E-02  0.1025614E+00
         21   -1    0    0  502  501  0.00000000000E+00  0.00000000000E+00  0.30482491761E+03  0.30482491761E+03  0.00000000000E+00 0. -1.
         21   -1    0    0  501  502 -0.00000000000E+00 -0.00000000000E+00 -0.17139004968E+03  0.17139004968E+03  0.00000000000E+00 0. -1.
      99926    2    1    2    0    0  0.00000000000E+00  0.00000000000E+00  0.13343486793E+03  0.47621496729E+03  0.45713874381E+03 0.  0.
         25    1    3    3    0    0  0.71602281585E+02 -0.44447285774E+02  0.31186400040E+02  0.15402125694E+03  0.12509000000E+03 0.  0.
         25    1    3    3    0    0 -0.90135580754E+02  0.11401015819E+02  0.11233214305E+03  0.19110317774E+03  0.12509000000E+03 0.  0.
         25    1    3    3    0    0  0.18533299168E+02  0.33046269955E+02 -0.10083675166E+02  0.13109053261E+03  0.12509000000E+03 0.  0.
<mgrwt>
<rscale>  2 0.45713874E+03</rscale>
<asrwt>0</asrwt>
<pdfrwt beam="1">  1       21 0.44827194E-01 0.45713874E+03</pdfrwt>
<pdfrwt beam="2">  1       21 0.25204419E-01 0.45713874E+03</pdfrwt>
<totfact> 0.65851880E+04</totfact>
</mgrwt>
</event>
<event>
 7    0  0.4737014E-002  0.4426547E+03  0.7546771E-02  0.1029935E+00
         21   -1    0    0  502  501  0.00000000000E+00  0.00000000000E+00  0.89426486972E+03  0.89426486972E+03  0.00000000000E+00 0.  1.
         21   -1    0    0  501  502 -0.00000000000E+00 -0.00000000000E+00 -0.54777734796E+02  0.54777734796E+02  0.00000000000E+00 0.  1.
      99926    2    1    2    0    0  0.00000000000E+00  0.17763568394E-14  0.83948713492E+03  0.94904260451E+03  0.44265473620E+03 0.  0.
      99925    2    3    3    0    0 -0.70640015569E+02  0.13952050938E+02  0.38199727480E+03  0.46932482109E+03  0.26298136475E+03 0.  0.
         25    1    4    4    0    0 -0.75738127616E+01 -0.14758906673E+02  0.14209555636E+03  0.19003642599E+03  0.12509000000E+03 0.  0.
         25    1    3    3    0    0  0.70640015569E+02 -0.13952050938E+02  0.45748986012E+03  0.47971778342E+03  0.12509000000E+03 0.  0.
         25    1    4    4    0    0 -0.63066202807E+02  0.28710957611E+02  0.23990171845E+03  0.27928839510E+03  0.12509000000E+03 0.  0.
<mgrwt>
<rscale>  2 0.44265474E+03</rscale>
<asrwt>0</asrwt>
<pdfrwt beam="1">  1       21 0.13150953E+00 0.44265474E+03</pdfrwt>
<pdfrwt beam="2">  1       21 0.80555498E-02 0.44265474E+03</pdfrwt>
<totfact> 0.45407122E+04</totfact>
</mgrwt>
</event>
<event>
 7    0  0.4737014E-002  0.4417862E+03  0.7546771E-02  0.1030200E+00
         21   -1    0    0  502  501  0.00000000000E+00  0.00000000000E+00  0.12251763464E+03  0.12251763464E+03  0.00000000000E+00 0. -1.
         21   -1    0    0  501  502 -0.00000000000E+00 -0.00000000000E+00 -0.39825912997E+03  0.39825912997E+03  0.00000000000E+00 0. -1.
      99926    2    1    2    0    0  0.00000000000E+00  0.00000000000E+00 -0.27574149534E+03  0.52077676461E+03  0.44178622241E+03 0.  0.
      99925    2    3    3    0    0  0.76930383670E+02  0.54374335718E+02 -0.21679802024E+03  0.35345463914E+03  0.26278117899E+03 0.  0.
         25    1    3    3    0    0 -0.76930383670E+02 -0.54374335718E+02 -0.58943475098E+02  0.16732212547E+03  0.12509000000E+03 0.  0.
         25    1    4    4    0    0  0.52507194837E+02 -0.10588479698E+02 -0.10821256483E+03  0.17385795553E+03  0.12509000000E+03 0.  0.
         25    1    4    4    0    0  0.24423188833E+02  0.64962815416E+02 -0.10858545540E+03  0.17959668361E+03  0.12509000000E+03 0.  0.
<mgrwt>
<rscale>  2 0.44178622E+03</rscale>
<asrwt>0</asrwt>
<pdfrwt beam="1">  1       21 0.18017300E-01 0.44178622E+03</pdfrwt>
<pdfrwt beam="2">  1       21 0.58567518E-01 0.44178622E+03</pdfrwt>
<totfact> 0.70979519E+04</totfact>
</mgrwt>
</event>
<event>
 7    0  0.4737014E-002  0.4590605E+03  0.7546771E-02  0.1025054E+00
         21   -1    0    0  502  501  0.00000000000E+00  0.00000000000E+00  0.52360717838E+02  0.52360717838E+02  0.00000000000E+00 0. -1.
         21   -1    0    0  501  502 -0.00000000000E+00 -0.00000000000E+00 -0.10061766222E+04  0.10061766222E+04  0.00000000000E+00 0. -1.
      99926    2    1    2    0    0  0.00000000000E+00 -0.71054273576E-14 -0.95381590437E+03  0.10585373400E+04  0.45906047624E+03 0.  0.
      99925    2    3    3    0    0 -0.81905116439E+02 -0.32245888235E+02 -0.41936671478E+03  0.50263115214E+03  0.26271921936E+03 0.  0.
         25    1    4    4    0    0 -0.29104361232E+01  0.21341444179E+01 -0.19391974090E+03  0.23079297914E+03  0.12509000000E+03 0.  0.
         25    1    3    3    0    0  0.81905116439E+02  0.32245888235E+02 -0.53444918959E+03  0.55590618791E+03  0.12509000000E+03 0.  0.
         25    1    4    4    0    0 -0.78994680315E+02 -0.34380032653E+02 -0.22544697388E+03  0.27183817299E+03  0.12509000000E+03 0.  0.
<mgrwt>
<rscale>  2 0.45906048E+03</rscale>
<asrwt>0</asrwt>
<pdfrwt beam="1">  1       21 0.77001062E-02 0.45906048E+03</pdfrwt>
<pdfrwt beam="2">  1       21 0.14796714E+00 0.45906048E+03</pdfrwt>
<totfact> 0.35817092E+04</totfact>
</mgrwt>
</event>
<event>
 7    0  0.4737014E-002  0.5023702E+03  0.7546771E-02  0.1013162E+00
         21   -1    0    0  502  501  0.00000000000E+00  0.00000000000E+00  0.15838563538E+03  0.15838563538E+03  0.00000000000E+00 0. -1.
         21   -1    0    0  501  502 -0.00000000000E+00 -0.00000000000E+00 -0.39835658932E+03  0.39835658932E+03  0.00000000000E+00 0. -1.
      99926    2    1    2    0    0  0.00000000000E+00  0.17763568394E-14 -0.23997095394E+03  0.55674222470E+03  0.50237022804E+03 0.  0.
      99925    2    3    3    0    0  0.10911112336E+03 -0.73367104657E+01 -0.26470373475E+03  0.38875924012E+03  0.26288137064E+03 0.  0.
         25    1    3    3    0    0 -0.10911112336E+03  0.73367104657E+01  0.24732780808E+02  0.16798298458E+03  0.12509000000E+03 0.  0.
         25    1    4    4    0    0  0.73440384398E+02  0.29492876402E+02 -0.11833119668E+03  0.18950751971E+03  0.12509000000E+03 0.  0.
         25    1    4    4    0    0  0.35670738957E+02 -0.36829586868E+02 -0.14637253807E+03  0.19925172041E+03  0.12509000000E+03 0.  0.
<mgrwt>
<rscale>  2 0.50237023E+03</rscale>
<asrwt>0</asrwt>
<pdfrwt beam="1">  1       21 0.23292006E-01 0.50237023E+03</pdfrwt>
<pdfrwt beam="2">  1       21 0.58581851E-01 0.50237023E+03</pdfrwt>
<totfact> 0.42911980E+04</totfact>
</mgrwt>
</event>
<event>
 7    0  0.4737014E-002  0.4569883E+03  0.7546771E-02  0.1025658E+00
         21   -1    0    0  502  501  0.00000000000E+00  0.00000000000E+00  0.30477318069E+03  0.30477318069E+03  0.00000000000E+00 0.  1.
         21   -1    0    0  501  502 -0.00000000000E+00 -0.00000000000E+00 -0.17130630794E+03  0.17130630794E+03  0.00000000000E+00 0.  1.
      99926    2    1    2    0    0  0.00000000000E+00  0.35527136788E-14  0.13346687275E+03  0.47607948864E+03  0.45698826394E+03 0.  0.
      99925    2    3    3    0    0 -0.53651923731E+02 -0.22321635150E+02 -0.19512316649E+02  0.27010151699E+03  0.26305382465E+03 0.  0.
         25    1    4    4    0    0 -0.34196622395E+02 -0.35418205823E+02 -0.42047495030E+02  0.14085225673E+03  0.12509000000E+03 0.  0.
         25    1    3    3    0    0  0.53651923731E+02  0.22321635150E+02  0.15297918940E+03  0.20597797165E+03  0.12509000000E+03 0.  0.
         25    1    4    4    0    0 -0.19455301336E+02  0.13096570672E+02  0.22535178380E+02  0.12924926026E+03  0.12509000000E+03 0.  0.
<mgrwt>
<rscale>  2 0.45698826E+03</rscale>
<asrwt>0</asrwt>
<pdfrwt beam="1">  1       21 0.44819585E-01 0.45698826E+03</pdfrwt>
<pdfrwt beam="2">  1       21 0.25192104E-01 0.45698826E+03</pdfrwt>
<totfact> 0.65940029E+04</totfact>
</mgrwt>
</event>
<event>
 7    0  0.4737014E-002  0.4567047E+03  0.7546771E-02  0.1025741E+00
         21   -1    0    0  502  501  0.00000000000E+00  0.00000000000E+00  0.28099972350E+04  0.28099972350E+04  0.00000000000E+00 0. -1.
         21   -1    0    0  501  502 -0.00000000000E+00 -0.00000000000E+00 -0.18556888465E+02  0.18556888465E+02  0.00000000000E+00 0. -1.
      99926    2    1    2    0    0  0.00000000000E+00  0.17763568394E-14  0.27914403466E+04  0.28285541235E+04  0.45670474172E+03 0.  0.
      99925    2    3    3    0    0 -0.51988500441E+02  0.70977978287E+01  0.23874611253E+04  0.24024087232E+04  0.26238114526E+03 0.  0.
         25    1    4    4    0    0 -0.35500512779E+02  0.41410862297E+02  0.12811756179E+04  0.12884229189E+04  0.12509000000E+03 0.  0.
         25    1    3    3    0    0  0.51988500441E+02 -0.70977978287E+01  0.40397922125E+03  0.42614540032E+03  0.12509000000E+03 0.  0.
         25    1    4    4    0    0 -0.16487987662E+02 -0.34313064469E+02  0.11062855074E+04  0.11139858043E+04  0.12509000000E+03 0.  0.
<mgrwt>
<rscale>  2 0.45670474E+03</rscale>
<asrwt>0</asrwt>
<pdfrwt beam="1">  1       21 0.41323460E+00 0.45670474E+03</pdfrwt>
<pdfrwt beam="2">  1       21 0.27289561E-02 0.45670474E+03</pdfrwt>
<totfact> 0.42638598E+03</totfact>
</mgrwt>
</event>
<event>
 7    0  0.4737014E-002  0.4532543E+03  0.7546771E-02  0.1026756E+00
         21   -1    0    0  502  501  0.00000000000E+00  0.00000000000E+00  0.34872386330E+03  0.34872386330E+03  0.00000000000E+00 0.  1.
         21   -1    0    0  501  502 -0.00000000000E+00 -0.00000000000E+00 -0.14727949834E+03  0.14727949834E+03  0.00000000000E+00 0.  1.
      99926    2    1    2    0    0  0.00000000000E+00 -0.14210854715E-13  0.20144436495E+03  0.49600336164E+03  0.45325434646E+03 0.  0.
      99925    2    3    3    0    0  0.29555495244E+02  0.10529564524E+03  0.15514583417E+03  0.32351637008E+03  0.26197692960E+03 0.  0.
         25    1    4    4    0    0  0.28266979859E+01  0.36028451637E+02  0.34940633555E+02  0.13481244572E+03  0.12509000000E+03 0.  0.
         25    1    4    4    0    0  0.26728797259E+02  0.69267193602E+02  0.12020520061E+03  0.18870392435E+03  0.12509000000E+03 0.  0.
         25    1    3    3    0    0 -0.29555495244E+02 -0.10529564524E+03  0.46298530787E+02  0.17248699156E+03  0.12509000000E+03 0.  0.
<mgrwt>
<rscale>  2 0.45325435E+03</rscale>
<asrwt>0</asrwt>
<pdfrwt beam="1">  1       21 0.51282921E-01 0.45325435E+03</pdfrwt>
<pdfrwt beam="2">  1       21 0.21658750E-01 0.45325435E+03</pdfrwt>
<totfact> 0.66468691E+04</totfact>
</mgrwt>
</event>
<event>
 7    0  0.4737014E-002  0.4687570E+03  0.7546771E-02  0.1022272E+00
         21   -1    0    0  502  501  0.00000000000E+00  0.00000000000E+00  0.24711649189E+03  0.24711649189E+03  0.00000000000E+00 0.  1.
         21   -1    0    0  501  502 -0.00000000000E+00 -0.00000000000E+00 -0.22229707525E+03  0.22229707525E+03  0.00000000000E+00 0.  1.
      99926    2    1    2    0    0  0.00000000000E+00 -0.14210854715E-13  0.24819416640E+02  0.46941356715E+03  0.46875696643E+03 0.  0.
      99925    2    3    3    0    0 -0.65419383947E+02 -0.67229761610E+02 -0.68264338032E+02  0.28744755349E+03  0.26299532224E+03 0.  0.
         25    1    3    3    0    0  0.65419383947E+02  0.67229761610E+02  0.93083754672E+02  0.18196601366E+03  0.12509000000E+03 0.  0.
         25    1    4    4    0    0 -0.24972301641E+02 -0.39231738849E+02 -0.74587336295E+02  0.15288402146E+03  0.12509000000E+03 0.  0.
         25    1    4    4    0    0 -0.40447082306E+02 -0.27998022761E+02  0.63229982631E+01  0.13456353203E+03  0.12509000000E+03 0.  0.
<mgrwt>
<rscale>  2 0.46875697E+03</rscale>
<asrwt>0</asrwt>
<pdfrwt beam="1">  1       21 0.36340661E-01 0.46875697E+03</pdfrwt>
<pdfrwt beam="2">  1       21 0.32690746E-01 0.46875697E+03</pdfrwt>
<totfact> 0.60575404E+04</totfact>
</mgrwt>
</event>
<event>
 7    0  0.4737014E-002  0.4502508E+03  0.7546771E-02  0.1027647E+00
         21   -1    0    0  502  501  0.00000000000E+00  0.00000000000E+00  0.51930242172E+03  0.51930242172E+03  0.00000000000E+00 0. -1.
         21   -1    0    0  501  502 -0.00000000000E+00 -0.00000000000E+00 -0.97595234324E+02  0.97595234324E+02  0.00000000000E+00 0. -1.
      99926    2    1    2    0    0  0.35527136788E-14  0.00000000000E+00  0.42170718739E+03  0.61689765604E+03  0.45025078138E+03 0.  0.
      99925    2    3    3    0    0  0.22612210718E+02 -0.98340006967E+02  0.32207381809E+03  0.42780406698E+03  0.26287393630E+03 0.  0.
         25    1    4    4    0    0 -0.17961874312E+02 -0.36449054711E+02  0.11435664417E+03  0.17428744270E+03  0.12509000000E+03 0.  0.
         25    1    4    4    0    0  0.40574085029E+02 -0.61890952256E+02  0.20771717391E+03  0.25351662428E+03  0.12509000000E+03 0.  0.
         25    1    3    3    0    0 -0.22612210718E+02  0.98340006967E+02  0.99633369309E+02  0.18909358906E+03  0.12509000000E+03 0.  0.
<mgrwt>
<rscale>  2 0.45025078E+03</rscale>
<asrwt>0</asrwt>
<pdfrwt beam="1">  1       21 0.76368002E-01 0.45025078E+03</pdfrwt>
<pdfrwt beam="2">  1       21 0.14352241E-01 0.45025078E+03</pdfrwt>
<totfact> 0.59863834E+04</totfact>
</mgrwt>
</event>
<event>
 7    0  0.4737014E-002  0.4555925E+03  0.7546771E-02  0.1026067E+00
         21   -1    0    0  502  501  0.00000000000E+00  0.00000000000E+00  0.14438884429E+03  0.14438884429E+03  0.00000000000E+00 0. -1.
         21   -1    0    0  501  502 -0.00000000000E+00 -0.00000000000E+00 -0.35938469853E+03  0.35938469853E+03  0.00000000000E+00 0. -1.
      99926    2    1    2    0    0  0.00000000000E+00  0.00000000000E+00 -0.21499585423E+03  0.50377354282E+03  0.45559254286E+03 0.  0.
      99925    2    3    3    0    0 -0.10108807281E+03 -0.51785396562E+02 -0.12899780409E+03  0.31418530877E+03  0.26300465590E+03 0.  0.
         25    1    4    4    0    0 -0.11564130034E+02 -0.39275823310E+02 -0.49878043862E+02  0.14075385167E+03  0.12509000000E+03 0.  0.
         25    1    3    3    0    0  0.10108807281E+03  0.51785396562E+02 -0.85998050144E+02  0.18958823405E+03  0.12509000000E+03 0.  0.
         25    1    4    4    0    0 -0.89523942779E+02 -0.12509573253E+02 -0.79119760225E+02  0.17343145710E+03  0.12509000000E+03 0.  0.
<mgrwt>
<rscale>  2 0.45559254E+03</rscale>
<asrwt>0</asrwt>
<pdfrwt beam="1">  1       21 0.21233654E-01 0.45559254E+03</pdfrwt>
<pdfrwt beam="2">  1       21 0.52850691E-01 0.45559254E+03</pdfrwt>
<totfact> 0.64701516E+04</totfact>
</mgrwt>
</event>
<event>
 7    0  0.4737014E-002  0.4501220E+03  0.7546771E-02  0.1027686E+00
         21   -1    0    0  502  501  0.00000000000E+00  0.00000000000E+00  0.22604169844E+04  0.22604169844E+04  0.00000000000E+00 0.  1.
         21   -1    0    0  501  502 -0.00000000000E+00 -0.00000000000E+00 -0.22408454716E+02  0.22408454716E+02  0.00000000000E+00 0.  1.
      99926    2    1    2    0    0  0.71054273576E-14 -0.14210854715E-13  0.22380085297E+04  0.22828254391E+04  0.45012199073E+03 0.  0.
      99925    2    3    3    0    0  0.37669352972E+02 -0.84219499363E+02  0.11268313103E+04  0.11608297950E+04  0.26318264965E+03 0.  0.
         25    1    4    4    0    0  0.46088033074E+02 -0.12116286551E+02  0.57265142292E+03  0.58808848949E+03  0.12509000000E+03 0.  0.
         25    1    4    4    0    0 -0.84186801022E+01 -0.72103212812E+02  0.55417988733E+03  0.57274130556E+03  0.12509000000E+03 0.  0.
         25    1    3    3    0    0 -0.37669352972E+02  0.84219499363E+02  0.11111772195E+04  0.11219956441E+04  0.12509000000E+03 0.  0.
<mgrwt>
<rscale>  2 0.45012199E+03</rscale>
<asrwt>0</asrwt>
<pdfrwt beam="1">  1       21 0.33241411E+00 0.45012199E+03</pdfrwt>
<pdfrwt beam="2">  1       21 0.32953625E-02 0.45012199E+03</pdfrwt>
<totfact> 0.99905703E+03</totfact>
</mgrwt>
</event>
<event>
 7    0  0.4737014E-002  0.4434213E+03  0.7546771E-02  0.1029702E+00
         21   -1    0    0  502  501  0.00000000000E+00  0.00000000000E+00  0.10433627331E+03  0.10433627331E+03  0.00000000000E+00 0. -1.
         21   -1    0    0  501  502 -0.00000000000E+00 -0.00000000000E+00 -0.47112687801E+03  0.47112687801E+03  0.00000000000E+00 0. -1.
      99926    2    1    2    0    0  0.00000000000E+00  0.71054273576E-14 -0.36679060471E+03  0.57546315132E+03  0.44342134684E+03 0.  0.
      99925    2    3    3    0    0 -0.33653744343E+02  0.42940813723E+02 -0.34511191364E+03  0.43728224911E+03  0.26293924100E+03 0.  0.
         25    1    4    4    0    0 -0.40201774157E+02 -0.10308963081E+02 -0.18480905116E+03  0.22698975936E+03  0.12509000000E+03 0.  0.
         25    1    4    4    0    0  0.65480298140E+01  0.53249776804E+02 -0.16030286248E+03  0.21029248974E+03  0.12509000000E+03 0.  0.
         25    1    3    3    0    0  0.33653744343E+02 -0.42940813723E+02 -0.21678691070E+02  0.13818090222E+03  0.12509000000E+03 0.  0.
<mgrwt>
<rscale>  2 0.44342135E+03</rscale>
<asrwt>0</asrwt>
<pdfrwt beam="1">  1       21 0.15343570E-01 0.44342135E+03</pdfrwt>
<pdfrwt beam="2">  1       21 0.69283364E-01 0.44342135E+03</pdfrwt>
<totfact> 0.66057310E+04</totfact>
</mgrwt>
</event>
<event>
 7    0  0.4737014E-002  0.4444090E+03  0.7546771E-02  0.1029403E+00
         21   -1    0    0  502  501  0.00000000000E+00  0.00000000000E+00  0.35255973840E+02  0.35255973840E+02  0.00000000000E+00 0. -1.
         21   -1    0    0  501  502 -0.00000000000E+00 -0.00000000000E+00 -0.14004674145E+04  0.14004674145E+04  0.00000000000E+00 0. -1.
      99926    2    1    2    0    0 -0.17763568394E-14  0.00000000000E+00 -0.13652114406E+04  0.14357233883E+04  0.44440901219E+03 0.  0.
      99925    2    3    3    0    0  0.12815079688E+02  0.10060091955E+03 -0.92429617406E+03  0.96632105376E+03  0.26299846062E+03 0.  0.
         25    1    4    4    0    0  0.34011336712E+02  0.45787168475E+02 -0.56165183313E+03  0.57823310661E+03  0.12509000000E+03 0.  0.
         25    1    3    3    0    0 -0.12815079688E+02 -0.10060091955E+03 -0.44091526656E+03  0.46940233453E+03  0.12509000000E+03 0.  0.
         25    1    4    4    0    0 -0.21196257024E+02  0.54813751071E+02 -0.36264434092E+03  0.38808794715E+03  0.12509000000E+03 0.  0.
<mgrwt>
<rscale>  2 0.44440901E+03</rscale>
<asrwt>0</asrwt>
<pdfrwt beam="1">  1       21 0.51847020E-02 0.44440901E+03</pdfrwt>
<pdfrwt beam="2">  1       21 0.20595109E+00 0.44440901E+03</pdfrwt>
<totfact> 0.27597609E+04</totfact>
</mgrwt>
</event>
<event>
 7    0  0.4737014E-002  0.4416785E+03  0.7546771E-02  0.1030233E+00
         21   -1    0    0  502  501  0.00000000000E+00  0.00000000000E+00  0.27317184751E+03  0.27317184751E+03  0.00000000000E+00 0. -1.
         21   -1    0    0  501  502 -0.00000000000E+00 -0.00000000000E+00 -0.17853221737E+03  0.17853221737E+03  0.00000000000E+00 0. -1.
      99926    2    1    2    0    0  0.00000000000E+00  0.00000000000E+00  0.94639630137E+02  0.45170406488E+03  0.44167850597E+03 0.  0.
      99925    2    3    3    0    0 -0.85925107966E+02  0.13777282553E+02  0.11099908754E+03  0.29844585910E+03  0.26301367966E+03 0.  0.
         25    1    3    3    0    0  0.85925107966E+02 -0.13777282553E+02 -0.16359457399E+02  0.15325820578E+03  0.12509000000E+03 0.  0.
         25    1    4    4    0    0 -0.31677368327E+02  0.41420065454E+02  0.74353330926E+02  0.15458008735E+03  0.12509000000E+03 0.  0.
         25    1    4    4    0    0 -0.54247739639E+02 -0.27642782901E+02  0.36645756610E+02  0.14386577175E+03  0.12509000000E+03 0.  0.
<mgrwt>
<rscale>  2 0.44167851E+03</rscale>
<asrwt>0</asrwt>
<pdfrwt beam="1">  1       21 0.40172331E-01 0.44167851E+03</pdfrwt>
<pdfrwt beam="2">  1       21 0.26254738E-01 0.44167851E+03</pdfrwt>
<totfact> 0.76600791E+04</totfact>
</mgrwt>
</event>
<event>
 7    0  0.4737014E-002  0.4603006E+03  0.7546771E-02  0.1024694E+00
         21   -1    0    0  502  501  0.00000000000E+00  0.00000000000E+00  0.10251317239E+03  0.10251317239E+03  0.00000000000E+00 0. -1.
         21   -1    0    0  501  502 -0.00000000000E+00 -0.00000000000E+00 -0.51670587008E+03  0.51670587008E+03  0.00000000000E+00 0. -1.
      99926    2    1    2    0    0  0.14210854715E-13  0.00000000000E+00 -0.41419269769E+03  0.61921904247E+03  0.46030058846E+03 0.  0.
      99925    2    3    3    0    0  0.10373676445E+03  0.51376397095E+02 -0.22777922611E+03  0.36663570778E+03  0.26294013747E+03 0.  0.
         25    1    4    4    0    0  0.82500055570E+02  0.55551465627E+02 -0.13799971166E+03  0.21114841468E+03  0.12509000000E+03 0.  0.
         25    1    4    4    0    0  0.21236708879E+02 -0.41750685317E+01 -0.89779514453E+02  0.15548729310E+03  0.12509000000E+03 0.  0.
         25    1    3    3    0    0 -0.10373676445E+03 -0.51376397095E+02 -0.18641347158E+03  0.25258333469E+03  0.12509000000E+03 0.  0.
<mgrwt>
<rscale>  2 0.46030059E+03</rscale>
<asrwt>0</asrwt>
<pdfrwt beam="1">  1       21 0.15075467E-01 0.46030059E+03</pdfrwt>
<pdfrwt beam="2">  1       21 0.75986156E-01 0.46030059E+03</pdfrwt>
<totfact> 0.55164962E+04</totfact>
</mgrwt>
</event>
<event>
 7    0  0.4737014E-002  0.4552183E+03  0.7546771E-02  0.1026177E+00
         21   -1    0    0  502  501  0.00000000000E+00  0.00000000000E+00  0.25709000387E+03  0.25709000387E+03  0.00000000000E+00 0. -1.
         21   -1    0    0  501  502 -0.00000000000E+00 -0.00000000000E+00 -0.20150893285E+03  0.20150893285E+03  0.00000000000E+00 0. -1.
      99926    2    1    2    0    0 -0.71054273576E-14  0.00000000000E+00  0.55581071019E+02  0.45859893671E+03  0.45521833146E+03 0.  0.
      99925    2    3    3    0    0 -0.48226713671E+02  0.26633566531E+02  0.13580324024E+03  0.30011150090E+03  0.26189545650E+03 0.  0.
         25    1    4    4    0    0 -0.30436881409E+02  0.87913192366E+01  0.11080178740E+03  0.17008302454E+03  0.12509000000E+03 0.  0.
         25    1    4    4    0    0 -0.17789832263E+02  0.17842247294E+02  0.25001452836E+02  0.13002847636E+03  0.12509000000E+03 0.  0.
         25    1    3    3    0    0  0.48226713671E+02 -0.26633566531E+02 -0.80222169219E+02  0.15848743582E+03  0.12509000000E+03 0.  0.
<mgrwt>
<rscale>  2 0.45521833E+03</rscale>
<asrwt>0</asrwt>
<pdfrwt beam="1">  1       21 0.37807354E-01 0.45521833E+03</pdfrwt>
<pdfrwt beam="2">  1       21 0.29633666E-01 0.45521833E+03</pdfrwt>
<totfact> 0.68163987E+04</totfact>
</mgrwt>
</event>
<event>
 7    0  0.4737014E-002  0.4559540E+03  0.7546771E-02  0.1025961E+00
         21   -1    0    0  502  501  0.00000000000E+00  0.00000000000E+00  0.21070716980E+03  0.21070716980E+03  0.00000000000E+00 0. -1.
         21   -1    0    0  501  502 -0.00000000000E+00 -0.00000000000E+00 -0.24666231571E+03  0.24666231571E+03  0.00000000000E+00 0. -1.
      99926    2    1    2    0    0  0.00000000000E+00  0.00000000000E+00 -0.35955145906E+02  0.45736948551E+03  0.45595402592E+03 0.  0.
      99925    2    3    3    0    0 -0.71546481780E+02 -0.78307645198E+02  0.20215705903E+02  0.28400957363E+03  0.26268189279E+03 0.  0.
         25    1    4    4    0    0 -0.30859045806E+02 -0.68729100208E+02  0.38098186446E+02  0.15091371652E+03  0.12509000000E+03 0.  0.
         25    1    3    3    0    0  0.71546481780E+02  0.78307645198E+02 -0.56170851808E+02  0.17335991187E+03  0.12509000000E+03 0.  0.
         25    1    4    4    0    0 -0.40687435974E+02 -0.95785449902E+01 -0.17882480544E+02  0.13309585711E+03  0.12509000000E+03 0.  0.
<mgrwt>
<rscale>  2 0.45595403E+03</rscale>
<asrwt>0</asrwt>
<pdfrwt beam="1">  1       21 0.30986349E-01 0.45595403E+03</pdfrwt>
<pdfrwt beam="2">  1       21 0.36273870E-01 0.45595403E+03</pdfrwt>
<totfact> 0.67854612E+04</totfact>
</mgrwt>
</event>
<event>
 7    0  0.4737014E-002  0.4790530E+03  0.7546771E-02  0.1019396E+00
         21   -1    0    0  502  501  0.00000000000E+00  0.00000000000E+00  0.97029192618E+02  0.97029192618E+02  0.00000000000E+00 0.  1.
         21   -1    0    0  501  502 -0.00000000000E+00 -0.00000000000E+00 -0.59129578481E+03  0.59129578481E+03  0.00000000000E+00 0.  1.
      99926    2    1    2    0    0  0.00000000000E+00  0.00000000000E+00 -0.49426659219E+03  0.68832497743E+03  0.47905303505E+03 0.  0.
      99925    2    3    3    0    0  0.35427703553E+02 -0.96338038857E+02 -0.42966734169E+03  0.51409320313E+03  0.26294801212E+03 0.  0.
         25    1    4    4    0    0 -0.22539725934E+02 -0.43149165968E+02 -0.21578141399E+03  0.25412401794E+03  0.12509000000E+03 0.  0.
         25    1    3    3    0    0 -0.35427703553E+02  0.96338038857E+02 -0.64599250497E+02  0.17423177430E+03  0.12509000000E+03 0.  0.
         25    1    4    4    0    0  0.57967429487E+02 -0.53188872889E+02 -0.21388592770E+03  0.25996918519E+03  0.12509000000E+03 0.  0.
<mgrwt>
<rscale>  2 0.47905304E+03</rscale>
<asrwt>0</asrwt>
<pdfrwt beam="1">  1       21 0.14268999E-01 0.47905304E+03</pdfrwt>
<pdfrwt beam="2">  1       21 0.86955263E-01 0.47905304E+03</pdfrwt>
<totfact> 0.44490999E+04</totfact>
</mgrwt>
</event>
<event>
 7    0  0.4737014E-002  0.4503571E+03  0.7546771E-02  0.1027616E+00
         21   -1    0    0  502  501  0.00000000000E+00  0.00000000000E+00  0.24893799578E+03  0.24893799578E+03  0.00000000000E+00 0. -1.
         21   -1    0    0  501  502 -0.00000000000E+00 -0.00000000000E+00 -0.20368678825E+03  0.20368678825E+03  0.00000000000E+00 0. -1.
      99926    2    1    2    0    0  0.00000000000E+00  0.00000000000E+00  0.45251207526E+02  0.45262478403E+03  0.45035710646E+03 0.  0.
      99925    2    3    3    0    0  0.51052212214E+02 -0.18842549949E+02 -0.65964035812E+02  0.27661993038E+03  0.26307026020E+03 0.  0.
         25    1    4    4    0    0  0.37564884390E+02 -0.31694509090E+02 -0.91611484764E+00  0.13440241743E+03  0.12509000000E+03 0.  0.
         25    1    4    4    0    0  0.13487327824E+02  0.12851959141E+02 -0.65047920964E+02  0.14221751294E+03  0.12509000000E+03 0.  0.
         25    1    3    3    0    0 -0.51052212214E+02  0.18842549949E+02  0.11121524334E+03  0.17600485366E+03  0.12509000000E+03 0.  0.
<mgrwt>
<rscale>  2 0.45035711E+03</rscale>
<asrwt>0</asrwt>
<pdfrwt beam="1">  1       21 0.36608529E-01 0.45035711E+03</pdfrwt>
<pdfrwt beam="2">  1       21 0.29953939E-01 0.45035711E+03</pdfrwt>
<totfact> 0.71325912E+04</totfact>
</mgrwt>
</event>
<event>
 7    0  0.4737014E-002  0.4521967E+03  0.7546771E-02  0.1027069E+00
         21   -1    0    0  502  501  0.00000000000E+00  0.00000000000E+00  0.11139960912E+04  0.11139960912E+04  0.00000000000E+00 0.  1.
         21   -1    0    0  501  502 -0.00000000000E+00 -0.00000000000E+00 -0.45889269436E+02  0.45889269436E+02  0.00000000000E+00 0.  1.
      99926    2    1    2    0    0  0.71054273576E-14  0.00000000000E+00  0.10681068218E+04  0.11598853606E+04  0.45219671285E+03 0.  0.
      99925    2    3    3    0    0  0.41883455756E+02 -0.37139246907E+02  0.91829350634E+03  0.95684574601E+03  0.26297769933E+03 0.  0.
         25    1    4    4    0    0  0.52534189642E+02 -0.25640571251E+02  0.39007178983E+03  0.41378833876E+03  0.12509000000E+03 0.  0.
         25    1    4    4    0    0 -0.10650733886E+02 -0.11498675656E+02  0.52822171651E+03  0.54305740725E+03  0.12509000000E+03 0.  0.
         25    1    3    3    0    0 -0.41883455756E+02  0.37139246907E+02  0.14981331541E+03  0.20303961461E+03  0.12509000000E+03 0.  0.
<mgrwt>
<rscale>  2 0.45219671E+03</rscale>
<asrwt>0</asrwt>
<pdfrwt beam="1">  1       21 0.16382294E+00 0.45219671E+03</pdfrwt>
<pdfrwt beam="2">  1       21 0.67484227E-02 0.45219671E+03</pdfrwt>
<totfact> 0.34194956E+04</totfact>
</mgrwt>
</event>
<event>
 7    0  0.4737014E-002  0.4612927E+03  0.7546771E-02  0.1024407E+00
         21   -1    0    0  502  501  0.00000000000E+00  0.00000000000E+00  0.83517209594E+02  0.83517209594E+02  0.00000000000E+00 0.  1.
         21   -1    0    0  501  502 -0.00000000000E+00 -0.00000000000E+00 -0.63696731577E+03  0.63696731577E+03  0.00000000000E+00 0.  1.
      99926    2    1    2    0    0  0.00000000000E+00 -0.17763568394E-14 -0.55345010617E+03  0.72048452536E+03  0.46129267419E+03 0.  0.
      99925    2    3    3    0    0 -0.18690290331E+02 -0.75880855564E+01 -0.52934003169E+03  0.59150503169E+03  0.26319275707E+03 0.  0.
         25    1    3    3    0    0  0.18690290331E+02  0.75880855564E+01 -0.24110074481E+02  0.12897949367E+03  0.12509000000E+03 0.  0.
         25    1    4    4    0    0 -0.31019712826E+02 -0.11428590785E+02 -0.34401662824E+03  0.36754290073E+03  0.12509000000E+03 0.  0.
         25    1    4    4    0    0  0.12329422494E+02  0.38405052286E+01 -0.18532340345E+03  0.22396213096E+03  0.12509000000E+03 0.  0.
<mgrwt>
<rscale>  2 0.46129267E+03</rscale>
<asrwt>0</asrwt>
<pdfrwt beam="1">  1       21 0.12281942E-01 0.46129267E+03</pdfrwt>
<pdfrwt beam="2">  1       21 0.93671666E-01 0.46129267E+03</pdfrwt>
<totfact> 0.49318149E+04</totfact>
</mgrwt>
</event>
<event>
 7    0  0.4737014E-002  0.4564309E+03  0.7546771E-02  0.1025821E+00
         21   -1    0    0  502  501  0.00000000000E+00  0.00000000000E+00  0.12683711002E+04  0.12683711002E+04  0.00000000000E+00 0. -1.
         21   -1    0    0  501  502 -0.00000000000E+00 -0.00000000000E+00 -0.41062349401E+02  0.41062349401E+02  0.00000000000E+00 0. -1.
      99926    2    1    2    0    0  0.14210854715E-13  0.00000000000E+00  0.12273087508E+04  0.13094334496E+04  0.45643092484E+03 0.  0.
      99925    2    3    3    0    0 -0.11247579814E+03  0.81447434979E+01  0.71966391239E+03  0.77458026220E+03  0.26332735098E+03 0.  0.
         25    1    4    4    0    0 -0.80612588437E+02  0.14094881400E+02  0.29530402277E+03  0.33098191651E+03  0.12509000000E+03 0.  0.
         25    1    3    3    0    0  0.11247579814E+03 -0.81447434979E+01  0.50764483844E+03  0.53485318743E+03  0.12509000000E+03 0.  0.
         25    1    4    4    0    0 -0.31863209706E+02 -0.59501379020E+01  0.42435988962E+03  0.44359834569E+03  0.12509000000E+03 0.  0.
<mgrwt>
<rscale>  2 0.45643092E+03</rscale>
<asrwt>0</asrwt>
<pdfrwt beam="1">  1       21 0.18652514E+00 0.45643092E+03</pdfrwt>
<pdfrwt beam="2">  1       21 0.60385816E-02 0.45643092E+03</pdfrwt>
<totfact> 0.28523226E+04</totfact>
</mgrwt>
</event>
<event>
 7    0  0.4737014E-002  0.4682491E+03  0.7546771E-02  0.1022416E+00
         21   -1    0    0  502  501  0.00000000000E+00  0.00000000000E+00  0.16773808692E+03  0.16773808692E+03  0.00000000000E+00 0. -1.
         21   -1    0    0  501  502 -0.00000000000E+00 -0.00000000000E+00 -0.32678512587E+03  0.32678512587E+03  0.00000000000E+00 0. -1.
      99926    2    1    2    0    0  0.00000000000E+00  0.00000000000E+00 -0.15904703895E+03  0.49452321280E+03  0.46824912963E+03 0.  0.
      99925    2    3    3    0    0  0.85814674783E+02 -0.38243428066E+02 -0.11772601279E+02  0.27966515200E+03  0.26314878853E+03 0.  0.
         25    1    4    4    0    0  0.30217254759E+02 -0.53858883335E+02  0.11336394692E+02  0.13996386585E+03  0.12509000000E+03 0.  0.
         25    1    4    4    0    0  0.55597420024E+02  0.15615455269E+02 -0.23108995971E+02  0.13970128615E+03  0.12509000000E+03 0.  0.
         25    1    3    3    0    0 -0.85814674783E+02  0.38243428066E+02 -0.14727443767E+03  0.21485806080E+03  0.12509000000E+03 0.  0.
<mgrwt>
<rscale>  2 0.46824913E+03</rscale>
<asrwt>0</asrwt>
<pdfrwt beam="1">  1       21 0.24667366E-01 0.46824913E+03</pdfrwt>
<pdfrwt beam="2">  1       21 0.48056636E-01 0.46824913E+03</pdfrwt>
<totfact> 0.59183190E+04</totfact>
</mgrwt>
</event>
<event>
 7    0  0.4737014E-002  0.4497007E+03  0.7546771E-02  0.1027811E+00
         21   -1    0    0  502  501  0.00000000000E+00  0.00000000000E+00  0.43819012277E+03  0.43819012277E+03  0.00000000000E+00 0.  1.
         21   -1    0    0  501  502 -0.00000000000E+00 -0.00000000000E+00 -0.11537839294E+03  0.11537839294E+03  0.00000000000E+00 0.  1.
      99926    2    1    2    0    0  0.00000000000E+00  0.00000000000E+00  0.32281172984E+03  0.55356851571E+03  0.44970066563E+03 0.  0.
      99925    2    3    3    0    0  0.32948326606E+02  0.90550484790E+02  0.14404820220E+03  0.31505459697E+03  0.26310555295E+03 0.  0.
         25    1    4    4    0    0  0.45192600172E+02  0.46786115824E+02  0.10672623427E+03  0.17683130075E+03  0.12509000000E+03 0.  0.
         25    1    4    4    0    0 -0.12244273566E+02  0.43764368966E+02  0.37321967930E+02  0.13822329621E+03  0.12509000000E+03 0.  0.
         25    1    3    3    0    0 -0.32948326606E+02 -0.90550484790E+02  0.17876352763E+03  0.23851391874E+03  0.12509000000E+03 0.  0.
<mgrwt>
<rscale>  2 0.44970067E+03</rscale>
<asrwt>0</asrwt>
<pdfrwt beam="1">  1       21 0.64439723E-01 0.44970067E+03</pdfrwt>
<pdfrwt beam="2">  1       21 0.16967411E-01 0.44970067E+03</pdfrwt>
<totfact> 0.64284251E+04</totfact>
</mgrwt>
</event>
<event>
 7    0  0.4737014E-002  0.4514949E+03  0.7546771E-02  0.1027277E+00
         21   -1    0    0  502  501  0.00000000000E+00  0.00000000000E+00  0.13475939800E+03  0.13475939800E+03  0.00000000000E+00 0.  1.
         21   -1    0    0  501  502 -0.00000000000E+00 -0.00000000000E+00 -0.37816970560E+03  0.37816970560E+03  0.00000000000E+00 0.  1.
      99926    2    1    2    0    0  0.00000000000E+00  0.00000000000E+00 -0.24341030759E+03  0.51292910360E+03  0.45149494734E+03 0.  0.
      99925    2    3    3    0    0  0.38121022804E+02 -0.35551273427E+02 -0.43919233779E+02  0.27176255937E+03  0.26307581447E+03 0.  0.
         25    1    4    4    0    0  0.51453208367E+02 -0.36002139484E+02 -0.49115916928E+01  0.14005434135E+03  0.12509000000E+03 0.  0.
         25    1    3    3    0    0 -0.38121022804E+02  0.35551273427E+02 -0.19949107382E+03  0.24116654423E+03  0.12509000000E+03 0.  0.
         25    1    4    4    0    0 -0.13332185563E+02  0.45086605698E+00 -0.39007642086E+02  0.13170821802E+03  0.12509000000E+03 0.  0.
<mgrwt>
<rscale>  2 0.45149495E+03</rscale>
<asrwt>0</asrwt>
<pdfrwt beam="1">  1       21 0.19817559E-01 0.45149495E+03</pdfrwt>
<pdfrwt beam="2">  1       21 0.55613191E-01 0.45149495E+03</pdfrwt>
<totfact> 0.66193534E+04</totfact>
</mgrwt>
</event>
<event>
 6    0  0.4737014E-002  0.4256388E+03  0.7546771E-02  0.1035247E+00
         21   -1    0    0  502  501  0.00000000000E+00  0.00000000000E+00  0.30246304861E+02  0.30246304861E+02  0.00000000000E+00 0.  1.
         21   -1    0    0  501  502 -0.00000000000E+00 -0.00000000000E+00 -0.14974420442E+04  0.14974420442E+04  0.00000000000E+00 0.  1.
      99926    2    1    2    0    0  0.00000000000E+00  0.00000000000E+00 -0.14671957394E+04  0.15276883491E+04  0.42563876036E+03 0.  0.
         25    1    3    3    0    0 -0.51381638076E+02  0.28998137566E+02 -0.31579020156E+03  0.34474907427E+03  0.12509000000E+03 0.  0.
         25    1    3    3    0    0 -0.44910556544E+01  0.17589224997E+02 -0.51384387168E+03  0.52916215188E+03  0.12509000000E+03 0.  0.
         25    1    3    3    0    0  0.55872693731E+02 -0.46587362563E+02 -0.63756166612E+03  0.65377712292E+03  0.12509000000E+03 0.  0.
<mgrwt>
<rscale>  2 0.42563876E+03</rscale>
<asrwt>0</asrwt>
<pdfrwt beam="1">  1       21 0.44479848E-02 0.42563876E+03</pdfrwt>
<pdfrwt beam="2">  1       21 0.22021213E+00 0.42563876E+03</pdfrwt>
<totfact> 0.29227265E+04</totfact>
</mgrwt>
</event>
<event>
 7    0  0.4737014E-002  0.4588875E+03  0.7546771E-02  0.1025104E+00
         21   -1    0    0  502  501  0.00000000000E+00  0.00000000000E+00  0.41669207216E+03  0.41669207216E+03  0.00000000000E+00 0.  1.
         21   -1    0    0  501  502 -0.00000000000E+00 -0.00000000000E+00 -0.12633893240E+03  0.12633893240E+03  0.00000000000E+00 0.  1.
      99926    2    1    2    0    0 -0.17763568394E-14  0.00000000000E+00  0.29035313976E+03  0.54303100455E+03  0.45888748745E+03 0.  0.
      99925    2    3    3    0    0 -0.15837408112E+02 -0.66842291335E+02  0.70554844717E+02  0.28096705433E+03  0.26314593688E+03 0.  0.
         25    1    4    4    0    0 -0.46292630994E+02 -0.45946418906E+02  0.28473635869E+02  0.14391781382E+03  0.12509000000E+03 0.  0.
         25    1    3    3    0    0  0.15837408112E+02  0.66842291335E+02  0.21979829504E+03  0.26206395023E+03  0.12509000000E+03 0.  0.
         25    1    4    4    0    0  0.30455222882E+02 -0.20895872429E+02  0.42081208847E+02  0.13704924051E+03  0.12509000000E+03 0.  0.
<mgrwt>
<rscale>  2 0.45888749E+03</rscale>
<asrwt>0</asrwt>
<pdfrwt beam="1">  1       21 0.61278245E-01 0.45888749E+03</pdfrwt>
<pdfrwt beam="2">  1       21 0.18579255E-01 0.45888749E+03</pdfrwt>
<totfact> 0.60448236E+04</totfact>
</mgrwt>
</event>
<event>
 7    0  0.4737014E-002  0.4495050E+03  0.7546771E-02  0.1027870E+00
         21   -1    0    0  502  501  0.00000000000E+00  0.00000000000E+00  0.61862576068E+02  0.61862576068E+02  0.00000000000E+00 0. -1.
         21   -1    0    0  501  502 -0.00000000000E+00 -0.00000000000E+00 -0.81654684193E+03  0.81654684193E+03  0.00000000000E+00 0. -1.
      99926    2    1    2    0    0  0.00000000000E+00  0.00000000000E+00 -0.75468426586E+03  0.87840941799E+03  0.44950502165E+03 0.  0.
      99925    2    3    3    0    0 -0.37841488638E+02  0.10096139627E+03 -0.48687182423E+03  0.56377281206E+03  0.26300271595E+03 0.  0.
         25    1    3    3    0    0  0.37841488638E+02 -0.10096139627E+03 -0.26781244163E+03  0.31463660593E+03  0.12509000000E+03 0.  0.
         25    1    4    4    0    0  0.19787913941E+02  0.51407381289E+02 -0.26096870084E+03  0.29459540273E+03  0.12509000000E+03 0.  0.
         25    1    4    4    0    0 -0.57629402580E+02  0.49554014979E+02 -0.22590312339E+03  0.26917740934E+03  0.12509000000E+03 0.  0.
<mgrwt>
<rscale>  2 0.44950502E+03</rscale>
<asrwt>0</asrwt>
<pdfrwt beam="1">  1       21 0.90974379E-02 0.44950502E+03</pdfrwt>
<pdfrwt beam="2">  1       21 0.12008041E+00 0.44950502E+03</pdfrwt>
<totfact> 0.46134047E+04</totfact>
</mgrwt>
</event>
<event>
 7    0  0.4737014E-002  0.4560881E+03  0.7546771E-02  0.1025922E+00
         21   -1    0    0  502  501  0.00000000000E+00  0.00000000000E+00  0.19210380341E+03  0.19210380341E+03  0.00000000000E+00 0. -1.
         21   -1    0    0  501  502 -0.00000000000E+00 -0.00000000000E+00 -0.27070827518E+03  0.27070827518E+03  0.00000000000E+00 0. -1.
      99926    2    1    2    0    0  0.00000000000E+00  0.22204460493E-14 -0.78604471766E+02  0.46281207859E+03  0.45608810235E+03 0.  0.
      99925    2    3    3    0    0  0.11267581186E+03 -0.36494438313E+01 -0.31273297170E+02  0.28789236784E+03  0.26304911961E+03 0.  0.
         25    1    4    4    0    0  0.40187261943E+02  0.19413194323E+02  0.16631429072E+02  0.13385066555E+03  0.12509000000E+03 0.  0.
         25    1    3    3    0    0 -0.11267581186E+03  0.36494438313E+01 -0.47331174595E+02  0.17491971075E+03  0.12509000000E+03 0.  0.
         25    1    4    4    0    0  0.72488549920E+02 -0.23062638154E+02 -0.47904726242E+02  0.15404170229E+03  0.12509000000E+03 0.  0.
<mgrwt>
<rscale>  2 0.45608810E+03</rscale>
<asrwt>0</asrwt>
<pdfrwt beam="1">  1       21 0.28250560E-01 0.45608810E+03</pdfrwt>
<pdfrwt beam="2">  1       21 0.39810040E-01 0.45608810E+03</pdfrwt>
<totfact> 0.67388041E+04</totfact>
</mgrwt>
</event>
<event>
 7    0  0.4737014E-002  0.4529387E+03  0.7546771E-02  0.1026849E+00
         21   -1    0    0  502  501  0.00000000000E+00  0.00000000000E+00  0.34842318173E+03  0.34842318173E+03  0.00000000000E+00 0. -1.
         21   -1    0    0  501  502 -0.00000000000E+00 -0.00000000000E+00 -0.14720133400E+03  0.14720133400E+03  0.00000000000E+00 0. -1.
      99926    2    1    2    0    0 -0.28865798640E-14  0.00000000000E+00  0.20122184774E+03  0.49562451573E+03  0.45293865874E+03 0.  0.
      99925    2    3    3    0    0  0.18233451989E+01 -0.11105518126E+03  0.12323018489E+03  0.31105261796E+03  0.26311874657E+03 0.  0.
         25    1    3    3    0    0 -0.18233451989E+01  0.11105518126E+03  0.77991662848E+02  0.18457189777E+03  0.12509000000E+03 0.  0.
         25    1    4    4    0    0 -0.32859080113E+02 -0.79210157322E+02  0.58614877203E+02  0.16259514168E+03  0.12509000000E+03 0.  0.
         25    1    4    4    0    0  0.34682425312E+02 -0.31845023940E+02  0.64615307685E+02  0.14845747628E+03  0.12509000000E+03 0.  0.
<mgrwt>
<rscale>  2 0.45293866E+03</rscale>
<asrwt>0</asrwt>
<pdfrwt beam="1">  1       21 0.51238703E-01 0.45293866E+03</pdfrwt>
<pdfrwt beam="2">  1       21 0.21647255E-01 0.45293866E+03</pdfrwt>
<totfact> 0.66663356E+04</totfact>
</mgrwt>
</event>
<event>
 7    0  0.4737014E-002  0.4639440E+03  0.7546771E-02  0.1023644E+00
         21   -1    0    0  502  501  0.00000000000E+00  0.00000000000E+00  0.39667248998E+03  0.39667248998E+03  0.00000000000E+00 0.  1.
         21   -1    0    0  501  502 -0.00000000000E+00 -0.00000000000E+00 -0.13565602080E+03  0.13565602080E+03  0.00000000000E+00 0.  1.
      99926    2    1    2    0    0  0.00000000000E+00  0.14210854715E-13  0.26101646917E+03  0.53232851078E+03  0.46394401194E+03 0.  0.
      99925    2    3    3    0    0 -0.75414596136E+02  0.95108319925E+02  0.14704307332E+03  0.32407290608E+03  0.26204699810E+03 0.  0.
         25    1    3    3    0    0  0.75414596136E+02 -0.95108319925E+02  0.11397339585E+03  0.20825560470E+03  0.12509000000E+03 0.  0.
         25    1    4    4    0    0 -0.38581658533E+02  0.24980473801E+02  0.33296295457E+02  0.13736345889E+03  0.12509000000E+03 0.  0.
         25    1    4    4    0    0 -0.36832937603E+02  0.70127846124E+02  0.11374677786E+03  0.18670944719E+03  0.12509000000E+03 0.  0.
<mgrwt>
<rscale>  2 0.46394401E+03</rscale>
<asrwt>0</asrwt>
<pdfrwt beam="1">  1       21 0.58334189E-01 0.46394401E+03</pdfrwt>
<pdfrwt beam="2">  1       21 0.19949415E-01 0.46394401E+03</pdfrwt>
<totfact> 0.58770689E+04</totfact>
</mgrwt>
</event>
<event>
 7    0  0.4737014E-002  0.4610459E+03  0.7546771E-02  0.1024478E+00
         21   -1    0    0  502  501  0.00000000000E+00  0.00000000000E+00  0.14136502354E+03  0.14136502354E+03  0.00000000000E+00 0. -1.
         21   -1    0    0  501  502 -0.00000000000E+00 -0.00000000000E+00 -0.37591215970E+03  0.37591215970E+03  0.00000000000E+00 0. -1.
      99926    2    1    2    0    0  0.00000000000E+00  0.00000000000E+00 -0.23454713615E+03  0.51727718324E+03  0.46104590359E+03 0.  0.
      99925    2    3    3    0    0 -0.83920178948E+02  0.79652592124E+02 -0.17675308238E+03  0.33734721736E+03  0.26301019195E+03 0.  0.
         25    1    3    3    0    0  0.83920178948E+02 -0.79652592124E+02 -0.57794053778E+02  0.17992996587E+03  0.12509000000E+03 0.  0.
         25    1    4    4    0    0 -0.48384862990E+02  0.81850269988E+02 -0.10217139757E+03  0.18742215516E+03  0.12509000000E+03 0.  0.
         25    1    4    4    0    0 -0.35535315958E+02 -0.21976778641E+01 -0.74581684811E+02  0.14992506221E+03  0.12509000000E+03 0.  0.
<mgrwt>
<rscale>  2 0.46104590E+03</rscale>
<asrwt>0</asrwt>
<pdfrwt beam="1">  1       21 0.20788974E-01 0.46104590E+03</pdfrwt>
<pdfrwt beam="2">  1       21 0.55281200E-01 0.46104590E+03</pdfrwt>
<totfact> 0.61089271E+04</totfact>
</mgrwt>
</event>
<event>
 7    0  0.4737014E-002  0.4610965E+03  0.7546771E-02  0.1024464E+00
         21   -1    0    0  502  501  0.00000000000E+00  0.00000000000E+00  0.12509560479E+03  0.12509560479E+03  0.00000000000E+00 0. -1.
         21   -1    0    0  501  502 -0.00000000000E+00 -0.00000000000E+00 -0.42489497272E+03  0.42489497272E+03  0.00000000000E+00 0. -1.
      99926    2    1    2    0    0  0.00000000000E+00 -0.17763568394E-14 -0.29979936793E+03  0.54999057752E+03  0.46109649136E+03 0.  0.
      99925    2    3    3    0    0  0.11867913049E+03 -0.71391522843E+00 -0.19431960568E+03  0.34785514264E+03  0.26297879272E+03 0.  0.
         25    1    3    3    0    0 -0.11867913049E+03  0.71391522843E+00 -0.10547976225E+03  0.20213543488E+03  0.12509000000E+03 0.  0.
         25    1    4    4    0    0  0.32853848500E+02 -0.27618294893E+02 -0.11124919110E+03  0.17281792787E+03  0.12509000000E+03 0.  0.
         25    1    4    4    0    0  0.85825281993E+02  0.26904379665E+02 -0.83070414580E+02  0.17503721477E+03  0.12509000000E+03 0.  0.
<mgrwt>
<rscale>  2 0.46109649E+03</rscale>
<asrwt>0</asrwt>
<pdfrwt beam="1">  1       21 0.18396412E-01 0.46109649E+03</pdfrwt>
<pdfrwt beam="2">  1       21 0.62484555E-01 0.46109649E+03</pdfrwt>
<totfact> 0.58970748E+04</totfact>
</mgrwt>
</event>
<event>
 7    0  0.4737014E-002  0.4424097E+03  0.7546771E-02  0.1030010E+00
         21   -1    0    0  502  501  0.00000000000E+00  0.00000000000E+00  0.12111411969E+03  0.12111411969E+03  0.00000000000E+00 0. -1.
         21   -1    0    0  501  502 -0.00000000000E+00 -0.00000000000E+00 -0.40401226445E+03  0.40401226445E+03  0.00000000000E+00 0. -1.
      99926    2    1    2    0    0  0.00000000000E+00  0.00000000000E+00 -0.28289814476E+03  0.52512638414E+03  0.44240971848E+03 0.  0.
      99925    2    3    3    0    0 -0.89233617320E+02 -0.47223859508E+02 -0.18399328373E+03  0.33638738180E+03  0.26288820972E+03 0.  0.
         25    1    4    4    0    0 -0.85322532285E+02 -0.30286580970E+02 -0.87798277195E+02  0.17763236496E+03  0.12509000000E+03 0.  0.
         25    1    4    4    0    0 -0.39110850345E+01 -0.16937278537E+02 -0.96195006534E+02  0.15875501684E+03  0.12509000000E+03 0.  0.
         25    1    3    3    0    0  0.89233617320E+02  0.47223859508E+02 -0.98904861030E+02  0.18873900233E+03  0.12509000000E+03 0.  0.
<mgrwt>
<rscale>  2 0.44240972E+03</rscale>
<asrwt>0</asrwt>
<pdfrwt beam="1">  1       21 0.17810900E-01 0.44240972E+03</pdfrwt>
<pdfrwt beam="2">  1       21 0.59413569E-01 0.44240972E+03</pdfrwt>
<totfact> 0.70289099E+04</totfact>
</mgrwt>
</event>
<event>
 7    0  0.4737014E-002  0.4451479E+03  0.7546771E-02  0.1029179E+00
         21   -1    0    0  502  501  0.00000000000E+00  0.00000000000E+00  0.65106681506E+02  0.65106681506E+02  0.00000000000E+00 0.  1.
         21   -1    0    0  501  502 -0.00000000000E+00 -0.00000000000E+00 -0.76089202887E+03  0.76089202887E+03  0.00000000000E+00 0.  1.
      99926    2    1    2    0    0  0.00000000000E+00  0.00000000000E+00 -0.69578534736E+03  0.82599871037E+03  0.44514786300E+03 0.  0.
      99925    2    3    3    0    0 -0.73371848061E+02 -0.48412239144E+02 -0.33991614454E+03  0.43867769286E+03  0.26299802264E+03 0.  0.
         25    1    4    4    0    0  0.35083078336E+01 -0.30583518332E+02 -0.14423449450E+03  0.19338758316E+03  0.12509000000E+03 0.  0.
         25    1    4    4    0    0 -0.76880155895E+02 -0.17828720813E+02 -0.19568165004E+03  0.24529010971E+03  0.12509000000E+03 0.  0.
         25    1    3    3    0    0  0.73371848061E+02  0.48412239144E+02 -0.35586920282E+03  0.38732101751E+03  0.12509000000E+03 0.  0.
<mgrwt>
<rscale>  2 0.44514786E+03</rscale>
<asrwt>0</asrwt>
<pdfrwt beam="1">  1       21 0.95745127E-02 0.44514786E+03</pdfrwt>
<pdfrwt beam="2">  1       21 0.11189588E+00 0.44514786E+03</pdfrwt>
<totfact> 0.50310707E+04</totfact>
</mgrwt>
</event>
<event>
 7    0  0.4737014E-002  0.4542838E+03  0.7546771E-02  0.1026452E+00
         21   -1    0    0  502  501  0.00000000000E+00  0.00000000000E+00  0.32143540009E+03  0.32143540009E+03  0.00000000000E+00 0. -1.
         21   -1    0    0  501  502 -0.00000000000E+00 -0.00000000000E+00 -0.16050950305E+03  0.16050950305E+03  0.00000000000E+00 0. -1.
      99926    2    1    2    0    0  0.00000000000E+00  0.00000000000E+00  0.16092589704E+03  0.48194490314E+03  0.45428377180E+03 0.  0.
      99925    2    3    3    0    0 -0.42142468980E+02 -0.86000123779E+02  0.16391532357E+03  0.32437443080E+03  0.26301811548E+03 0.  0.
         25    1    4    4    0    0  0.94378412231E+01 -0.56717502779E+02  0.10837155120E+03  0.17520801687E+03  0.12509000000E+03 0.  0.
         25    1    4    4    0    0 -0.51580310203E+02 -0.29282621001E+02  0.55543772372E+02  0.14916641392E+03  0.12509000000E+03 0.  0.
         25    1    3    3    0    0  0.42142468980E+02  0.86000123779E+02 -0.29894265250E+01  0.15757047234E+03  0.12509000000E+03 0.  0.
<mgrwt>
<rscale>  2 0.45428377E+03</rscale>
<asrwt>0</asrwt>
<pdfrwt beam="1">  1       21 0.47269912E-01 0.45428377E+03</pdfrwt>
<pdfrwt beam="2">  1       21 0.23604339E-01 0.45428377E+03</pdfrwt>
<totfact> 0.66938560E+04</totfact>
</mgrwt>
</event>
<event>
 6    0  0.4737014E-002  0.4557088E+03  0.7546771E-02  0.1026033E+00
         21   -1    0    0  502  501  0.00000000000E+00  0.00000000000E+00  0.60327358767E+03  0.60327358767E+03  0.00000000000E+00 0. -1.
         21   -1    0    0  501  502 -0.00000000000E+00 -0.00000000000E+00 -0.86059820843E+02  0.86059820843E+02  0.00000000000E+00 0. -1.
      99926    2    1    2    0    0  0.17763568394E-14  0.00000000000E+00  0.51721376683E+03  0.68933340852E+03  0.45570875293E+03 0.  0.
         25    1    3    3    0    0 -0.10802528633E+02  0.11410446768E+01  0.35840044391E+03  0.37975832170E+03  0.12509000000E+03 0.  0.
         25    1    3    3    0    0  0.23670342270E+02  0.17230439690E+02  0.12223572422E+03  0.17733091533E+03  0.12509000000E+03 0.  0.
         25    1    3    3    0    0 -0.12867813637E+02 -0.18371484367E+02  0.36577598700E+02  0.13224417149E+03  0.12509000000E+03 0.  0.
<mgrwt>
<rscale>  2 0.45570875E+03</rscale>
<asrwt>0</asrwt>
<pdfrwt beam="1">  1       21 0.88716702E-01 0.45570875E+03</pdfrwt>
<pdfrwt beam="2">  1       21 0.12655856E-01 0.45570875E+03</pdfrwt>
<totfact> 0.53188655E+04</totfact>
</mgrwt>
</event>
<event>
 7    0  0.4737014E-002  0.4546587E+03  0.7546771E-02  0.1026342E+00
         21   -1    0    0  502  501  0.00000000000E+00  0.00000000000E+00  0.31014285007E+03  0.31014285007E+03  0.00000000000E+00 0. -1.
         21   -1    0    0  501  502 -0.00000000000E+00 -0.00000000000E+00 -0.16662851866E+03  0.16662851866E+03  0.00000000000E+00 0. -1.
      99926    2    1    2    0    0  0.00000000000E+00  0.00000000000E+00  0.14351433142E+03  0.47677136873E+03  0.45465874534E+03 0.  0.
      99925    2    3    3    0    0  0.76819775146E+02 -0.50838883260E+02  0.15876060564E+03  0.32067579902E+03  0.26294898416E+03 0.  0.
         25    1    4    4    0    0  0.57262095416E+02 -0.55085101117E+00  0.10942818545E+03  0.17578761867E+03  0.12509000000E+03 0.  0.
         25    1    4    4    0    0  0.19557679730E+02 -0.50288032249E+02  0.49332420190E+02  0.14488818035E+03  0.12509000000E+03 0.  0.
         25    1    3    3    0    0 -0.76819775146E+02  0.50838883260E+02 -0.15246274215E+02  0.15609556971E+03  0.12509000000E+03 0.  0.
<mgrwt>
<rscale>  2 0.45465875E+03</rscale>
<asrwt>0</asrwt>
<pdfrwt beam="1">  1       21 0.45609243E-01 0.45465875E+03</pdfrwt>
<pdfrwt beam="2">  1       21 0.24504194E-01 0.45465875E+03</pdfrwt>
<totfact> 0.67117473E+04</totfact>
</mgrwt>
</event>
<event>
 7    0  0.4737014E-002  0.4524632E+03  0.7546771E-02  0.1026990E+00
         21   -1    0    0  502  501  0.00000000000E+00  0.00000000000E+00  0.24018470129E+03  0.24018470129E+03  0.00000000000E+00 0.  1.
         21   -1    0    0  501  502 -0.00000000000E+00 -0.00000000000E+00 -0.21308908904E+03  0.21308908904E+03  0.00000000000E+00 0.  1.
      99926    2    1    2    0    0  0.17763568394E-14  0.71054273576E-14  0.27095612256E+02  0.45327379033E+03  0.45246321043E+03 0.  0.
      99925    2    3    3    0    0 -0.13742867717E+02  0.46415442475E+02 -0.82777729612E+02  0.27988717301E+03  0.26294755633E+03 0.  0.
         25    1    3    3    0    0  0.13742867717E+02 -0.46415442475E+02  0.10987334187E+03  0.17338661732E+03  0.12509000000E+03 0.  0.
         25    1    4    4    0    0  0.11275216547E+00  0.59826534051E+02 -0.25601066411E+02  0.14100407650E+03  0.12509000000E+03 0.  0.
         25    1    4    4    0    0 -0.13855619883E+02 -0.13411091576E+02 -0.57176663200E+02  0.13888309650E+03  0.12509000000E+03 0.  0.
<mgrwt>
<rscale>  2 0.45246321E+03</rscale>
<asrwt>0</asrwt>
<pdfrwt beam="1">  1       21 0.35321280E-01 0.45246321E+03</pdfrwt>
<pdfrwt beam="2">  1       21 0.31336631E-01 0.45246321E+03</pdfrwt>
<totfact> 0.70080231E+04</totfact>
</mgrwt>
</event>
<event>
 7    0  0.4737014E-002  0.4455573E+03  0.7546771E-02  0.1029055E+00
         21   -1    0    0  502  501  0.00000000000E+00  0.00000000000E+00  0.77336188957E+02  0.77336188957E+02  0.00000000000E+00 0. -1.
         21   -1    0    0  501  502 -0.00000000000E+00 -0.00000000000E+00 -0.64174782023E+03  0.64174782023E+03  0.00000000000E+00 0. -1.
      99926    2    1    2    0    0  0.00000000000E+00  0.00000000000E+00 -0.56441163128E+03  0.71908400919E+03  0.44555731702E+03 0.  0.
      99925    2    3    3    0    0  0.25278537266E+02 -0.79482675454E+02 -0.25771394107E+03  0.37751779098E+03  0.26295761435E+03 0.  0.
         25    1    4    4    0    0  0.10740383551E+01 -0.57061760299E+02 -0.18034453517E+03  0.22677931456E+03  0.12509000000E+03 0.  0.
         25    1    4    4    0    0  0.24204498911E+02 -0.22420915154E+02 -0.77369405893E+02  0.15073847642E+03  0.12509000000E+03 0.  0.
         25    1    3    3    0    0 -0.25278537266E+02  0.79482675454E+02 -0.30669769021E+03  0.34156621821E+03  0.12509000000E+03 0.  0.
<mgrwt>
<rscale>  2 0.44555732E+03</rscale>
<asrwt>0</asrwt>
<pdfrwt beam="1">  1       21 0.11372969E-01 0.44555732E+03</pdfrwt>
<pdfrwt beam="2">  1       21 0.94374679E-01 0.44555732E+03</pdfrwt>
<totfact> 0.55917970E+04</totfact>
</mgrwt>
</event>
<event>
 7    0  0.4737014E-002  0.4514601E+03  0.7546771E-02  0.1027288E+00
         21   -1    0    0  502  501  0.00000000000E+00  0.00000000000E+00  0.50383004020E+02  0.50383004020E+02  0.00000000000E+00 0.  1.
         21   -1    0    0  501  502 -0.00000000000E+00 -0.00000000000E+00 -0.10113344312E+04  0.10113344312E+04  0.00000000000E+00 0.  1.
      99926    2    1    2    0    0 -0.14210854715E-13  0.00000000000E+00 -0.96095142718E+03  0.10617174352E+04  0.45146014979E+03 0.  0.
      99925    2    3    3    0    0 -0.10082660366E+03  0.43199896724E+02 -0.59152377969E+03  0.65655508515E+03  0.26292957767E+03 0.  0.
         25    1    4    4    0    0 -0.57430656410E+02  0.86239543158E+01 -0.21004761226E+03  0.25127705904E+03  0.12509000000E+03 0.  0.
         25    1    3    3    0    0  0.10082660366E+03 -0.43199896724E+02 -0.36942764749E+03  0.40516235006E+03  0.12509000000E+03 0.  0.
         25    1    4    4    0    0 -0.43395947252E+02  0.34575942408E+02 -0.38147616743E+03  0.40527802611E+03  0.12509000000E+03 0.  0.
<mgrwt>
<rscale>  2 0.45146015E+03</rscale>
<asrwt>0</asrwt>
<pdfrwt beam="1">  1       21 0.74092662E-02 0.45146015E+03</pdfrwt>
<pdfrwt beam="2">  1       21 0.14872563E+00 0.45146015E+03</pdfrwt>
<totfact> 0.37886231E+04</totfact>
</mgrwt>
</event>
<event>
 7    0  0.4737014E-002  0.4300683E+03  0.7546771E-02  0.1033838E+00
         21   -1    0    0  502  501  0.00000000000E+00  0.00000000000E+00  0.94370975448E+02  0.94370975448E+02  0.00000000000E+00 0.  1.
         21   -1    0    0  501  502 -0.00000000000E+00 -0.00000000000E+00 -0.48997786606E+03  0.48997786606E+03  0.00000000000E+00 0.  1.
      99926    2    1    2    0    0 -0.35527136788E-14  0.00000000000E+00 -0.39560689061E+03  0.58434884151E+03  0.43006831628E+03 0.  0.
      99925    2    3    3    0    0 -0.25925906764E+02  0.76539115321E+02 -0.30136140631E+03  0.40811005966E+03  0.26306792805E+03 0.  0.
         25    1    4    4    0    0  0.22384770131E+02  0.19648533768E+02 -0.15826297033E+03  0.20391620507E+03  0.12509000000E+03 0.  0.
         25    1    3    3    0    0  0.25925906764E+02 -0.76539115321E+02 -0.94245484297E+02  0.17623878184E+03  0.12509000000E+03 0.  0.
         25    1    4    4    0    0 -0.48310676895E+02  0.56890581552E+02 -0.14309843598E+03  0.20419385459E+03  0.12509000000E+03 0.  0.
<mgrwt>
<rscale>  2 0.43006832E+03</rscale>
<asrwt>0</asrwt>
<pdfrwt beam="1">  1       21 0.13878084E-01 0.43006832E+03</pdfrwt>
<pdfrwt beam="2">  1       21 0.72055571E-01 0.43006832E+03</pdfrwt>
<totfact> 0.73010717E+04</totfact>
</mgrwt>
</event>
<event>
 7    0  0.4737014E-002  0.4489831E+03  0.7546771E-02  0.1028026E+00
         21   -1    0    0  502  501  0.00000000000E+00  0.00000000000E+00  0.46136112129E+03  0.46136112129E+03  0.00000000000E+00 0.  1.
         21   -1    0    0  501  502 -0.00000000000E+00 -0.00000000000E+00 -0.10923431077E+03  0.10923431077E+03  0.00000000000E+00 0.  1.
      99926    2    1    2    0    0  0.00000000000E+00  0.17763568394E-14  0.35212681051E+03  0.57059543206E+03  0.44898313599E+03 0.  0.
      99925    2    3    3    0    0  0.10622690229E+03 -0.96744222143E+01  0.23922667318E+03  0.37116700298E+03  0.26297869443E+03 0.  0.
         25    1    4    4    0    0  0.82175452203E+02 -0.27472296940E+02  0.10260715857E+03  0.18353002243E+03  0.12509000000E+03 0.  0.
         25    1    3    3    0    0 -0.10622690229E+03  0.96744222143E+01  0.11290013733E+03  0.19942842908E+03  0.12509000000E+03 0.  0.
         25    1    4    4    0    0  0.24051450090E+02  0.17797874726E+02  0.13661951462E+03  0.18763698055E+03  0.12509000000E+03 0.  0.
<mgrwt>
<rscale>  2 0.44898314E+03</rscale>
<asrwt>0</asrwt>
<pdfrwt beam="1">  1       21 0.67847223E-01 0.44898314E+03</pdfrwt>
<pdfrwt beam="2">  1       21 0.16063869E-01 0.44898314E+03</pdfrwt>
<totfact> 0.63493147E+04</totfact>
</mgrwt>
</event>
<event>
 7    0  0.4737014E-002  0.4614550E+03  0.7546771E-02  0.1024360E+00
         21   -1    0    0  502  501  0.00000000000E+00  0.00000000000E+00  0.70370513422E+03  0.70370513422E+03  0.00000000000E+00 0. -1.
         21   -1    0    0  501  502 -0.00000000000E+00 -0.00000000000E+00 -0.75649851808E+02  0.75649851808E+02  0.00000000000E+00 0. -1.
      99926    2    1    2    0    0  0.71054273576E-14  0.00000000000E+00  0.62805528242E+03  0.77935498603E+03  0.46145504275E+03 0.  0.
      99925    2    3    3    0    0 -0.35693547119E+02  0.84743819962E+02  0.26488857102E+03  0.38439535177E+03  0.26294160393E+03 0.  0.
         25    1    3    3    0    0  0.35693547119E+02 -0.84743819962E+02  0.36316671140E+03  0.39495963426E+03  0.12509000000E+03 0.  0.
         25    1    4    4    0    0 -0.55228686858E+02  0.38648178474E+02  0.11458108078E+03  0.18253827468E+03  0.12509000000E+03 0.  0.
         25    1    4    4    0    0  0.19535139739E+02  0.46095641489E+02  0.15030749024E+03  0.20185707709E+03  0.12509000000E+03 0.  0.
<mgrwt>
<rscale>  2 0.46145504E+03</rscale>
<asrwt>0</asrwt>
<pdfrwt beam="1">  1       21 0.10348605E+00 0.46145504E+03</pdfrwt>
<pdfrwt beam="2">  1       21 0.11124979E-01 0.46145504E+03</pdfrwt>
<totfact> 0.46384449E+04</totfact>
</mgrwt>
</event>
<event>
 7    0  0.4737014E-002  0.4487587E+03  0.7546771E-02  0.1028093E+00
         21   -1    0    0  502  501  0.00000000000E+00  0.00000000000E+00  0.11663141597E+04  0.11663141597E+04  0.00000000000E+00 0.  1.
         21   -1    0    0  501  502 -0.00000000000E+00 -0.00000000000E+00 -0.43166833562E+02  0.43166833562E+02  0.00000000000E+00 0.  1.
      99926    2    1    2    0    0  0.00000000000E+00  0.35527136788E-14  0.11231473262E+04  0.12094809933E+04  0.44875868444E+03 0.  0.
      99925    2    3    3    0    0  0.44788788812E+02 -0.19668105733E+02  0.96834203826E+03  0.10045296448E+04  0.26267971796E+03 0.  0.
         25    1    4    4    0    0  0.21426450529E+02 -0.49796983596E+02  0.48100367467E+03  0.49995087309E+03  0.12509000000E+03 0.  0.
         25    1    3    3    0    0 -0.44788788812E+02  0.19668105733E+02  0.15480528791E+03  0.20495134850E+03  0.12509000000E+03 0.  0.
         25    1    4    4    0    0  0.23362338283E+02  0.30128877863E+02  0.48733836359E+03  0.50457877171E+03  0.12509000000E+03 0.  0.
<mgrwt>
<rscale>  2 0.44875868E+03</rscale>
<asrwt>0</asrwt>
<pdfrwt beam="1">  1       21 0.17151677E+00 0.44875868E+03</pdfrwt>
<pdfrwt beam="2">  1       21 0.63480645E-02 0.44875868E+03</pdfrwt>
<totfact> 0.33453898E+04</totfact>
</mgrwt>
</event>
<event>
 7    0  0.4737014E-002  0.4552218E+03  0.7546771E-02  0.1026176E+00
         21   -1    0    0  502  501  0.00000000000E+00  0.00000000000E+00  0.92529291624E+02  0.92529291624E+02  0.00000000000E+00 0.  1.
         21   -1    0    0  501  502 -0.00000000000E+00 -0.00000000000E+00 -0.55989541632E+03  0.55989541632E+03  0.00000000000E+00 0.  1.
      99926    2    1    2    0    0  0.00000000000E+00  0.14210854715E-13 -0.46736612469E+03  0.65242470794E+03  0.45522181958E+03 0.  0.
      99925    2    3    3    0    0 -0.37019071034E+02 -0.10472853487E+03 -0.26142563934E+03  0.38709949383E+03  0.26299082794E+03 0.  0.
         25    1    3    3    0    0  0.37019071034E+02  0.10472853487E+03 -0.20594048535E+03  0.26532521411E+03  0.12509000000E+03 0.  0.
         25    1    4    4    0    0 -0.20468460992E+02 -0.94622691674E+02 -0.15884742581E+03  0.22417052541E+03  0.12509000000E+03 0.  0.
         25    1    4    4    0    0 -0.16550610042E+02 -0.10105843196E+02 -0.10257821353E+03  0.16292896842E+03  0.12509000000E+03 0.  0.
<mgrwt>
<rscale>  2 0.45522182E+03</rscale>
<asrwt>0</asrwt>
<pdfrwt beam="1">  1       21 0.13607249E-01 0.45522182E+03</pdfrwt>
<pdfrwt beam="2">  1       21 0.82337561E-01 0.45522182E+03</pdfrwt>
<totfact> 0.55464906E+04</totfact>
</mgrwt>
</event>
<event>
 7    0  0.4737014E-002  0.4411635E+03  0.7546771E-02  0.1030390E+00
         21   -1    0    0  502  501  0.00000000000E+00  0.00000000000E+00  0.10315952015E+03  0.10315952015E+03  0.00000000000E+00 0.  1.
         21   -1    0    0  501  502 -0.00000000000E+00 -0.00000000000E+00 -0.47166080463E+03  0.47166080463E+03  0.00000000000E+00 0.  1.
      99926    2    1    2    0    0  0.00000000000E+00  0.00000000000E+00 -0.36850128448E+03  0.57482032478E+03  0.44116347210E+03 0.  0.
      99925    2    3    3    0    0  0.22129004216E+02  0.16294455419E+02 -0.11029681021E+03  0.28659773590E+03  0.26309251943E+03 0.  0.
         25    1    4    4    0    0 -0.82953143888E+01 -0.89733681679E+01 -0.88228874386E+02  0.15356163568E+03  0.12509000000E+03 0.  0.
         25    1    3    3    0    0 -0.22129004216E+02 -0.16294455419E+02 -0.25820447428E+03  0.28822258888E+03  0.12509000000E+03 0.  0.
         25    1    4    4    0    0  0.30424318605E+02  0.25267823587E+02 -0.22067935822E+02  0.13303610022E+03  0.12509000000E+03 0.  0.
<mgrwt>
<rscale>  2 0.44116347E+03</rscale>
<asrwt>0</asrwt>
<pdfrwt beam="1">  1       21 0.15170518E-01 0.44116347E+03</pdfrwt>
<pdfrwt beam="2">  1       21 0.69361882E-01 0.44116347E+03</pdfrwt>
<totfact> 0.67323900E+04</totfact>
</mgrwt>
</event>
<event>
 7    0  0.4737014E-002  0.4538892E+03  0.7546771E-02  0.1026569E+00
         21   -1    0    0  502  501  0.00000000000E+00  0.00000000000E+00  0.21487044717E+03  0.21487044717E+03  0.00000000000E+00 0. -1.
         21   -1    0    0  501  502 -0.00000000000E+00 -0.00000000000E+00 -0.23969724810E+03  0.23969724810E+03  0.00000000000E+00 0. -1.
      99926    2    1    2    0    0  0.00000000000E+00  0.00000000000E+00 -0.24826800926E+02  0.45456769527E+03  0.45388921505E+03 0.  0.
      99925    2    3    3    0    0 -0.94204430736E+02  0.22487347489E+02 -0.72060431813E+02  0.28946566756E+03  0.26309221063E+03 0.  0.
         25    1    4    4    0    0 -0.22074401578E+02 -0.17124091704E+02 -0.52320033818E+02  0.13843918434E+03  0.12509000000E+03 0.  0.
         25    1    4    4    0    0 -0.72130029158E+02  0.39611439193E+02 -0.19740397995E+02  0.15102648322E+03  0.12509000000E+03 0.  0.
         25    1    3    3    0    0  0.94204430736E+02 -0.22487347489E+02  0.47233630887E+02  0.16510202771E+03  0.12509000000E+03 0.  0.
<mgrwt>
<rscale>  2 0.45388922E+03</rscale>
<asrwt>0</asrwt>
<pdfrwt beam="1">  1       21 0.31598595E-01 0.45388922E+03</pdfrwt>
<pdfrwt beam="2">  1       21 0.35249595E-01 0.45388922E+03</pdfrwt>
<totfact> 0.69188678E+04</totfact>
</mgrwt>
</event>
<event>
 7    0  0.4737014E-002  0.4482913E+03  0.7546771E-02  0.1028233E+00
         21   -1    0    0  502  501  0.00000000000E+00  0.00000000000E+00  0.13167818678E+03  0.13167818678E+03  0.00000000000E+00 0. -1.
         21   -1    0    0  501  502 -0.00000000000E+00 -0.00000000000E+00 -0.38154587069E+03  0.38154587069E+03  0.00000000000E+00 0. -1.
      99926    2    1    2    0    0  0.14210854715E-13  0.00000000000E+00 -0.24986768391E+03  0.51322405747E+03  0.44829128221E+03 0.  0.
      99925    2    3    3    0    0 -0.70406385022E+02 -0.77347730425E+02 -0.13379050821E+03  0.31307124267E+03  0.26300945315E+03 0.  0.
         25    1    4    4    0    0 -0.69553499083E+02 -0.46151086800E+02 -0.46623129214E+02  0.15744470879E+03  0.12509000000E+03 0.  0.
         25    1    4    4    0    0 -0.85288593914E+00 -0.31196643625E+02 -0.87167378995E+02  0.15562653388E+03  0.12509000000E+03 0.  0.
         25    1    3    3    0    0  0.70406385022E+02  0.77347730425E+02 -0.11607717570E+03  0.20015281480E+03  0.12509000000E+03 0.  0.
<mgrwt>
<rscale>  2 0.44829128E+03</rscale>
<asrwt>0</asrwt>
<pdfrwt beam="1">  1       21 0.19364439E-01 0.44829128E+03</pdfrwt>
<pdfrwt beam="2">  1       21 0.56109686E-01 0.44829128E+03</pdfrwt>
<totfact> 0.67893944E+04</totfact>
</mgrwt>
</event>
<event>
 7    0  0.4737014E-002  0.4297589E+03  0.7546771E-02  0.1033936E+00
         21   -1    0    0  502  501  0.00000000000E+00  0.00000000000E+00  0.69715830179E+02  0.69715830179E+02  0.00000000000E+00 0. -1.
         21   -1    0    0  501  502 -0.00000000000E+00 -0.00000000000E+00 -0.66230565630E+03  0.66230565630E+03  0.00000000000E+00 0. -1.
      99926    2    1    2    0    0  0.00000000000E+00  0.00000000000E+00 -0.59258982612E+03  0.73202148648E+03  0.42975894947E+03 0.  0.
      99925    2    3    3    0    0 -0.77508491395E+02  0.40078608397E+02 -0.37234535397E+03  0.46412412423E+03  0.26297581443E+03 0.  0.
         25    1    4    4    0    0 -0.77699205051E+02  0.22938980163E+02 -0.17518707889E+03  0.23000300865E+03  0.12509000000E+03 0.  0.
         25    1    3    3    0    0  0.77508491395E+02 -0.40078608397E+02 -0.22024447215E+03  0.26789736225E+03  0.12509000000E+03 0.  0.
         25    1    4    4    0    0  0.19071365517E+00  0.17139628235E+02 -0.19715827508E+03  0.23412111558E+03  0.12509000000E+03 0.  0.
<mgrwt>
<rscale>  2 0.42975895E+03</rscale>
<asrwt>0</asrwt>
<pdfrwt beam="1">  1       21 0.10252328E-01 0.42975895E+03</pdfrwt>
<pdfrwt beam="2">  1       21 0.97397895E-01 0.42975895E+03</pdfrwt>
<totfact> 0.62757203E+04</totfact>
</mgrwt>
</event>
<event>
 7    0  0.4737014E-002  0.4565841E+03  0.7546771E-02  0.1025777E+00
         21   -1    0    0  502  501  0.00000000000E+00  0.00000000000E+00  0.13532105065E+03  0.13532105065E+03  0.00000000000E+00 0. -1.
         21   -1    0    0  501  502 -0.00000000000E+00 -0.00000000000E+00 -0.38513778521E+03  0.38513778521E+03  0.00000000000E+00 0. -1.
      99926    2    1    2    0    0 -0.17763568394E-14  0.00000000000E+00 -0.24981673455E+03  0.52045883586E+03  0.45658405465E+03 0.  0.
      99925    2    3    3    0    0  0.10209018868E+02 -0.29115619552E+02 -0.31013248109E+02  0.26654070506E+03  0.26292619216E+03 0.  0.
         25    1    4    4    0    0  0.11668186713E+02 -0.41085043832E+02  0.14298798554E+02  0.13295146162E+03  0.12509000000E+03 0.  0.
         25    1    3    3    0    0 -0.10209018868E+02  0.29115619552E+02 -0.21880348645E+03  0.25391813080E+03  0.12509000000E+03 0.  0.
         25    1    4    4    0    0 -0.14591678448E+01  0.11969424281E+02 -0.45312046663E+02  0.13358924343E+03  0.12509000000E+03 0.  0.
<mgrwt>
<rscale>  2 0.45658405E+03</rscale>
<asrwt>0</asrwt>
<pdfrwt beam="1">  1       21 0.19900155E-01 0.45658405E+03</pdfrwt>
<pdfrwt beam="2">  1       21 0.56637909E-01 0.45658405E+03</pdfrwt>
<totfact> 0.63059763E+04</totfact>
</mgrwt>
</event>
<event>
 7    0  0.4737014E-002  0.4484127E+03  0.7546771E-02  0.1028196E+00
         21   -1    0    0  502  501  0.00000000000E+00  0.00000000000E+00  0.33494219135E+03  0.33494219135E+03  0.00000000000E+00 0.  1.
         21   -1    0    0  501  502 -0.00000000000E+00 -0.00000000000E+00 -0.15008111739E+03  0.15008111739E+03  0.00000000000E+00 0.  1.
      99926    2    1    2    0    0  0.00000000000E+00  0.00000000000E+00  0.18486107397E+03  0.48502330874E+03  0.44841274887E+03 0.  0.
      99925    2    3    3    0    0 -0.66434914294E+02  0.55212861378E+02  0.49083772080E+02  0.28119730032E+03  0.26306015876E+03 0.  0.
         25    1    4    4    0    0 -0.12608935314E+02 -0.91561562074E+01  0.27657232458E+02  0.12905522482E+03  0.12509000000E+03 0.  0.
         25    1    3    3    0    0  0.66434914294E+02 -0.55212861378E+02  0.13577730189E+03  0.20382600842E+03  0.12509000000E+03 0.  0.
         25    1    4    4    0    0 -0.53825978980E+02  0.64369017585E+02  0.21426539622E+02  0.15214207550E+03  0.12509000000E+03 0.  0.
<mgrwt>
<rscale>  2 0.44841275E+03</rscale>
<asrwt>0</asrwt>
<pdfrwt beam="1">  1       21 0.49256205E-01 0.44841275E+03</pdfrwt>
<pdfrwt beam="2">  1       21 0.22070753E-01 0.44841275E+03</pdfrwt>
<totfact> 0.69921777E+04</totfact>
</mgrwt>
</event>
<event>
 7    0  0.4737014E-002  0.4531723E+03  0.7546771E-02  0.1026780E+00
         21   -1    0    0  502  501  0.00000000000E+00  0.00000000000E+00  0.16516282584E+04  0.16516282584E+04  0.00000000000E+00 0.  1.
         21   -1    0    0  501  502 -0.00000000000E+00 -0.00000000000E+00 -0.31085258632E+02  0.31085258632E+02  0.00000000000E+00 0.  1.
      99926    2    1    2    0    0  0.00000000000E+00  0.00000000000E+00  0.16205429998E+04  0.16827135170E+04  0.45317233620E+03 0.  0.
      99925    2    3    3    0    0  0.48193675047E+02 -0.33248735557E+02  0.13735571633E+04  0.13997336233E+04  0.26299586814E+03 0.  0.
         25    1    4    4    0    0 -0.44217357346E+01 -0.45396360584E+02  0.69101995017E+03  0.70373038938E+03  0.12509000000E+03 0.  0.
         25    1    3    3    0    0 -0.48193675047E+02  0.33248735557E+02  0.24698583647E+03  0.28297989371E+03  0.12509000000E+03 0.  0.
         25    1    4    4    0    0  0.52615410782E+02  0.12147625027E+02  0.68253721311E+03  0.69600323392E+03  0.12509000000E+03 0.  0.
<mgrwt>
<rscale>  2 0.45317234E+03</rscale>
<asrwt>0</asrwt>
<pdfrwt beam="1">  1       21 0.24288645E+00 0.45317234E+03</pdfrwt>
<pdfrwt beam="2">  1       21 0.45713627E-02 0.45317234E+03</pdfrwt>
<totfact> 0.19904629E+04</totfact>
</mgrwt>
</event>
<event>
 7    0  0.4737014E-002  0.4361062E+03  0.7546771E-02  0.1031948E+00
         21   -1    0    0  502  501  0.00000000000E+00  0.00000000000E+00  0.91483298378E+02  0.91483298378E+02  0.00000000000E+00 0. -1.
         21   -1    0    0  501  502 -0.00000000000E+00 -0.00000000000E+00 -0.51973598676E+03  0.51973598676E+03  0.00000000000E+00 0. -1.
      99926    2    1    2    0    0  0.71054273576E-14  0.14210854715E-13 -0.42825268839E+03  0.61121928514E+03  0.43610623639E+03 0.  0.
      99925    2    3    3    0    0  0.61365788331E+02  0.64110625183E+02 -0.22994083856E+03  0.36051820792E+03  0.26310579006E+03 0.  0.
         25    1    4    4    0    0  0.50553944352E+02  0.67495076164E+02 -0.14210800436E+03  0.20725221253E+03  0.12509000000E+03 0.  0.
         25    1    4    4    0    0  0.10811843979E+02 -0.33844509813E+01 -0.87832834197E+02  0.15326599539E+03  0.12509000000E+03 0.  0.
         25    1    3    3    0    0 -0.61365788331E+02 -0.64110625183E+02 -0.19831184983E+03  0.25070107722E+03  0.12509000000E+03 0.  0.
<mgrwt>
<rscale>  2 0.43610624E+03</rscale>
<asrwt>0</asrwt>
<pdfrwt beam="1">  1       21 0.13453427E-01 0.43610624E+03</pdfrwt>
<pdfrwt beam="2">  1       21 0.76431760E-01 0.43610624E+03</pdfrwt>
<totfact> 0.67517802E+04</totfact>
</mgrwt>
</event>
<event>
 7    0  0.4737014E-002  0.4455951E+03  0.7546771E-02  0.1029044E+00
         21   -1    0    0  502  501  0.00000000000E+00  0.00000000000E+00  0.13086251171E+03  0.13086251171E+03  0.00000000000E+00 0.  1.
         21   -1    0    0  501  502 -0.00000000000E+00 -0.00000000000E+00 -0.37931982640E+03  0.37931982640E+03  0.00000000000E+00 0.  1.
      99926    2    1    2    0    0  0.00000000000E+00  0.00000000000E+00 -0.24845731469E+03  0.51018233811E+03  0.44559508626E+03 0.  0.
      99925    2    3    3    0    0 -0.73145164288E+02  0.73487011373E+02 -0.14616212674E+03  0.31818658432E+03  0.26292352357E+03 0.  0.
         25    1    4    4    0    0 -0.27753437456E+01  0.50339163303E+02 -0.49787667492E+02  0.14376388221E+03  0.12509000000E+03 0.  0.
         25    1    3    3    0    0  0.73145164288E+02 -0.73487011373E+02 -0.10229518794E+03  0.19199575380E+03  0.12509000000E+03 0.  0.
         25    1    4    4    0    0 -0.70369820543E+02  0.23147848070E+02 -0.96374459250E+02  0.17442270210E+03  0.12509000000E+03 0.  0.
<mgrwt>
<rscale>  2 0.44559509E+03</rscale>
<asrwt>0</asrwt>
<pdfrwt beam="1">  1       21 0.19244487E-01 0.44559509E+03</pdfrwt>
<pdfrwt beam="2">  1       21 0.55782327E-01 0.44559509E+03</pdfrwt>
<totfact> 0.69612812E+04</totfact>
</mgrwt>
</event>
<event>
 7    0  0.4737014E-002  0.4645467E+03  0.7546771E-02  0.1023471E+00
         21   -1    0    0  502  501  0.00000000000E+00  0.00000000000E+00  0.15390528456E+03  0.15390528456E+03  0.00000000000E+00 0.  1.
         21   -1    0    0  501  502 -0.00000000000E+00 -0.00000000000E+00 -0.35054623754E+03  0.35054623754E+03  0.00000000000E+00 0.  1.
      99926    2    1    2    0    0  0.14210854715E-13 -0.17763568394E-14 -0.19664095298E+03  0.50445152210E+03  0.46454674012E+03 0.  0.
      99925    2    3    3    0    0 -0.99270083436E+02  0.13405092066E+02 -0.19829465342E+03  0.34418771214E+03  0.26288812383E+03 0.  0.
         25    1    3    3    0    0  0.99270083436E+02 -0.13405092066E+02  0.16537004371E+01  0.16026380996E+03  0.12509000000E+03 0.  0.
         25    1    4    4    0    0 -0.24785066309E+02  0.28355934504E+02 -0.63638361833E+02  0.14531244864E+03  0.12509000000E+03 0.  0.
         25    1    4    4    0    0 -0.74485017127E+02 -0.14950842438E+02 -0.13465629159E+03  0.19887526349E+03  0.12509000000E+03 0.  0.
<mgrwt>
<rscale>  2 0.46454674E+03</rscale>
<asrwt>0</asrwt>
<pdfrwt beam="1">  1       21 0.22633130E-01 0.46454674E+03</pdfrwt>
<pdfrwt beam="2">  1       21 0.51550917E-01 0.46454674E+03</pdfrwt>
<totfact> 0.60261136E+04</totfact>
</mgrwt>
</event>
<event>
 7    0  0.4737014E-002  0.4506769E+03  0.7546771E-02  0.1027520E+00
         21   -1    0    0  502  501  0.00000000000E+00  0.00000000000E+00  0.24800744720E+03  0.24800744720E+03  0.00000000000E+00 0. -1.
         21   -1    0    0  501  502 -0.00000000000E+00 -0.00000000000E+00 -0.20474147418E+03  0.20474147418E+03  0.00000000000E+00 0. -1.
      99926    2    1    2    0    0 -0.17763568394E-14  0.00000000000E+00  0.43265973014E+02  0.45274892138E+03  0.45067687026E+03 0.  0.
      99925    2    3    3    0    0  0.14991161453E+02 -0.56132534108E+02  0.12050283372E+03  0.29467097523E+03  0.26255371717E+03 0.  0.
         25    1    3    3    0    0 -0.14991161453E+02  0.56132534108E+02 -0.77236860704E+02  0.15807794615E+03  0.12509000000E+03 0.  0.
         25    1    4    4    0    0  0.22842784653E+02 -0.55872635137E+02  0.35912252411E+02  0.14345989733E+03  0.12509000000E+03 0.  0.
         25    1    4    4    0    0 -0.78516232004E+01 -0.25989897112E+00  0.84590581307E+02  0.15121107790E+03  0.12509000000E+03 0.  0.
<mgrwt>
<rscale>  2 0.45067687E+03</rscale>
<asrwt>0</asrwt>
<pdfrwt beam="1">  1       21 0.36471683E-01 0.45067687E+03</pdfrwt>
<pdfrwt beam="2">  1       21 0.30109040E-01 0.45067687E+03</pdfrwt>
<totfact> 0.71133098E+04</totfact>
</mgrwt>
</event>
<event>
 7    0  0.4737014E-002  0.4404263E+03  0.7546771E-02  0.1030616E+00
         21   -1    0    0  502  501  0.00000000000E+00  0.00000000000E+00  0.16904663129E+03  0.16904663129E+03  0.00000000000E+00 0. -1.
         21   -1    0    0  501  502 -0.00000000000E+00 -0.00000000000E+00 -0.28686662285E+03  0.28686662285E+03  0.00000000000E+00 0. -1.
      99926    2    1    2    0    0  0.00000000000E+00  0.35527136788E-14 -0.11781999157E+03  0.45591325414E+03  0.44042632175E+03 0.  0.
      99925    2    3    3    0    0  0.96946176083E+02  0.18767659980E+02 -0.73555670166E+02  0.29051185038E+03  0.26312717929E+03 0.  0.
         25    1    3    3    0    0 -0.96946176083E+02 -0.18767659980E+02 -0.44264321400E+02  0.16540140376E+03  0.12509000000E+03 0.  0.
         25    1    4    4    0    0  0.21455664762E+02  0.36686647627E+02 -0.18726232350E+02  0.13343326250E+03  0.12509000000E+03 0.  0.
         25    1    4    4    0    0  0.75490511321E+02 -0.17918987647E+02 -0.54829437816E+02  0.15707858788E+03  0.12509000000E+03 0.  0.
<mgrwt>
<rscale>  2 0.44042632E+03</rscale>
<asrwt>0</asrwt>
<pdfrwt beam="1">  1       21 0.24859799E-01 0.44042632E+03</pdfrwt>
<pdfrwt beam="2">  1       21 0.42186268E-01 0.44042632E+03</pdfrwt>
<totfact> 0.77024505E+04</totfact>
</mgrwt>
</event>
<event>
 7    0  0.4737014E-002  0.4440450E+03  0.7546771E-02  0.1029513E+00
         21   -1    0    0  502  501  0.00000000000E+00  0.00000000000E+00  0.75903630914E+02  0.75903630914E+02  0.00000000000E+00 0.  1.
         21   -1    0    0  501  502 -0.00000000000E+00 -0.00000000000E+00 -0.64942874699E+03  0.64942874699E+03  0.00000000000E+00 0.  1.
      99926    2    1    2    0    0  0.00000000000E+00  0.00000000000E+00 -0.57352511608E+03  0.72533237790E+03  0.44404504238E+03 0.  0.
      99925    2    3    3    0    0 -0.33137336072E+02  0.83569923562E+02 -0.28357218782E+03  0.39699988808E+03  0.26289486543E+03 0.  0.
         25    1    3    3    0    0  0.33137336072E+02 -0.83569923562E+02 -0.28995292826E+03  0.32833248982E+03  0.12509000000E+03 0.  0.
         25    1    4    4    0    0 -0.21915011288E+02  0.15636071626E+02 -0.89888963523E+02  0.15637227478E+03  0.12509000000E+03 0.  0.
         25    1    4    4    0    0 -0.11222324784E+02  0.67933851936E+02 -0.19368322429E+03  0.24062761331E+03  0.12509000000E+03 0.  0.
<mgrwt>
<rscale>  2 0.44404504E+03</rscale>
<asrwt>0</asrwt>
<pdfrwt beam="1">  1       21 0.11162299E-01 0.44404504E+03</pdfrwt>
<pdfrwt beam="2">  1       21 0.95504227E-01 0.44404504E+03</pdfrwt>
<totfact> 0.56240035E+04</totfact>
</mgrwt>
</event>
<event>
 7    0  0.4737014E-002  0.4515450E+03  0.7546771E-02  0.1027262E+00
         21   -1    0    0  502  501  0.00000000000E+00  0.00000000000E+00  0.66419851354E+02  0.66419851354E+02  0.00000000000E+00 0. -1.
         21   -1    0    0  501  502 -0.00000000000E+00 -0.00000000000E+00 -0.76743957497E+03  0.76743957497E+03  0.00000000000E+00 0. -1.
      99926    2    1    2    0    0 -0.71054273576E-14  0.00000000000E+00 -0.70101972362E+03  0.83385942632E+03  0.45154500326E+03 0.  0.
      99925    2    3    3    0    0 -0.57366518097E+02 -0.37125785922E+02 -0.28358107796E+03  0.39275652181E+03  0.26300231229E+03 0.  0.
         25    1    3    3    0    0  0.57366518097E+02  0.37125785922E+02 -0.41743864566E+03  0.44110290451E+03  0.12509000000E+03 0.  0.
         25    1    4    4    0    0 -0.39965444391E+02 -0.50934234588E+02 -0.18172924285E+03  0.22992294102E+03  0.12509000000E+03 0.  0.
         25    1    4    4    0    0 -0.17401073707E+02  0.13808448666E+02 -0.10185183511E+03  0.16283358080E+03  0.12509000000E+03 0.  0.
<mgrwt>
<rscale>  2 0.45154500E+03</rscale>
<asrwt>0</asrwt>
<pdfrwt beam="1">  1       21 0.97676252E-02 0.45154500E+03</pdfrwt>
<pdfrwt beam="2">  1       21 0.11285876E+00 0.45154500E+03</pdfrwt>
<totfact> 0.47443296E+04</totfact>
</mgrwt>
</event>
<event>
 7    0  0.4737014E-002  0.4396539E+03  0.7546771E-02  0.1030853E+00
         21   -1    0    0  502  501  0.00000000000E+00  0.00000000000E+00  0.85820938299E+02  0.85820938299E+02  0.00000000000E+00 0.  1.
         21   -1    0    0  501  502 -0.00000000000E+00 -0.00000000000E+00 -0.56307798427E+03  0.56307798427E+03  0.00000000000E+00 0.  1.
      99926    2    1    2    0    0  0.00000000000E+00  0.00000000000E+00 -0.47725704597E+03  0.64889892257E+03  0.43965386815E+03 0.  0.
      99925    2    3    3    0    0 -0.76254380797E+02  0.50378981437E+02 -0.25187516132E+03  0.37540801890E+03  0.26293974862E+03 0.  0.
         25    1    4    4    0    0 -0.54362023386E+02  0.58238354929E+02 -0.16199816954E+03  0.21963116948E+03  0.12509000000E+03 0.  0.
         25    1    3    3    0    0  0.76254380797E+02 -0.50378981437E+02 -0.22538188465E+03  0.27349090367E+03  0.12509000000E+03 0.  0.
         25    1    4    4    0    0 -0.21892357410E+02 -0.78593734921E+01 -0.89876991783E+02  0.15577684942E+03  0.12509000000E+03 0.  0.
<mgrwt>
<rscale>  2 0.43965387E+03</rscale>
<asrwt>0</asrwt>
<pdfrwt beam="1">  1       21 0.12620727E-01 0.43965387E+03</pdfrwt>
<pdfrwt beam="2">  1       21 0.82805583E-01 0.43965387E+03</pdfrwt>
<totfact> 0.63056978E+04</totfact>
</mgrwt>
</event>
<event>
 7    0  0.4737014E-002  0.4125128E+03  0.7546771E-02  0.1039531E+00
         21   -1    0    0  502  501  0.00000000000E+00  0.00000000000E+00  0.15630171720E+03  0.15630171720E+03  0.00000000000E+00 0. -1.
         21   -1    0    0  501  502 -0.00000000000E+00 -0.00000000000E+00 -0.27217682537E+03  0.27217682537E+03  0.00000000000E+00 0. -1.
      99926    2    1    2    0    0  0.00000000000E+00  0.44408920985E-15 -0.11587510816E+03  0.42847854257E+03  0.41251281283E+03 0.  0.
      99925    2    3    3    0    0  0.54891517291E+02 -0.30957892206E+01 -0.38776037322E+02  0.27158865314E+03  0.26312383560E+03 0.  0.
         25    1    4    4    0    0  0.41010419714E+02  0.25973301006E+02  0.74744957971E+01  0.13438691557E+03  0.12509000000E+03 0.  0.
         25    1    3    3    0    0 -0.54891517291E+02  0.30957892206E+01 -0.77099070843E+02  0.15688988943E+03  0.12509000000E+03 0.  0.
         25    1    4    4    0    0  0.13881097577E+02 -0.29069090227E+02 -0.46250533119E+02  0.13720173756E+03  0.12509000000E+03 0.  0.
<mgrwt>
<rscale>  2 0.41251281E+03</rscale>
<asrwt>0</asrwt>
<pdfrwt beam="1">  1       21 0.22985547E-01 0.41251281E+03</pdfrwt>
<pdfrwt beam="2">  1       21 0.40026003E-01 0.41251281E+03</pdfrwt>
<totfact> 0.10048099E+05</totfact>
</mgrwt>
</event>
<event>
 7    0  0.4737014E-002  0.4650076E+03  0.7546771E-02  0.1023339E+00
         21   -1    0    0  502  501  0.00000000000E+00  0.00000000000E+00  0.21820666135E+04  0.21820666135E+04  0.00000000000E+00 0.  1.
         21   -1    0    0  501  502 -0.00000000000E+00 -0.00000000000E+00 -0.24773768945E+02  0.24773768945E+02  0.00000000000E+00 0.  1.
      99926    2    1    2    0    0  0.71054273576E-14  0.00000000000E+00  0.21572928446E+04  0.22068403825E+04  0.46500758749E+03 0.  0.
      99925    2    3    3    0    0 -0.55431892993E+02  0.79128422794E+02  0.99259537131E+03  0.10314673717E+04  0.26333508259E+03 0.  0.
         25    1    4    4    0    0 -0.22972965456E+02  0.76247613939E+02  0.45521112446E+03  0.47875477199E+03  0.12509000000E+03 0.  0.
         25    1    3    3    0    0  0.55431892993E+02 -0.79128422794E+02  0.11646974733E+04  0.11753730107E+04  0.12509000000E+03 0.  0.
         25    1    4    4    0    0 -0.32458927537E+02  0.28808088558E+01  0.53738424685E+03  0.55271259973E+03  0.12509000000E+03 0.  0.
<mgrwt>
<rscale>  2 0.46500759E+03</rscale>
<asrwt>0</asrwt>
<pdfrwt beam="1">  1       21 0.32089202E+00 0.46500759E+03</pdfrwt>
<pdfrwt beam="2">  1       21 0.36432028E-02 0.46500759E+03</pdfrwt>
<totfact> 0.98308429E+03</totfact>
</mgrwt>
</event>
<event>
 7    0  0.4737014E-002  0.4646549E+03  0.7546771E-02  0.1023440E+00
         21   -1    0    0  502  501  0.00000000000E+00  0.00000000000E+00  0.12407803009E+03  0.12407803009E+03  0.00000000000E+00 0.  1.
         21   -1    0    0  501  502 -0.00000000000E+00 -0.00000000000E+00 -0.43501694443E+03  0.43501694443E+03  0.00000000000E+00 0.  1.
      99926    2    1    2    0    0  0.00000000000E+00  0.71054273576E-14 -0.31093891433E+03  0.55909497452E+03  0.46465490644E+03 0.  0.
      99925    2    3    3    0    0  0.11016221908E+03  0.47936511918E+02 -0.16864041404E+03  0.33475149908E+03  0.26303108790E+03 0.  0.
         25    1    3    3    0    0 -0.11016221908E+03 -0.47936511918E+02 -0.14229850029E+03  0.22434347544E+03  0.12509000000E+03 0.  0.
         25    1    4    4    0    0  0.44799279522E+02 -0.16618774363E+02 -0.81609473868E+02  0.15681445543E+03  0.12509000000E+03 0.  0.
         25    1    4    4    0    0  0.65362939556E+02  0.64555286281E+02 -0.87030940173E+02  0.17793704365E+03  0.12509000000E+03 0.  0.
<mgrwt>
<rscale>  2 0.46465491E+03</rscale>
<asrwt>0</asrwt>
<pdfrwt beam="1">  1       21 0.18246769E-01 0.46465491E+03</pdfrwt>
<pdfrwt beam="2">  1       21 0.63973080E-01 0.46465491E+03</pdfrwt>
<totfact> 0.56805185E+04</totfact>
</mgrwt>
</event>
<event>
 7    0  0.4737014E-002  0.4597033E+03  0.7546771E-02  0.1024867E+00
         21   -1    0    0  502  501  0.00000000000E+00  0.00000000000E+00  0.73822661456E+02  0.73822661456E+02  0.00000000000E+00 0.  1.
         21   -1    0    0  501  502 -0.00000000000E+00 -0.00000000000E+00 -0.71565800015E+03  0.71565800015E+03  0.00000000000E+00 0.  1.
      99926    2    1    2    0    0  0.00000000000E+00  0.00000000000E+00 -0.64183533870E+03  0.78948066161E+03  0.45970328806E+03 0.  0.
      99925    2    3    3    0    0 -0.53239345774E+02 -0.98705892447E+02 -0.34182510166E+03  0.44563341127E+03  0.26299706456E+03 0.  0.
         25    1    4    4    0    0 -0.49109654570E+01 -0.67489579294E+02 -0.12814827689E+03  0.19143784857E+03  0.12509000000E+03 0.  0.
         25    1    3    3    0    0  0.53239345774E+02  0.98705892447E+02 -0.30001023703E+03  0.34384725034E+03  0.12509000000E+03 0.  0.
         25    1    4    4    0    0 -0.48328380317E+02 -0.31216313153E+02 -0.21367682477E+03  0.25419556270E+03  0.12509000000E+03 0.  0.
<mgrwt>
<rscale>  2 0.45970329E+03</rscale>
<asrwt>0</asrwt>
<pdfrwt beam="1">  1       21 0.10856274E-01 0.45970329E+03</pdfrwt>
<pdfrwt beam="2">  1       21 0.10524382E+00 0.45970329E+03</pdfrwt>
<totfact> 0.46536113E+04</totfact>
</mgrwt>
</event>
<event>
 7    0  0.4737014E-002  0.4457526E+03  0.7546771E-02  0.1028996E+00
         21   -1    0    0  502  501  0.00000000000E+00  0.00000000000E+00  0.11782170854E+04  0.11782170854E+04  0.00000000000E+00 0.  1.
         21   -1    0    0  501  502 -0.00000000000E+00 -0.00000000000E+00 -0.42160176983E+02  0.42160176983E+02  0.00000000000E+00 0.  1.
      99926    2    1    2    0    0  0.00000000000E+00  0.14210854715E-13  0.11360569085E+04  0.12203772624E+04  0.44575258091E+03 0.  0.
      99925    2    3    3    0    0  0.21284956559E+02 -0.80851933173E+02  0.89161031663E+03  0.93333766789E+03  0.26298319549E+03 0.  0.
         25    1    4    4    0    0 -0.22264204471E+02 -0.20277232650E+02  0.36780006935E+03  0.38965530932E+03  0.12509000000E+03 0.  0.
         25    1    3    3    0    0 -0.21284956559E+02  0.80851933173E+02  0.24444659184E+03  0.28703959454E+03  0.12509000000E+03 0.  0.
         25    1    4    4    0    0  0.43549161031E+02 -0.60574700523E+02  0.52381024727E+03  0.54368235857E+03  0.12509000000E+03 0.  0.
<mgrwt>
<rscale>  2 0.44575258E+03</rscale>
<asrwt>0</asrwt>
<pdfrwt beam="1">  1       21 0.17326720E+00 0.44575258E+03</pdfrwt>
<pdfrwt beam="2">  1       21 0.62000268E-02 0.44575258E+03</pdfrwt>
<totfact> 0.33892678E+04</totfact>
</mgrwt>
</event>
<event>
 7    0  0.4737014E-002  0.4487284E+03  0.7546771E-02  0.1028102E+00
         21   -1    0    0  502  501  0.00000000000E+00  0.00000000000E+00  0.23194548828E+03  0.23194548828E+03  0.00000000000E+00 0. -1.
         21   -1    0    0  501  502 -0.00000000000E+00 -0.00000000000E+00 -0.21703074175E+03  0.21703074175E+03  0.00000000000E+00 0. -1.
      99926    2    1    2    0    0  0.14210854715E-13  0.88817841970E-15  0.14914746534E+02  0.44897623003E+03  0.44872843176E+03 0.  0.
      99925    2    3    3    0    0 -0.10612639213E+03 -0.35018039629E+01 -0.50084543847E+01  0.28369006675E+03  0.26302071330E+03 0.  0.
         25    1    4    4    0    0 -0.26737079193E+02  0.43283805324E+01  0.29549950269E+02  0.13135567724E+03  0.12509000000E+03 0.  0.
         25    1    3    3    0    0  0.10612639213E+03  0.35018039629E+01  0.19923200919E+02  0.16528616328E+03  0.12509000000E+03 0.  0.
         25    1    4    4    0    0 -0.79389312933E+02 -0.78301844952E+01 -0.34558404654E+02  0.15233438952E+03  0.12509000000E+03 0.  0.
<mgrwt>
<rscale>  2 0.44872843E+03</rscale>
<asrwt>0</asrwt>
<pdfrwt beam="1">  1       21 0.34109631E-01 0.44872843E+03</pdfrwt>
<pdfrwt beam="2">  1       21 0.31916285E-01 0.44872843E+03</pdfrwt>
<totfact> 0.72552520E+04</totfact>
</mgrwt>
</event>
<event>
 7    0  0.4737014E-002  0.4453063E+03  0.7546771E-02  0.1029131E+00
         21   -1    0    0  502  501  0.00000000000E+00  0.00000000000E+00  0.96449486459E+02  0.96449486459E+02  0.00000000000E+00 0.  1.
         21   -1    0    0  501  502 -0.00000000000E+00 -0.00000000000E+00 -0.51399372235E+03  0.51399372235E+03  0.00000000000E+00 0.  1.
      99926    2    1    2    0    0  0.00000000000E+00  0.35527136788E-14 -0.41754423590E+03  0.61044320881E+03  0.44530632407E+03 0.  0.
      99925    2    3    3    0    0 -0.98966638623E+02  0.31305864041E+02 -0.26705013074E+03  0.38892472997E+03  0.26300612268E+03 0.  0.
         25    1    4    4    0    0 -0.41090388058E+02  0.44986773419E+02 -0.97044458461E+02  0.16963892475E+03  0.12509000000E+03 0.  0.
         25    1    4    4    0    0 -0.57876250565E+02 -0.13680909378E+02 -0.17000567228E+03  0.21928580522E+03  0.12509000000E+03 0.  0.
         25    1    3    3    0    0  0.98966638623E+02 -0.31305864041E+02 -0.15049410515E+03  0.22151847884E+03  0.12509000000E+03 0.  0.
<mgrwt>
<rscale>  2 0.44530632E+03</rscale>
<asrwt>0</asrwt>
<pdfrwt beam="1">  1       21 0.14183748E-01 0.44530632E+03</pdfrwt>
<pdfrwt beam="2">  1       21 0.75587311E-01 0.44530632E+03</pdfrwt>
<totfact> 0.62704833E+04</totfact>
</mgrwt>
</event>
<event>
 7    0  0.4737014E-002  0.4544024E+03  0.7546771E-02  0.1026417E+00
         21   -1    0    0  502  501  0.00000000000E+00  0.00000000000E+00  0.62127619724E+02  0.62127619724E+02  0.00000000000E+00 0.  1.
         21   -1    0    0  501  502 -0.00000000000E+00 -0.00000000000E+00 -0.83087663194E+03  0.83087663194E+03  0.00000000000E+00 0.  1.
      99926    2    1    2    0    0 -0.14210854715E-13  0.00000000000E+00 -0.76874901221E+03  0.89300425166E+03  0.45440240944E+03 0.  0.
      99925    2    3    3    0    0 -0.95082756875E+02  0.33413567190E+02 -0.58274749970E+03  0.64723755765E+03  0.26299165481E+03 0.  0.
         25    1    4    4    0    0 -0.39252592683E+02  0.18534475018E+01 -0.19671841346E+03  0.23641032887E+03  0.12509000000E+03 0.  0.
         25    1    3    3    0    0  0.95082756875E+02 -0.33413567190E+02 -0.18600151252E+03  0.24576669401E+03  0.12509000000E+03 0.  0.
         25    1    4    4    0    0 -0.55830164192E+02  0.31560119688E+02 -0.38602908623E+03  0.41082722878E+03  0.12509000000E+03 0.  0.
<mgrwt>
<rscale>  2 0.45440241E+03</rscale>
<asrwt>0</asrwt>
<pdfrwt beam="1">  1       21 0.91364153E-02 0.45440241E+03</pdfrwt>
<pdfrwt beam="2">  1       21 0.12218773E+00 0.45440241E+03</pdfrwt>
<totfact> 0.43741863E+04</totfact>
</mgrwt>
</event>
<event>
 7    0  0.4737014E-002  0.4544779E+03  0.7546771E-02  0.1026395E+00
         21   -1    0    0  502  501  0.00000000000E+00  0.00000000000E+00  0.22697370961E+04  0.22697370961E+04  0.00000000000E+00 0. -1.
         21   -1    0    0  501  502 -0.00000000000E+00 -0.00000000000E+00 -0.22750446738E+02  0.22750446738E+02  0.00000000000E+00 0. -1.
      99926    2    1    2    0    0  0.00000000000E+00 -0.71054273576E-14  0.22469866494E+04  0.22924875428E+04  0.45447786707E+03 0.  0.
      99925    2    3    3    0    0  0.93165790975E+02  0.43489143869E+02  0.11817433798E+04  0.12150081223E+04  0.26297557168E+03 0.  0.
         25    1    3    3    0    0 -0.93165790975E+02 -0.43489143869E+02  0.10652432696E+04  0.10774794205E+04  0.12509000000E+03 0.  0.
         25    1    4    4    0    0  0.42202075457E+02 -0.16292439841E+02  0.62540158237E+03  0.63939119958E+03  0.12509000000E+03 0.  0.
         25    1    4    4    0    0  0.50963715518E+02  0.59781583710E+02  0.55634179743E+03  0.57561692272E+03  0.12509000000E+03 0.  0.
<mgrwt>
<rscale>  2 0.45447787E+03</rscale>
<asrwt>0</asrwt>
<pdfrwt beam="1">  1       21 0.33378471E+00 0.45447787E+03</pdfrwt>
<pdfrwt beam="2">  1       21 0.33456555E-02 0.45447787E+03</pdfrwt>
<totfact> 0.95337804E+03</totfact>
</mgrwt>
</event>
<event>
 6    0  0.4737014E-002  0.4676922E+03  0.7546771E-02  0.1022574E+00
         21   -1    0    0  502  501  0.00000000000E+00  0.00000000000E+00  0.51773339246E+03  0.51773339246E+03  0.00000000000E+00 0. -1.
         21   -1    0    0  501  502 -0.00000000000E+00 -0.00000000000E+00 -0.10562191231E+03  0.10562191231E+03  0.00000000000E+00 0. -1.
      99926    2    1    2    0    0  0.00000000000E+00  0.00000000000E+00  0.41211148015E+03  0.62335530477E+03  0.46769216790E+03 0.  0.
         25    1    3    3    0    0 -0.42679256401E+01  0.53780692409E+01  0.21036502337E+03  0.24484299046E+03  0.12509000000E+03 0.  0.
         25    1    3    3    0    0  0.30931545088E+02  0.61183484037E+02  0.18463188247E+03  0.23331656461E+03  0.12509000000E+03 0.  0.
         25    1    3    3    0    0 -0.26663619448E+02 -0.66561553277E+02  0.17114574312E+02  0.14519574970E+03  0.12509000000E+03 0.  0.
<mgrwt>
<rscale>  2 0.46769217E+03</rscale>
<asrwt>0</asrwt>
<pdfrwt beam="1">  1       21 0.76137262E-01 0.46769217E+03</pdfrwt>
<pdfrwt beam="2">  1       21 0.15532634E-01 0.46769217E+03</pdfrwt>
<totfact> 0.51866319E+04</totfact>
</mgrwt>
</event>
<event>
 7    0  0.4737014E-002  0.4545096E+03  0.7546771E-02  0.1026386E+00
         21   -1    0    0  502  501  0.00000000000E+00  0.00000000000E+00  0.87898984913E+02  0.87898984913E+02  0.00000000000E+00 0.  1.
         21   -1    0    0  501  502 -0.00000000000E+00 -0.00000000000E+00 -0.58754645950E+03  0.58754645950E+03  0.00000000000E+00 0.  1.
      99926    2    1    2    0    0  0.00000000000E+00  0.00000000000E+00 -0.49964747459E+03  0.67544544441E+03  0.45450957032E+03 0.  0.
      99925    2    3    3    0    0  0.82784789506E+02  0.28401744302E+02 -0.20907436467E+03  0.34720738940E+03  0.26302262419E+03 0.  0.
         25    1    4    4    0    0  0.81648393063E+02  0.25374464573E+02 -0.12536561007E+03  0.19665799712E+03  0.12509000000E+03 0.  0.
         25    1    4    4    0    0  0.11363964439E+01  0.30272797292E+01 -0.83708754604E+02  0.15054939228E+03  0.12509000000E+03 0.  0.
         25    1    3    3    0    0 -0.82784789506E+02 -0.28401744302E+02 -0.29057310991E+03  0.32823805501E+03  0.12509000000E+03 0.  0.
<mgrwt>
<rscale>  2 0.45450957E+03</rscale>
<asrwt>0</asrwt>
<pdfrwt beam="1">  1       21 0.12926321E-01 0.45450957E+03</pdfrwt>
<pdfrwt beam="2">  1       21 0.86403892E-01 0.45450957E+03</pdfrwt>
<totfact> 0.54467162E+04</totfact>
</mgrwt>
</event>
<event>
 7    0  0.4737014E-002  0.4568697E+03  0.7546771E-02  0.1025693E+00
         21   -1    0    0  502  501  0.00000000000E+00  0.00000000000E+00  0.11378858688E+03  0.11378858688E+03  0.00000000000E+00 0. -1.
         21   -1    0    0  501  502 -0.00000000000E+00 -0.00000000000E+00 -0.45859147073E+03  0.45859147073E+03  0.00000000000E+00 0. -1.
      99926    2    1    2    0    0  0.71054273576E-14  0.17763568394E-14 -0.34480288385E+03  0.57238005760E+03  0.45686967686E+03 0.  0.
      99925    2    3    3    0    0 -0.61935085688E+02  0.15634630438E+02 -0.96915583124E+02  0.28746600307E+03  0.26298987844E+03 0.  0.
         25    1    3    3    0    0  0.61935085688E+02 -0.15634630438E+02 -0.24788730073E+03  0.28491405453E+03  0.12509000000E+03 0.  0.
         25    1    4    4    0    0 -0.53114842613E+02  0.33194560341E+02 -0.25851079015E+02  0.14226331828E+03  0.12509000000E+03 0.  0.
         25    1    4    4    0    0 -0.88202430748E+01 -0.17559929903E+02 -0.71064504109E+02  0.14520268479E+03  0.12509000000E+03 0.  0.
<mgrwt>
<rscale>  2 0.45686968E+03</rscale>
<asrwt>0</asrwt>
<pdfrwt beam="1">  1       21 0.16733616E-01 0.45686968E+03</pdfrwt>
<pdfrwt beam="2">  1       21 0.67439921E-01 0.45686968E+03</pdfrwt>
<totfact> 0.59526448E+04</totfact>
</mgrwt>
</event>
<event>
 7    0  0.4737014E-002  0.4583599E+03  0.7546771E-02  0.1025258E+00
         21   -1    0    0  502  501  0.00000000000E+00  0.00000000000E+00  0.43240591377E+03  0.43240591377E+03  0.00000000000E+00 0.  1.
         21   -1    0    0  501  502 -0.00000000000E+00 -0.00000000000E+00 -0.12146794309E+03  0.12146794309E+03  0.00000000000E+00 0.  1.
      99926    2    1    2    0    0  0.00000000000E+00  0.00000000000E+00  0.31093797068E+03  0.55387385687E+03  0.45835993249E+03 0.  0.
      99925    2    3    3    0    0  0.94164551244E+02 -0.35077437250E+02  0.12427454411E+03  0.30772729029E+03  0.26297249583E+03 0.  0.
         25    1    4    4    0    0  0.38288141750E+02  0.17921225325E+02  0.79644256588E+02  0.15420073872E+03  0.12509000000E+03 0.  0.
         25    1    4    4    0    0  0.55876409494E+02 -0.52998662574E+02  0.44630287517E+02  0.15352655157E+03  0.12509000000E+03 0.  0.
         25    1    3    3    0    0 -0.94164551244E+02  0.35077437250E+02  0.18666342657E+03  0.24614656657E+03  0.12509000000E+03 0.  0.
<mgrwt>
<rscale>  2 0.45835993E+03</rscale>
<asrwt>0</asrwt>
<pdfrwt beam="1">  1       21 0.63589104E-01 0.45835993E+03</pdfrwt>
<pdfrwt beam="2">  1       21 0.17862933E-01 0.45835993E+03</pdfrwt>
<totfact> 0.60000399E+04</totfact>
</mgrwt>
</event>
<event>
 7    0  0.4737014E-002  0.4574713E+03  0.7546771E-02  0.1025517E+00
         21   -1    0    0  502  501  0.00000000000E+00  0.00000000000E+00  0.17432294429E+03  0.17432294429E+03  0.00000000000E+00 0. -1.
         21   -1    0    0  501  502 -0.00000000000E+00 -0.00000000000E+00 -0.30013259580E+03  0.30013259580E+03  0.00000000000E+00 0. -1.
      99926    2    1    2    0    0  0.11102230246E-15  0.14210854715E-13 -0.12580965151E+03  0.47445554009E+03  0.45747130086E+03 0.  0.
      99925    2    3    3    0    0  0.96784252748E+00 -0.92783359325E+02 -0.15025064373E+03  0.31680225377E+03  0.26301848521E+03 0.  0.
         25    1    4    4    0    0 -0.63537801891E+01 -0.73581435725E+02 -0.11485730821E+03  0.18518722298E+03  0.12509000000E+03 0.  0.
         25    1    4    4    0    0  0.73216227166E+01 -0.19201923600E+02 -0.35393335523E+02  0.13161503079E+03  0.12509000000E+03 0.  0.
         25    1    3    3    0    0 -0.96784252748E+00  0.92783359325E+02  0.24440992225E+02  0.15765328632E+03  0.12509000000E+03 0.  0.
<mgrwt>
<rscale>  2 0.45747130E+03</rscale>
<asrwt>0</asrwt>
<pdfrwt beam="1">  1       21 0.25635728E-01 0.45747130E+03</pdfrwt>
<pdfrwt beam="2">  1       21 0.44137146E-01 0.45747130E+03</pdfrwt>
<totfact> 0.65806074E+04</totfact>
</mgrwt>
</event>
<event>
 7    0  0.4737014E-002  0.4491780E+03  0.7546771E-02  0.1027967E+00
         21   -1    0    0  502  501  0.00000000000E+00  0.00000000000E+00  0.60337998139E+02  0.60337998139E+02  0.00000000000E+00 0. -1.
         21   -1    0    0  501  502 -0.00000000000E+00 -0.00000000000E+00 -0.83596118029E+03  0.83596118029E+03  0.00000000000E+00 0. -1.
      99926    2    1    2    0    0  0.35527136788E-14  0.14210854715E-13 -0.77562318215E+03  0.89629917843E+03  0.44917802324E+03 0.  0.
      99925    2    3    3    0    0 -0.29755781862E+02 -0.93050948543E+02 -0.40058908448E+03  0.48906218589E+03  0.26299490771E+03 0.  0.
         25    1    4    4    0    0 -0.19565353324E+01 -0.17692756569E+02 -0.13645839208E+03  0.18597113360E+03  0.12509000000E+03 0.  0.
         25    1    4    4    0    0 -0.27799246530E+02 -0.75358191974E+02 -0.26413069240E+03  0.30309105228E+03  0.12509000000E+03 0.  0.
         25    1    3    3    0    0  0.29755781862E+02  0.93050948543E+02 -0.37503409768E+03  0.40723699255E+03  0.12509000000E+03 0.  0.
<mgrwt>
<rscale>  2 0.44917802E+03</rscale>
<asrwt>0</asrwt>
<pdfrwt beam="1">  1       21 0.88732353E-02 0.44917802E+03</pdfrwt>
<pdfrwt beam="2">  1       21 0.12293546E+00 0.44917802E+03</pdfrwt>
<totfact> 0.45429717E+04</totfact>
</mgrwt>
</event>
<event>
 7    0  0.4737014E-002  0.4522820E+03  0.7546771E-02  0.1027044E+00
         21   -1    0    0  502  501  0.00000000000E+00  0.00000000000E+00  0.27509870982E+03  0.27509870982E+03  0.00000000000E+00 0.  1.
         21   -1    0    0  501  502 -0.00000000000E+00 -0.00000000000E+00 -0.18589602468E+03  0.18589602468E+03  0.00000000000E+00 0.  1.
      99926    2    1    2    0    0  0.00000000000E+00  0.00000000000E+00  0.89202685140E+02  0.46099473449E+03  0.45228202064E+03 0.  0.
      99925    2    3    3    0    0  0.47886589080E+02  0.54382453194E+02 -0.28932073700E+02  0.27430272616E+03  0.26297213552E+03 0.  0.
         25    1    4    4    0    0  0.17488396937E+02  0.61599341661E+02 -0.36365058992E+02  0.14515594558E+03  0.12509000000E+03 0.  0.
         25    1    4    4    0    0  0.30398192143E+02 -0.72168884667E+01  0.74329852917E+01  0.12914678058E+03  0.12509000000E+03 0.  0.
         25    1    3    3    0    0 -0.47886589080E+02 -0.54382453194E+02  0.11813475884E+03  0.18669200833E+03  0.12509000000E+03 0.  0.
<mgrwt>
<rscale>  2 0.45228202E+03</rscale>
<asrwt>0</asrwt>
<pdfrwt beam="1">  1       21 0.40455692E-01 0.45228202E+03</pdfrwt>
<pdfrwt beam="2">  1       21 0.27337651E-01 0.45228202E+03</pdfrwt>
<totfact> 0.69600234E+04</totfact>
</mgrwt>
</event>
<event>
 7    0  0.4737014E-002  0.4528304E+03  0.7546771E-02  0.1026881E+00
         21   -1    0    0  502  501  0.00000000000E+00  0.00000000000E+00  0.61965955893E+02  0.61965955893E+02  0.00000000000E+00 0.  1.
         21   -1    0    0  501  502 -0.00000000000E+00 -0.00000000000E+00 -0.82729032384E+03  0.82729032384E+03  0.00000000000E+00 0.  1.
      99926    2    1    2    0    0  0.00000000000E+00  0.00000000000E+00 -0.76532436794E+03  0.88925627973E+03  0.45283036876E+03 0.  0.
      99925    2    3    3    0    0  0.93155583708E+02 -0.47113137146E+02 -0.55766759870E+03  0.62531224706E+03  0.26291566180E+03 0.  0.
         25    1    3    3    0    0 -0.93155583708E+02  0.47113137146E+02 -0.20765676925E+03  0.26394403267E+03  0.12509000000E+03 0.  0.
         25    1    4    4    0    0  0.55755357678E+02  0.13081873353E+02 -0.30529028453E+03  0.33485737448E+03  0.12509000000E+03 0.  0.
         25    1    4    4    0    0  0.37400226029E+02 -0.60195010499E+02 -0.25237731417E+03  0.29045487258E+03  0.12509000000E+03 0.  0.
<mgrwt>
<rscale>  2 0.45283037E+03</rscale>
<asrwt>0</asrwt>
<pdfrwt beam="1">  1       21 0.91126404E-02 0.45283037E+03</pdfrwt>
<pdfrwt beam="2">  1       21 0.12166034E+00 0.45283037E+03</pdfrwt>
<totfact> 0.44451901E+04</totfact>
</mgrwt>
</event>
<event>
 7    0  0.4737014E-002  0.4543250E+03  0.7546771E-02  0.1026440E+00
         21   -1    0    0  502  501  0.00000000000E+00  0.00000000000E+00  0.96656477097E+02  0.96656477097E+02  0.00000000000E+00 0.  1.
         21   -1    0    0  501  502 -0.00000000000E+00 -0.00000000000E+00 -0.53387824258E+03  0.53387824258E+03  0.00000000000E+00 0.  1.
      99926    2    1    2    0    0  0.00000000000E+00  0.00000000000E+00 -0.43722176549E+03  0.63053471968E+03  0.45432495035E+03 0.  0.
      99925    2    3    3    0    0  0.30590285117E+02  0.22647139196E+02 -0.12853138648E+03  0.29529463161E+03  0.26311583702E+03 0.  0.
         25    1    3    3    0    0 -0.30590285117E+02 -0.22647139196E+02 -0.30869037901E+03  0.33524008807E+03  0.12509000000E+03 0.  0.
         25    1    4    4    0    0 -0.78088307452E+01  0.27289346459E+02 -0.30820154968E+02  0.13192071983E+03  0.12509000000E+03 0.  0.
         25    1    4    4    0    0  0.38399115862E+02 -0.46422072624E+01 -0.97711231510E+02  0.16337391178E+03  0.12509000000E+03 0.  0.
<mgrwt>
<rscale>  2 0.45432495E+03</rscale>
<asrwt>0</asrwt>
<pdfrwt beam="1">  1       21 0.14214188E-01 0.45432495E+03</pdfrwt>
<pdfrwt beam="2">  1       21 0.78511505E-01 0.45432495E+03</pdfrwt>
<totfact> 0.57140942E+04</totfact>
</mgrwt>
</event>
<event>
 7    0  0.4737014E-002  0.4499327E+03  0.7546771E-02  0.1027742E+00
         21   -1    0    0  502  501  0.00000000000E+00  0.00000000000E+00  0.66370691816E+03  0.66370691816E+03  0.00000000000E+00 0. -1.
         21   -1    0    0  501  502 -0.00000000000E+00 -0.00000000000E+00 -0.76253336875E+02  0.76253336875E+02  0.00000000000E+00 0. -1.
      99926    2    1    2    0    0  0.00000000000E+00  0.00000000000E+00  0.58745358129E+03  0.73996025504E+03  0.44993273816E+03 0.  0.
      99925    2    3    3    0    0 -0.70915952276E+02  0.69861530963E+02  0.30089476256E+03  0.41182435257E+03  0.26296755207E+03 0.  0.
         25    1    3    3    0    0  0.70915952276E+02 -0.69861530963E+02  0.28655881873E+03  0.32813590247E+03  0.12509000000E+03 0.  0.
         25    1    4    4    0    0 -0.45331399385E+02  0.75129583941E+02  0.15047733540E+03  0.21445355377E+03  0.12509000000E+03 0.  0.
         25    1    4    4    0    0 -0.25584552891E+02 -0.52680529775E+01  0.15041742715E+03  0.19737079880E+03  0.12509000000E+03 0.  0.
<mgrwt>
<rscale>  2 0.44993274E+03</rscale>
<asrwt>0</asrwt>
<pdfrwt beam="1">  1       21 0.97603956E-01 0.44993274E+03</pdfrwt>
<pdfrwt beam="2">  1       21 0.11213726E-01 0.44993274E+03</pdfrwt>
<totfact> 0.52861004E+04</totfact>
</mgrwt>
</event>
<event>
 7    0  0.4737014E-002  0.4565387E+03  0.7546771E-02  0.1025790E+00
         21   -1    0    0  502  501  0.00000000000E+00  0.00000000000E+00  0.11440837991E+03  0.11440837991E+03  0.00000000000E+00 0.  1.
         21   -1    0    0  501  502 -0.00000000000E+00 -0.00000000000E+00 -0.45544645688E+03  0.45544645688E+03  0.00000000000E+00 0.  1.
      99926    2    1    2    0    0  0.14210854715E-13  0.17763568394E-14 -0.34103807697E+03  0.56985483679E+03  0.45653867861E+03 0.  0.
      99925    2    3    3    0    0  0.97879580755E+02  0.10154215781E+02 -0.28774079912E+03  0.40201077716E+03  0.26293416865E+03 0.  0.
         25    1    4    4    0    0  0.88213931435E+01  0.10869578564E+02 -0.14911348680E+03  0.19513663101E+03  0.12509000000E+03 0.  0.
         25    1    4    4    0    0  0.89058187611E+02 -0.71536278267E+00 -0.13862731232E+03  0.20687414615E+03  0.12509000000E+03 0.  0.
         25    1    3    3    0    0 -0.97879580755E+02 -0.10154215781E+02 -0.53297277842E+02  0.16784405963E+03  0.12509000000E+03 0.  0.
<mgrwt>
<rscale>  2 0.45653868E+03</rscale>
<asrwt>0</asrwt>
<pdfrwt beam="1">  1       21 0.16824762E-01 0.45653868E+03</pdfrwt>
<pdfrwt beam="2">  1       21 0.66977419E-01 0.45653868E+03</pdfrwt>
<totfact> 0.59841774E+04</totfact>
</mgrwt>
</event>
<event>
 7    0  0.4737014E-002  0.4578539E+03  0.7546771E-02  0.1025405E+00
         21   -1    0    0  502  501  0.00000000000E+00  0.00000000000E+00  0.12366482722E+03  0.12366482722E+03  0.00000000000E+00 0.  1.
         21   -1    0    0  501  502 -0.00000000000E+00 -0.00000000000E+00 -0.42378699917E+03  0.42378699917E+03  0.00000000000E+00 0.  1.
      99926    2    1    2    0    0  0.00000000000E+00 -0.71054273576E-14 -0.30012217195E+03  0.54745182639E+03  0.45785388949E+03 0.  0.
      99925    2    3    3    0    0 -0.22165679248E+02 -0.56935607490E+02 -0.30605626471E+03  0.40811158707E+03  0.26296701237E+03 0.  0.
         25    1    3    3    0    0  0.22165679248E+02  0.56935607490E+02  0.59340927579E+01  0.13934023932E+03  0.12509000000E+03 0.  0.
         25    1    4    4    0    0 -0.51129299390E+02 -0.35933803786E+02 -0.16177859482E+03  0.21383466827E+03  0.12509000000E+03 0.  0.
         25    1    4    4    0    0  0.28963620143E+02 -0.21001803704E+02 -0.14427766989E+03  0.19427691880E+03  0.12509000000E+03 0.  0.
<mgrwt>
<rscale>  2 0.45785389E+03</rscale>
<asrwt>0</asrwt>
<pdfrwt beam="1">  1       21 0.18186004E-01 0.45785389E+03</pdfrwt>
<pdfrwt beam="2">  1       21 0.62321617E-01 0.45785389E+03</pdfrwt>
<totfact> 0.60653919E+04</totfact>
</mgrwt>
</event>
<event>
 7    0  0.4737014E-002  0.4553834E+03  0.7546771E-02  0.1026129E+00
         21   -1    0    0  502  501  0.00000000000E+00  0.00000000000E+00  0.50345576533E+03  0.50345576533E+03  0.00000000000E+00 0.  1.
         21   -1    0    0  501  502 -0.00000000000E+00 -0.00000000000E+00 -0.10297530272E+03  0.10297530272E+03  0.00000000000E+00 0.  1.
      99926    2    1    2    0    0 -0.17763568394E-14  0.00000000000E+00  0.40048046260E+03  0.60643106805E+03  0.45538339822E+03 0.  0.
      99925    2    3    3    0    0 -0.53422560943E+01  0.46886815115E+02  0.38932231149E+03  0.47227099363E+03  0.26313706708E+03 0.  0.
         25    1    4    4    0    0  0.36291821480E+02  0.13679007632E+02  0.17786990100E+03  0.22088327537E+03  0.12509000000E+03 0.  0.
         25    1    4    4    0    0 -0.41634077574E+02  0.33207807483E+02  0.21145241048E+03  0.25138771826E+03  0.12509000000E+03 0.  0.
         25    1    3    3    0    0  0.53422560943E+01 -0.46886815115E+02  0.11158151119E+02  0.13416007442E+03  0.12509000000E+03 0.  0.
<mgrwt>
<rscale>  2 0.45538340E+03</rscale>
<asrwt>0</asrwt>
<pdfrwt beam="1">  1       21 0.74037611E-01 0.45538340E+03</pdfrwt>
<pdfrwt beam="2">  1       21 0.15143427E-01 0.45538340E+03</pdfrwt>
<totfact> 0.58107961E+04</totfact>
</mgrwt>
</event>
<event>
 7    0  0.4737014E-002  0.4527142E+03  0.7546771E-02  0.1026916E+00
         21   -1    0    0  502  501  0.00000000000E+00  0.00000000000E+00  0.64357100616E+03  0.64357100616E+03  0.00000000000E+00 0. -1.
         21   -1    0    0  501  502 -0.00000000000E+00 -0.00000000000E+00 -0.79614416680E+02  0.79614416680E+02  0.00000000000E+00 0. -1.
      99926    2    1    2    0    0  0.71054273576E-14  0.14210854715E-13  0.56395658948E+03  0.72318542283E+03  0.45271417140E+03 0.  0.
      99925    2    3    3    0    0  0.47802564579E+02  0.90223839149E+02  0.28627790016E+03  0.40197149268E+03  0.26306010429E+03 0.  0.
         25    1    4    4    0    0  0.34431561335E+02  0.47405190344E+01  0.12334620312E+03  0.17908042568E+03  0.12509000000E+03 0.  0.
         25    1    3    3    0    0 -0.47802564579E+02 -0.90223839149E+02  0.27767868931E+03  0.32121393016E+03  0.12509000000E+03 0.  0.
         25    1    4    4    0    0  0.13371003244E+02  0.85483320115E+02  0.16293169704E+03  0.22289106700E+03  0.12509000000E+03 0.  0.
<mgrwt>
<rscale>  2 0.45271417E+03</rscale>
<asrwt>0</asrwt>
<pdfrwt beam="1">  1       21 0.94642792E-01 0.45271417E+03</pdfrwt>
<pdfrwt beam="2">  1       21 0.11708003E-01 0.45271417E+03</pdfrwt>
<totfact> 0.52601495E+04</totfact>
</mgrwt>
</event>
<event>
 7    0  0.4737014E-002  0.4570616E+03  0.7546771E-02  0.1025637E+00
         21   -1    0    0  502  501  0.00000000000E+00  0.00000000000E+00  0.65030007009E+03  0.65030007009E+03  0.00000000000E+00 0. -1.
         21   -1    0    0  501  502 -0.00000000000E+00 -0.00000000000E+00 -0.80311115267E+02  0.80311115267E+02  0.00000000000E+00 0. -1.
      99926    2    1    2    0    0  0.00000000000E+00  0.00000000000E+00  0.56998895482E+03  0.73061118535E+03  0.45706158835E+03 0.  0.
      99925    2    3    3    0    0  0.43492289800E+02  0.49373361670E+02  0.20683597625E+03  0.34092297401E+03  0.26290310957E+03 0.  0.
         25    1    3    3    0    0 -0.43492289800E+02 -0.49373361670E+02  0.36315297857E+03  0.38968821134E+03  0.12509000000E+03 0.  0.
         25    1    4    4    0    0  0.20244785067E+02 -0.58041900619E+01  0.13306774185E+03  0.18384251947E+03  0.12509000000E+03 0.  0.
         25    1    4    4    0    0  0.23247504734E+02  0.55177551732E+02  0.73768234397E+02  0.15708045454E+03  0.12509000000E+03 0.  0.
<mgrwt>
<rscale>  2 0.45706159E+03</rscale>
<asrwt>0</asrwt>
<pdfrwt beam="1">  1       21 0.95632361E-01 0.45706159E+03</pdfrwt>
<pdfrwt beam="2">  1       21 0.11810458E-01 0.45706159E+03</pdfrwt>
<totfact> 0.50449485E+04</totfact>
</mgrwt>
</event>
<event>
 7    0  0.4737014E-002  0.4159138E+03  0.7546771E-02  0.1038404E+00
         21   -1    0    0  502  501  0.00000000000E+00  0.00000000000E+00  0.85465844213E+03  0.85465844213E+03  0.00000000000E+00 0.  1.
         21   -1    0    0  501  502 -0.00000000000E+00 -0.00000000000E+00 -0.50600414823E+02  0.50600414823E+02  0.00000000000E+00 0.  1.
      99926    2    1    2    0    0 -0.17763568394E-14  0.00000000000E+00  0.80405802730E+03  0.90525885695E+03  0.41591379734E+03 0.  0.
      99925    2    3    3    0    0 -0.92584885795E+01 -0.65117031965E+02  0.58222311444E+03  0.64222999137E+03  0.26296322816E+03 0.  0.
         25    1    4    4    0    0  0.24997946198E+02 -0.43272288300E+01  0.28642301968E+03  0.31357499347E+03  0.12509000000E+03 0.  0.
         25    1    4    4    0    0 -0.34256434778E+02 -0.60789803135E+02  0.29580009475E+03  0.32865499790E+03  0.12509000000E+03 0.  0.
         25    1    3    3    0    0  0.92584885795E+01  0.65117031965E+02  0.22183491287E+03  0.26302886558E+03  0.12509000000E+03 0.  0.
<mgrwt>
<rscale>  2 0.41591380E+03</rscale>
<asrwt>0</asrwt>
<pdfrwt beam="1">  1       21 0.12568506E+00 0.41591380E+03</pdfrwt>
<pdfrwt beam="2">  1       21 0.74412380E-02 0.41591380E+03</pdfrwt>
<totfact> 0.59120193E+04</totfact>
</mgrwt>
</event>
<event>
 7    0  0.4737014E-002  0.4485123E+03  0.7546771E-02  0.1028167E+00
         21   -1    0    0  502  501  0.00000000000E+00  0.00000000000E+00  0.26527239793E+03  0.26527239793E+03  0.00000000000E+00 0. -1.
         21   -1    0    0  501  502 -0.00000000000E+00 -0.00000000000E+00 -0.18958179319E+03  0.18958179319E+03  0.00000000000E+00 0. -1.
      99926    2    1    2    0    0  0.00000000000E+00  0.00000000000E+00  0.75690604741E+02  0.45485419112E+03  0.44851228248E+03 0.  0.
      99925    2    3    3    0    0 -0.43443364559E+02 -0.95372669305E+02  0.26539976366E+02  0.28442366468E+03  0.26307637429E+03 0.  0.
         25    1    3    3    0    0  0.43443364559E+02  0.95372669305E+02  0.49150628375E+02  0.17043052644E+03  0.12509000000E+03 0.  0.
         25    1    4    4    0    0  0.70409865855E+01 -0.15096379879E+02  0.10340019524E+02  0.12661714055E+03  0.12509000000E+03 0.  0.
         25    1    4    4    0    0 -0.50484351144E+02 -0.80276289426E+02  0.16199956842E+02  0.15780652412E+03  0.12509000000E+03 0.  0.
<mgrwt>
<rscale>  2 0.44851228E+03</rscale>
<asrwt>0</asrwt>
<pdfrwt beam="1">  1       21 0.39010647E-01 0.44851228E+03</pdfrwt>
<pdfrwt beam="2">  1       21 0.27879675E-01 0.44851228E+03</pdfrwt>
<totfact> 0.72221873E+04</totfact>
</mgrwt>
</event>
<event>
 7    0  0.4737014E-002  0.4439197E+03  0.7546771E-02  0.1029551E+00
         21   -1    0    0  502  501  0.00000000000E+00  0.00000000000E+00  0.89640008404E+03  0.89640008404E+03  0.00000000000E+00 0.  1.
         21   -1    0    0  501  502 -0.00000000000E+00 -0.00000000000E+00 -0.54960021161E+02  0.54960021161E+02  0.00000000000E+00 0.  1.
      99926    2    1    2    0    0  0.00000000000E+00  0.88817841970E-15  0.84144006288E+03  0.95136010520E+03  0.44391966655E+03 0.  0.
      99925    2    3    3    0    0 -0.98585238950E+02 -0.43219487271E+01  0.59202231501E+03  0.65539651009E+03  0.26328014621E+03 0.  0.
         25    1    4    4    0    0 -0.59855064709E+02  0.16958155733E+02  0.22190180160E+03  0.26221770625E+03  0.12509000000E+03 0.  0.
         25    1    3    3    0    0  0.98585238950E+02  0.43219487271E+01  0.24941774787E+03  0.29596359511E+03  0.12509000000E+03 0.  0.
         25    1    4    4    0    0 -0.38730174241E+02 -0.21280104460E+02  0.37012051340E+03  0.39317880383E+03  0.12509000000E+03 0.  0.
<mgrwt>
<rscale>  2 0.44391967E+03</rscale>
<asrwt>0</asrwt>
<pdfrwt beam="1">  1       21 0.13182353E+00 0.44391967E+03</pdfrwt>
<pdfrwt beam="2">  1       21 0.80823566E-02 0.44391967E+03</pdfrwt>
<totfact> 0.44847224E+04</totfact>
</mgrwt>
</event>
<event>
 7    0  0.4737014E-002  0.4564232E+03  0.7546771E-02  0.1025824E+00
         21   -1    0    0  502  501  0.00000000000E+00  0.00000000000E+00  0.31856025878E+03  0.31856025878E+03  0.00000000000E+00 0.  1.
         21   -1    0    0  501  502 -0.00000000000E+00 -0.00000000000E+00 -0.16348721365E+03  0.16348721365E+03  0.00000000000E+00 0.  1.
      99926    2    1    2    0    0  0.00000000000E+00  0.00000000000E+00  0.15507304513E+03  0.48204747243E+03  0.45642317684E+03 0.  0.
      99925    2    3    3    0    0 -0.11010131586E+03  0.18002114383E+02  0.72423620838E+02  0.29516566135E+03  0.26349802829E+03 0.  0.
         25    1    4    4    0    0 -0.43046387333E+02  0.44798448360E+02  0.18036049327E+02  0.14082861788E+03  0.12509000000E+03 0.  0.
         25    1    3    3    0    0  0.11010131586E+03 -0.18002114383E+02  0.82649424290E+02  0.18688181108E+03  0.12509000000E+03 0.  0.
         25    1    4    4    0    0 -0.67054928526E+02 -0.26796333977E+02  0.54387571511E+02  0.15433704348E+03  0.12509000000E+03 0.  0.
<mgrwt>
<rscale>  2 0.45642318E+03</rscale>
<asrwt>0</asrwt>
<pdfrwt beam="1">  1       21 0.46847097E-01 0.45642318E+03</pdfrwt>
<pdfrwt beam="2">  1       21 0.24042237E-01 0.45642318E+03</pdfrwt>
<totfact> 0.65804827E+04</totfact>
</mgrwt>
</event>
<event>
 7    0  0.4737014E-002  0.4476002E+03  0.7546771E-02  0.1028440E+00
         21   -1    0    0  502  501  0.00000000000E+00  0.00000000000E+00  0.65106446389E+02  0.65106446389E+02  0.00000000000E+00 0. -1.
         21   -1    0    0  501  502 -0.00000000000E+00 -0.00000000000E+00 -0.76930153804E+03  0.76930153804E+03  0.00000000000E+00 0. -1.
      99926    2    1    2    0    0 -0.14210854715E-13  0.00000000000E+00 -0.70419509165E+03  0.83440798443E+03  0.44760022048E+03 0.  0.
      99925    2    3    3    0    0 -0.10407765825E+03 -0.12885844060E+02 -0.42087174909E+03  0.50742506674E+03  0.26334191700E+03 0.  0.
         25    1    4    4    0    0 -0.37440811708E+02 -0.29998287771E+02 -0.14917767299E+03  0.20050735116E+03  0.12509000000E+03 0.  0.
         25    1    4    4    0    0 -0.66636846539E+02  0.17112443711E+02 -0.27169407610E+03  0.30691771558E+03  0.12509000000E+03 0.  0.
         25    1    3    3    0    0  0.10407765825E+03  0.12885844060E+02 -0.28332334256E+03  0.32698291770E+03  0.12509000000E+03 0.  0.
<mgrwt>
<rscale>  2 0.44760022E+03</rscale>
<asrwt>0</asrwt>
<pdfrwt beam="1">  1       21 0.95744781E-02 0.44760022E+03</pdfrwt>
<pdfrwt beam="2">  1       21 0.11313257E+00 0.44760022E+03</pdfrwt>
<totfact> 0.48924245E+04</totfact>
</mgrwt>
</event>
<event>
 7    0  0.4737014E-002  0.4459311E+03  0.7546771E-02  0.1028942E+00
         21   -1    0    0  502  501  0.00000000000E+00  0.00000000000E+00  0.70591243170E+03  0.70591243170E+03  0.00000000000E+00 0. -1.
         21   -1    0    0  501  502 -0.00000000000E+00 -0.00000000000E+00 -0.70424636942E+02  0.70424636942E+02  0.00000000000E+00 0. -1.
      99926    2    1    2    0    0  0.00000000000E+00  0.00000000000E+00  0.63548779475E+03  0.77633706864E+03  0.44593105617E+03 0.  0.
      99925    2    3    3    0    0  0.47906503153E+02 -0.48557415277E+02  0.26317529461E+03  0.37769316553E+03  0.26217939654E+03 0.  0.
         25    1    3    3    0    0 -0.47906503153E+02  0.48557415277E+02  0.37231250014E+03  0.39864390311E+03  0.12509000000E+03 0.  0.
         25    1    4    4    0    0  0.50881143464E+02 -0.27412271963E+01  0.10642401377E+03  0.17195925068E+03  0.12509000000E+03 0.  0.
         25    1    4    4    0    0 -0.29746403108E+01 -0.45816188081E+02  0.15675128085E+03  0.20573391486E+03  0.12509000000E+03 0.  0.
<mgrwt>
<rscale>  2 0.44593106E+03</rscale>
<asrwt>0</asrwt>
<pdfrwt beam="1">  1       21 0.10381065E+00 0.44593106E+03</pdfrwt>
<pdfrwt beam="2">  1       21 0.10356565E-01 0.44593106E+03</pdfrwt>
<totfact> 0.52574639E+04</totfact>
</mgrwt>
</event>
<event>
 7    0  0.4737014E-002  0.4512284E+03  0.7546771E-02  0.1027356E+00
         21   -1    0    0  502  501  0.00000000000E+00  0.00000000000E+00  0.13149801248E+03  0.13149801248E+03  0.00000000000E+00 0.  1.
         21   -1    0    0  501  502 -0.00000000000E+00 -0.00000000000E+00 -0.38709145781E+03  0.38709145781E+03  0.00000000000E+00 0.  1.
      99926    2    1    2    0    0  0.00000000000E+00  0.00000000000E+00 -0.25559344533E+03  0.51858947028E+03  0.45122835615E+03 0.  0.
      99925    2    3    3    0    0  0.34881646096E+02  0.44411472278E+02 -0.26922829795E+03  0.38066729871E+03  0.26312470007E+03 0.  0.
         25    1    4    4    0    0  0.47592040272E+02  0.50962189403E+02 -0.14326745669E+03  0.20257151649E+03  0.12509000000E+03 0.  0.
         25    1    4    4    0    0 -0.12710394177E+02 -0.65507171255E+01 -0.12596084126E+03  0.17809578223E+03  0.12509000000E+03 0.  0.
         25    1    3    3    0    0 -0.34881646096E+02 -0.44411472278E+02  0.13634852624E+02  0.13792217157E+03  0.12509000000E+03 0.  0.
<mgrwt>
<rscale>  2 0.45122836E+03</rscale>
<asrwt>0</asrwt>
<pdfrwt beam="1">  1       21 0.19337943E-01 0.45122836E+03</pdfrwt>
<pdfrwt beam="2">  1       21 0.56925213E-01 0.45122836E+03</pdfrwt>
<totfact> 0.65934408E+04</totfact>
</mgrwt>
</event>
<event>
 7    0  0.4737014E-002  0.4542397E+03  0.7546771E-02  0.1026465E+00
         21   -1    0    0  502  501  0.00000000000E+00  0.00000000000E+00  0.49699881325E+02  0.49699881325E+02  0.00000000000E+00 0. -1.
         21   -1    0    0  501  502 -0.00000000000E+00 -0.00000000000E+00 -0.10378985347E+04  0.10378985347E+04  0.00000000000E+00 0. -1.
      99926    2    1    2    0    0  0.35527136788E-14  0.00000000000E+00 -0.98819865337E+03  0.10875984160E+04  0.45423973407E+03 0.  0.
      99925    2    3    3    0    0 -0.23117649371E+02 -0.27564321523E+02 -0.87746659556E+03  0.91670864377E+03  0.26289331239E+03 0.  0.
         25    1    3    3    0    0  0.23117649371E+02  0.27564321523E+02 -0.11073205780E+03  0.17088977225E+03  0.12509000000E+03 0.  0.
         25    1    4    4    0    0 -0.22545920498E+02 -0.40822736819E+02 -0.35390043221E+03  0.37824309431E+03  0.12509000000E+03 0.  0.
         25    1    4    4    0    0 -0.57172887238E+00  0.13258415296E+02 -0.52356616335E+03  0.53846554946E+03  0.12509000000E+03 0.  0.
<mgrwt>
<rscale>  2 0.45423973E+03</rscale>
<asrwt>0</asrwt>
<pdfrwt beam="1">  1       21 0.73088064E-02 0.45423973E+03</pdfrwt>
<pdfrwt beam="2">  1       21 0.15263213E+00 0.45423973E+03</pdfrwt>
<totfact> 0.36141158E+04</totfact>
</mgrwt>
</event>
<event>
 7    0  0.4737014E-002  0.4483708E+03  0.7546771E-02  0.1028209E+00
         21   -1    0    0  502  501  0.00000000000E+00  0.00000000000E+00  0.24108561648E+03  0.24108561648E+03  0.00000000000E+00 0.  1.
         21   -1    0    0  501  502 -0.00000000000E+00 -0.00000000000E+00 -0.20846993648E+03  0.20846993648E+03  0.00000000000E+00 0.  1.
      99926    2    1    2    0    0  0.35527136788E-14 -0.71054273576E-14  0.32615680007E+02  0.44955555296E+03  0.44837084274E+03 0.  0.
      99925    2    3    3    0    0  0.28080590040E+02 -0.63982164457E+02 -0.60308842712E+02  0.27877876318E+03  0.26305551769E+03 0.  0.
         25    1    4    4    0    0  0.36841651955E+02 -0.66617977325E+02 -0.25746523959E+02  0.14867970210E+03  0.12509000000E+03 0.  0.
         25    1    4    4    0    0 -0.87610619152E+01  0.26358128679E+01 -0.34562318754E+02  0.13009906108E+03  0.12509000000E+03 0.  0.
         25    1    3    3    0    0 -0.28080590040E+02  0.63982164457E+02  0.92924522720E+02  0.17077678978E+03  0.12509000000E+03 0.  0.
<mgrwt>
<rscale>  2 0.44837084E+03</rscale>
<asrwt>0</asrwt>
<pdfrwt beam="1">  1       21 0.35453767E-01 0.44837084E+03</pdfrwt>
<pdfrwt beam="2">  1       21 0.30657344E-01 0.44837084E+03</pdfrwt>
<totfact> 0.72717283E+04</totfact>
</mgrwt>
</event>
<event>
 7    0  0.4737014E-002  0.4536611E+03  0.7546771E-02  0.1026636E+00
         21   -1    0    0  502  501  0.00000000000E+00  0.00000000000E+00  0.28986938707E+03  0.28986938707E+03  0.00000000000E+00 0. -1.
         21   -1    0    0  501  502 -0.00000000000E+00 -0.00000000000E+00 -0.17750094683E+03  0.17750094683E+03  0.00000000000E+00 0. -1.
      99926    2    1    2    0    0  0.35527136788E-14  0.35527136788E-14  0.11236844025E+03  0.46737033390E+03  0.45366106583E+03 0.  0.
      99925    2    3    3    0    0  0.12399526167E+02  0.28822257192E+02  0.18143587834E+03  0.32107511913E+03  0.26303190570E+03 0.  0.
         25    1    3    3    0    0 -0.12399526167E+02 -0.28822257192E+02 -0.69067438095E+02  0.14629521477E+03  0.12509000000E+03 0.  0.
         25    1    4    4    0    0 -0.32583001754E+02  0.76743397840E+01  0.76496629822E+02  0.15039876984E+03  0.12509000000E+03 0.  0.
         25    1    4    4    0    0  0.44982527922E+02  0.21147917408E+02  0.10493924852E+03  0.17067634930E+03  0.12509000000E+03 0.  0.
<mgrwt>
<rscale>  2 0.45366107E+03</rscale>
<asrwt>0</asrwt>
<pdfrwt beam="1">  1       21 0.42627851E-01 0.45366107E+03</pdfrwt>
<pdfrwt beam="2">  1       21 0.26103080E-01 0.45366107E+03</pdfrwt>
<totfact> 0.68354999E+04</totfact>
</mgrwt>
</event>
<event>
 7    0  0.4737014E-002  0.4146768E+03  0.7546771E-02  0.1038813E+00
         21   -1    0    0  502  501  0.00000000000E+00  0.00000000000E+00  0.44475567023E+03  0.44475567023E+03  0.00000000000E+00 0.  1.
         21   -1    0    0  501  502 -0.00000000000E+00 -0.00000000000E+00 -0.96658049888E+02  0.96658049888E+02  0.00000000000E+00 0.  1.
      99926    2    1    2    0    0  0.14210854715E-13 -0.88817841970E-15  0.34809762034E+03  0.54141372012E+03  0.41467681759E+03 0.  0.
      99925    2    3    3    0    0  0.68063386877E+02 -0.58548671396E+01  0.21456767573E+03  0.34610714494E+03  0.26283828527E+03 0.  0.
         25    1    4    4    0    0  0.75587563348E+02 -0.21662692046E+01  0.11809465635E+03  0.18791494995E+03  0.12509000000E+03 0.  0.
         25    1    4    4    0    0 -0.75241764712E+01 -0.36885979351E+01  0.96473019383E+02  0.15819219499E+03  0.12509000000E+03 0.  0.
         25    1    3    3    0    0 -0.68063386877E+02  0.58548671396E+01  0.13352994460E+03  0.19530657518E+03  0.12509000000E+03 0.  0.
<mgrwt>
<rscale>  2 0.41467682E+03</rscale>
<asrwt>0</asrwt>
<pdfrwt beam="1">  1       21 0.65405245E-01 0.41467682E+03</pdfrwt>
<pdfrwt beam="2">  1       21 0.14214419E-01 0.41467682E+03</pdfrwt>
<totfact> 0.87069455E+04</totfact>
</mgrwt>
</event>
<event>
 7    0  0.4737014E-002  0.4556270E+03  0.7546771E-02  0.1026057E+00
         21   -1    0    0  502  501  0.00000000000E+00  0.00000000000E+00  0.31345664975E+03  0.31345664975E+03  0.00000000000E+00 0.  1.
         21   -1    0    0  501  502 -0.00000000000E+00 -0.00000000000E+00 -0.16556988040E+03  0.16556988040E+03  0.00000000000E+00 0.  1.
      99926    2    1    2    0    0 -0.14210854715E-13  0.00000000000E+00  0.14788676935E+03  0.47902653015E+03  0.45562695271E+03 0.  0.
      99925    2    3    3    0    0  0.97463749472E+02  0.50613399990E+02  0.12305994053E+03  0.31072686215E+03  0.26333730305E+03 0.  0.
         25    1    3    3    0    0 -0.97463749472E+02 -0.50613399990E+02  0.24826828816E+02  0.16829966800E+03  0.12509000000E+03 0.  0.
         25    1    4    4    0    0  0.40409400649E+02  0.41520559000E+02  0.21426952399E+02  0.13951164421E+03  0.12509000000E+03 0.  0.
         25    1    4    4    0    0  0.57054348822E+02  0.90928409903E+01  0.10163298813E+03  0.17121521794E+03  0.12509000000E+03 0.  0.
<mgrwt>
<rscale>  2 0.45562695E+03</rscale>
<asrwt>0</asrwt>
<pdfrwt beam="1">  1       21 0.46096566E-01 0.45562695E+03</pdfrwt>
<pdfrwt beam="2">  1       21 0.24348512E-01 0.45562695E+03</pdfrwt>
<totfact> 0.66439792E+04</totfact>
</mgrwt>
</event>
<event>
 7    0  0.4737014E-002  0.4554224E+03  0.7546771E-02  0.1026117E+00
         21   -1    0    0  502  501  0.00000000000E+00  0.00000000000E+00  0.21060914870E+03  0.21060914870E+03  0.00000000000E+00 0.  1.
         21   -1    0    0  501  502 -0.00000000000E+00 -0.00000000000E+00 -0.24620200584E+03  0.24620200584E+03  0.00000000000E+00 0.  1.
      99926    2    1    2    0    0  0.00000000000E+00  0.00000000000E+00 -0.35592857146E+02  0.45681115454E+03  0.45542241868E+03 0.  0.
      99925    2    3    3    0    0 -0.50906522351E+02  0.89898998552E+02  0.25852080140E+02  0.28332832433E+03  0.26255152897E+03 0.  0.
         25    1    3    3    0    0  0.50906522351E+02 -0.89898998552E+02 -0.61444937286E+02  0.17348283021E+03  0.12509000000E+03 0.  0.
         25    1    4    4    0    0 -0.14324416045E+02  0.43878882279E+02  0.51164014925E+02  0.14281389893E+03  0.12509000000E+03 0.  0.
         25    1    4    4    0    0 -0.36582106306E+02  0.46020116273E+02 -0.25311934785E+02  0.14051442540E+03  0.12509000000E+03 0.  0.
<mgrwt>
<rscale>  2 0.45542242E+03</rscale>
<asrwt>0</asrwt>
<pdfrwt beam="1">  1       21 0.30971934E-01 0.45542242E+03</pdfrwt>
<pdfrwt beam="2">  1       21 0.36206177E-01 0.45542242E+03</pdfrwt>
<totfact> 0.68183254E+04</totfact>
</mgrwt>
</event>
<event>
 7    0  0.4737014E-002  0.4400032E+03  0.7546771E-02  0.1030746E+00
         21   -1    0    0  502  501  0.00000000000E+00  0.00000000000E+00  0.38789967948E+02  0.38789967948E+02  0.00000000000E+00 0.  1.
         21   -1    0    0  501  502 -0.00000000000E+00 -0.00000000000E+00 -0.12477635180E+04  0.12477635180E+04  0.00000000000E+00 0.  1.
      99926    2    1    2    0    0  0.17763568394E-14  0.00000000000E+00 -0.12089735500E+04  0.12865534859E+04  0.44000321303E+03 0.  0.
      99925    2    3    3    0    0  0.15899727406E+02  0.85234533486E+02 -0.90969852683E+03  0.95079944702E+03  0.26258418022E+03 0.  0.
         25    1    3    3    0    0 -0.15899727406E+02 -0.85234533486E+02 -0.29927502318E+03  0.33575403889E+03  0.12509000000E+03 0.  0.
         25    1    4    4    0    0  0.44861787374E+02  0.32691226127E+02 -0.41256821767E+03  0.43467383009E+03  0.12509000000E+03 0.  0.
         25    1    4    4    0    0 -0.28962059968E+02  0.52543307359E+02 -0.49713030916E+03  0.51612561693E+03  0.12509000000E+03 0.  0.
<mgrwt>
<rscale>  2 0.44000321E+03</rscale>
<asrwt>0</asrwt>
<pdfrwt beam="1">  1       21 0.57044076E-02 0.44000321E+03</pdfrwt>
<pdfrwt beam="2">  1       21 0.18349462E+00 0.44000321E+03</pdfrwt>
<totfact> 0.33216548E+04</totfact>
</mgrwt>
</event>
<event>
 7    0  0.4737014E-002  0.4526339E+03  0.7546771E-02  0.1026939E+00
         21   -1    0    0  502  501  0.00000000000E+00  0.00000000000E+00  0.29411045361E+03  0.29411045361E+03  0.00000000000E+00 0. -1.
         21   -1    0    0  501  502 -0.00000000000E+00 -0.00000000000E+00 -0.17415010044E+03  0.17415010044E+03  0.00000000000E+00 0. -1.
      99926    2    1    2    0    0  0.00000000000E+00  0.00000000000E+00  0.11996035317E+03  0.46826055405E+03  0.45263391404E+03 0.  0.
      99925    2    3    3    0    0  0.79148016227E+02  0.76845527128E+02  0.62994297983E+02  0.29201560219E+03  0.26293570855E+03 0.  0.
         25    1    4    4    0    0  0.56937897041E+02  0.26282660086E+02  0.67164338744E+02  0.15521359103E+03  0.12509000000E+03 0.  0.
         25    1    3    3    0    0 -0.79148016227E+02 -0.76845527128E+02  0.56966055185E+02  0.17624495186E+03  0.12509000000E+03 0.  0.
         25    1    4    4    0    0  0.22210119186E+02  0.50562867042E+02 -0.41700407614E+01  0.13680201116E+03  0.12509000000E+03 0.  0.
<mgrwt>
<rscale>  2 0.45263391E+03</rscale>
<asrwt>0</asrwt>
<pdfrwt beam="1">  1       21 0.43251538E-01 0.45263391E+03</pdfrwt>
<pdfrwt beam="2">  1       21 0.25610309E-01 0.45263391E+03</pdfrwt>
<totfact> 0.68848558E+04</totfact>
</mgrwt>
</event>
<event>
 7    0  0.4737014E-002  0.4635038E+03  0.7546771E-02  0.1023770E+00
         21   -1    0    0  502  501  0.00000000000E+00  0.00000000000E+00  0.10922567232E+04  0.10922567232E+04  0.00000000000E+00 0. -1.
         21   -1    0    0  501  502 -0.00000000000E+00 -0.00000000000E+00 -0.49172454365E+02  0.49172454365E+02  0.00000000000E+00 0. -1.
      99926    2    1    2    0    0  0.00000000000E+00 -0.71054273576E-14  0.10430842688E+04  0.11414291775E+04  0.46350380311E+03 0.  0.
      99925    2    3    3    0    0 -0.10922708243E+03  0.40452469408E+02  0.73136959524E+03  0.78592882080E+03  0.26308870883E+03 0.  0.
         25    1    3    3    0    0  0.10922708243E+03 -0.40452469408E+02  0.31171467355E+03  0.35550035671E+03  0.12509000000E+03 0.  0.
         25    1    4    4    0    0 -0.93995324647E+02  0.38727637759E+02  0.43335707443E+03  0.46236437259E+03  0.12509000000E+03 0.  0.
         25    1    4    4    0    0 -0.15231757785E+02  0.17248316485E+01  0.29801252081E+03  0.32356444821E+03  0.12509000000E+03 0.  0.
<mgrwt>
<rscale>  2 0.46350380E+03</rscale>
<asrwt>0</asrwt>
<pdfrwt beam="1">  1       21 0.16062597E+00 0.46350380E+03</pdfrwt>
<pdfrwt beam="2">  1       21 0.72312440E-02 0.46350380E+03</pdfrwt>
<totfact> 0.31902243E+04</totfact>
</mgrwt>
</event>
<event>
 7    0  0.4737014E-002  0.4599910E+03  0.7546771E-02  0.1024784E+00
         21   -1    0    0  502  501  0.00000000000E+00  0.00000000000E+00  0.43713113803E+03  0.43713113803E+03  0.00000000000E+00 0.  1.
         21   -1    0    0  501  502 -0.00000000000E+00 -0.00000000000E+00 -0.12101158719E+03  0.12101158719E+03  0.00000000000E+00 0.  1.
      99926    2    1    2    0    0 -0.14210854715E-13 -0.71054273576E-14  0.31611955084E+03  0.55814272522E+03  0.45999101219E+03 0.  0.
      99925    2    3    3    0    0 -0.79936608543E+02 -0.56337093785E+02  0.27786420217E+03  0.39481878539E+03  0.26288710300E+03 0.  0.
         25    1    4    4    0    0 -0.29231520157E+02 -0.60192141694E+02  0.17376312362E+03  0.22431831606E+03  0.12509000000E+03 0.  0.
         25    1    3    3    0    0  0.79936608543E+02  0.56337093785E+02  0.38255348667E+02  0.16332393983E+03  0.12509000000E+03 0.  0.
         25    1    4    4    0    0 -0.50705088386E+02  0.38550479090E+01  0.10410107856E+03  0.17050046932E+03  0.12509000000E+03 0.  0.
<mgrwt>
<rscale>  2 0.45999101E+03</rscale>
<asrwt>0</asrwt>
<pdfrwt beam="1">  1       21 0.64283991E-01 0.45999101E+03</pdfrwt>
<pdfrwt beam="2">  1       21 0.17795822E-01 0.45999101E+03</pdfrwt>
<totfact> 0.58968778E+04</totfact>
</mgrwt>
</event>
<event>
 7    0  0.4737014E-002  0.4351987E+03  0.7546771E-02  0.1032230E+00
         21   -1    0    0  502  501  0.00000000000E+00  0.00000000000E+00  0.15414256643E+03  0.15414256643E+03  0.00000000000E+00 0. -1.
         21   -1    0    0  501  502 -0.00000000000E+00 -0.00000000000E+00 -0.30717976973E+03  0.30717976973E+03  0.00000000000E+00 0. -1.
      99926    2    1    2    0    0  0.14210854715E-13 -0.35527136788E-14 -0.15303720330E+03  0.46132233616E+03  0.43519870433E+03 0.  0.
      99925    2    3    3    0    0 -0.79991883496E+02  0.18795531525E+02 -0.14520850930E+03  0.31145315995E+03  0.26299350988E+03 0.  0.
         25    1    4    4    0    0 -0.76480678489E+02 -0.56254369613E+01 -0.62540334449E+02  0.15949840518E+03  0.12509000000E+03 0.  0.
         25    1    3    3    0    0  0.79991883496E+02 -0.18795531525E+02 -0.78286940019E+01  0.14986917622E+03  0.12509000000E+03 0.  0.
         25    1    4    4    0    0 -0.35112050061E+01  0.24420968486E+02 -0.82668174848E+02  0.15195475476E+03  0.12509000000E+03 0.  0.
<mgrwt>
<rscale>  2 0.43519870E+03</rscale>
<asrwt>0</asrwt>
<pdfrwt beam="1">  1       21 0.22668025E-01 0.43519870E+03</pdfrwt>
<pdfrwt beam="2">  1       21 0.45173495E-01 0.43519870E+03</pdfrwt>
<totfact> 0.79925660E+04</totfact>
</mgrwt>
</event>
<event>
 7    0  0.4737014E-002  0.4650246E+03  0.7546771E-02  0.1023334E+00
         21   -1    0    0  502  501  0.00000000000E+00  0.00000000000E+00  0.58931516409E+03  0.58931516409E+03  0.00000000000E+00 0. -1.
         21   -1    0    0  501  502 -0.00000000000E+00 -0.00000000000E+00 -0.91736922246E+02  0.91736922246E+02  0.00000000000E+00 0. -1.
      99926    2    1    2    0    0  0.00000000000E+00  0.00000000000E+00  0.49757824184E+03  0.68105208633E+03  0.46502455585E+03 0.  0.
      99925    2    3    3    0    0  0.48757282149E+02 -0.91230515460E+02  0.21468450161E+03  0.35489774269E+03  0.26298800927E+03 0.  0.
         25    1    4    4    0    0  0.72173817043E+01 -0.67881217425E+02  0.14761116885E+03  0.20517435402E+03  0.12509000000E+03 0.  0.
         25    1    3    3    0    0 -0.48757282149E+02  0.91230515460E+02  0.28289374023E+03  0.32615434364E+03  0.12509000000E+03 0.  0.
         25    1    4    4    0    0  0.41539900445E+02 -0.23349298034E+02  0.67073332753E+02  0.14972338867E+03  0.12509000000E+03 0.  0.
<mgrwt>
<rscale>  2 0.46502456E+03</rscale>
<asrwt>0</asrwt>
<pdfrwt beam="1">  1       21 0.86663993E-01 0.46502456E+03</pdfrwt>
<pdfrwt beam="2">  1       21 0.13490724E-01 0.46502456E+03</pdfrwt>
<totfact> 0.49885251E+04</totfact>
</mgrwt>
</event>
<event>
 7    0  0.4737014E-002  0.4680538E+03  0.7546771E-02  0.1022471E+00
         21   -1    0    0  502  501  0.00000000000E+00  0.00000000000E+00  0.56404565634E+03  0.56404565634E+03  0.00000000000E+00 0.  1.
         21   -1    0    0  501  502 -0.00000000000E+00 -0.00000000000E+00 -0.97099585778E+02  0.97099585778E+02  0.00000000000E+00 0.  1.
      99926    2    1    2    0    0  0.00000000000E+00  0.00000000000E+00  0.46694607056E+03  0.66114524211E+03  0.46805384130E+03 0.  0.
      99925    2    3    3    0    0 -0.80395853299E+02  0.95323805901E+02  0.30229794047E+03  0.41967757131E+03  0.26304961101E+03 0.  0.
         25    1    4    4    0    0 -0.46027468981E+01  0.27159996314E+02  0.15619208012E+03  0.20199585310E+03  0.12509000000E+03 0.  0.
         25    1    4    4    0    0 -0.75793106401E+02  0.68163809587E+02  0.14610586035E+03  0.21768171821E+03  0.12509000000E+03 0.  0.
         25    1    3    3    0    0  0.80395853299E+02 -0.95323805901E+02  0.16464813009E+03  0.24146767080E+03  0.12509000000E+03 0.  0.
<mgrwt>
<rscale>  2 0.46805384E+03</rscale>
<asrwt>0</asrwt>
<pdfrwt beam="1">  1       21 0.82947889E-01 0.46805384E+03</pdfrwt>
<pdfrwt beam="2">  1       21 0.14279351E-01 0.46805384E+03</pdfrwt>
<totfact> 0.49741534E+04</totfact>
</mgrwt>
</event>
<event>
 7    0  0.4737014E-002  0.4521021E+03  0.7546771E-02  0.1027097E+00
         21   -1    0    0  502  501  0.00000000000E+00  0.00000000000E+00  0.10039802978E+03  0.10039802978E+03  0.00000000000E+00 0. -1.
         21   -1    0    0  501  502 -0.00000000000E+00 -0.00000000000E+00 -0.50896493999E+03  0.50896493999E+03  0.00000000000E+00 0. -1.
      99926    2    1    2    0    0 -0.35527136788E-14  0.00000000000E+00 -0.40856691021E+03  0.60936296978E+03  0.45210209999E+03 0.  0.
      99925    2    3    3    0    0 -0.30962179022E+02 -0.51714544752E+02 -0.13316785061E+03  0.30093923399E+03  0.26305454842E+03 0.  0.
         25    1    3    3    0    0  0.30962179022E+02  0.51714544752E+02 -0.27539905960E+03  0.30842373579E+03  0.12509000000E+03 0.  0.
         25    1    4    4    0    0  0.18759315222E+02 -0.24534625506E+01 -0.64214368312E+02  0.14187644126E+03  0.12509000000E+03 0.  0.
         25    1    4    4    0    0 -0.49721494244E+02 -0.49261082201E+02 -0.68953482302E+02  0.15906279273E+03  0.12509000000E+03 0.  0.
<mgrwt>
<rscale>  2 0.45210210E+03</rscale>
<asrwt>0</asrwt>
<pdfrwt beam="1">  1       21 0.14764417E-01 0.45210210E+03</pdfrwt>
<pdfrwt beam="2">  1       21 0.74847783E-01 0.45210210E+03</pdfrwt>
<totfact> 0.59454927E+04</totfact>
</mgrwt>
</event>
<event>
 7    0  0.4737014E-002  0.4220393E+03  0.7546771E-02  0.1036405E+00
         21   -1    0    0  502  501  0.00000000000E+00  0.00000000000E+00  0.16985031956E+03  0.16985031956E+03  0.00000000000E+00 0.  1.
         21   -1    0    0  501  502 -0.00000000000E+00 -0.00000000000E+00 -0.26216786983E+03  0.26216786983E+03  0.00000000000E+00 0.  1.
      99926    2    1    2    0    0  0.35527136788E-14  0.71054273576E-14 -0.92317550267E+02  0.43201818939E+03  0.42203931793E+03 0.  0.
      99925    2    3    3    0    0 -0.17534971850E+02 -0.58783473729E+02 -0.10306054599E+02  0.27035073582E+03  0.26309757425E+03 0.  0.
         25    1    4    4    0    0  0.34855512772E+01 -0.37017728333E+02  0.32920958243E+02  0.13458736520E+03  0.12509000000E+03 0.  0.
         25    1    4    4    0    0 -0.21020523127E+02 -0.21765745396E+02 -0.43227012842E+02  0.13576337063E+03  0.12509000000E+03 0.  0.
         25    1    3    3    0    0  0.17534971850E+02  0.58783473729E+02 -0.82011495668E+02  0.16166745357E+03  0.12509000000E+03 0.  0.
<mgrwt>
<rscale>  2 0.42203932E+03</rscale>
<asrwt>0</asrwt>
<pdfrwt beam="1">  1       21 0.24977988E-01 0.42203932E+03</pdfrwt>
<pdfrwt beam="2">  1       21 0.38554098E-01 0.42203932E+03</pdfrwt>
<totfact> 0.92214726E+04</totfact>
</mgrwt>
</event>
<event>
 7    0  0.4737014E-002  0.4637406E+03  0.7546771E-02  0.1023702E+00
         21   -1    0    0  502  501  0.00000000000E+00  0.00000000000E+00  0.13957173979E+03  0.13957173979E+03  0.00000000000E+00 0.  1.
         21   -1    0    0  501  502 -0.00000000000E+00 -0.00000000000E+00 -0.38520576030E+03  0.38520576030E+03  0.00000000000E+00 0.  1.
      99926    2    1    2    0    0  0.71054273576E-14  0.00000000000E+00 -0.24563402051E+03  0.52477750009E+03  0.46374060914E+03 0.  0.
      99925    2    3    3    0    0  0.38480070826E+02  0.11848624723E+02 -0.25319631794E+02  0.26824866402E+03  0.26399840196E+03 0.  0.
         25    1    4    4    0    0  0.52644235122E+02  0.86034032719E+01 -0.39274722414E+02  0.14154662115E+03  0.12509000000E+03 0.  0.
         25    1    4    4    0    0 -0.14164164296E+02  0.32452214514E+01  0.13955090620E+02  0.12670204287E+03  0.12509000000E+03 0.  0.
         25    1    3    3    0    0 -0.38480070826E+02 -0.11848624723E+02 -0.22031438871E+03  0.25652883607E+03  0.12509000000E+03 0.  0.
<mgrwt>
<rscale>  2 0.46374061E+03</rscale>
<asrwt>0</asrwt>
<pdfrwt beam="1">  1       21 0.20525256E-01 0.46374061E+03</pdfrwt>
<pdfrwt beam="2">  1       21 0.56647906E-01 0.46374061E+03</pdfrwt>
<totfact> 0.59339840E+04</totfact>
</mgrwt>
</event>
<event>
 6    0  0.5917648E-002  0.4319134E+03  0.7546771E-02  0.1033257E+00
         21   -1    0    0  502  501  0.00000000000E+00  0.00000000000E+00  0.85351195992E+02  0.85351195992E+02  0.00000000000E+00 0. -1.
         21   -1    0    0  501  502 -0.00000000000E+00 -0.00000000000E+00 -0.54641641453E+03  0.54641641453E+03  0.00000000000E+00 0. -1.
      99926    2    1    2    0    0  0.14210854715E-13  0.44408920985E-15 -0.46106521854E+03  0.63176761053E+03  0.43191339174E+03 0.  0.
         25    1    3    3    0    0 -0.14675294247E+02 -0.26807249912E+02 -0.20735370912E+03  0.24408412832E+03  0.12509000000E+03 0.  0.
         25    1    3    3    0    0 -0.66661846407E+02  0.24575893291E+02 -0.12086727229E+03  0.18789407097E+03  0.12509000000E+03 0.  0.
         25    1    3    3    0    0  0.81337140654E+02  0.22313566213E+01 -0.13284423713E+03  0.19978941123E+03  0.12509000000E+03 0.  0.
<mgrwt>
<rscale>  2 0.43191339E+03</rscale>
<asrwt>0</asrwt>
<pdfrwt beam="1">  1       21 0.12551647E-01 0.43191339E+03</pdfrwt>
<pdfrwt beam="2">  1       21 0.80355354E-01 0.43191339E+03</pdfrwt>
<totfact> 0.68398730E+04</totfact>
</mgrwt>
</event>
<event>
 7    0  0.4737014E-002  0.4493572E+03  0.7546771E-02  0.1027914E+00
         21   -1    0    0  502  501  0.00000000000E+00  0.00000000000E+00  0.11484993397E+04  0.11484993397E+04  0.00000000000E+00 0.  1.
         21   -1    0    0  501  502 -0.00000000000E+00 -0.00000000000E+00 -0.43953412897E+02  0.43953412897E+02  0.00000000000E+00 0.  1.
      99926    2    1    2    0    0  0.00000000000E+00  0.00000000000E+00  0.11045459268E+04  0.11924527526E+04  0.44935716615E+03 0.  0.
      99925    2    3    3    0    0  0.73253627163E+02  0.19405658046E+02  0.49630766218E+03  0.56687784253E+03  0.26322332601E+03 0.  0.
         25    1    3    3    0    0 -0.73253627163E+02 -0.19405658046E+02  0.60823826466E+03  0.62557491010E+03  0.12509000000E+03 0.  0.
         25    1    4    4    0    0  0.21423671002E+02  0.14316917801E+02  0.31979486400E+03  0.34435477484E+03  0.12509000000E+03 0.  0.
         25    1    4    4    0    0  0.51829956161E+02  0.50887402455E+01  0.17651279819E+03  0.22252306770E+03  0.12509000000E+03 0.  0.
<mgrwt>
<rscale>  2 0.44935717E+03</rscale>
<asrwt>0</asrwt>
<pdfrwt beam="1">  1       21 0.16889694E+00 0.44935717E+03</pdfrwt>
<pdfrwt beam="2">  1       21 0.64637380E-02 0.44935717E+03</pdfrwt>
<totfact> 0.33860267E+04</totfact>
</mgrwt>
</event>
<event>
 7    0  0.4737014E-002  0.4515150E+03  0.7546771E-02  0.1027271E+00
         21   -1    0    0  502  501  0.00000000000E+00  0.00000000000E+00  0.27836181133E+03  0.27836181133E+03  0.00000000000E+00 0. -1.
         21   -1    0    0  501  502 -0.00000000000E+00 -0.00000000000E+00 -0.18309424739E+03  0.18309424739E+03  0.00000000000E+00 0. -1.
      99926    2    1    2    0    0  0.00000000000E+00  0.35527136788E-14  0.95267563944E+02  0.46145605871E+03  0.45151498910E+03 0.  0.
      99925    2    3    3    0    0  0.93340284893E+02  0.21544853903E+02  0.50295729511E+01  0.27988790999E+03  0.26293603032E+03 0.  0.
         25    1    4    4    0    0  0.88515474940E+02  0.49625955694E+01 -0.30799345801E+01  0.15335126591E+03  0.12509000000E+03 0.  0.
         25    1    3    3    0    0 -0.93340284893E+02 -0.21544853903E+02  0.90237990993E+02  0.18156814873E+03  0.12509000000E+03 0.  0.
         25    1    4    4    0    0  0.48248099530E+01  0.16582258334E+02  0.81095075312E+01  0.12653664408E+03  0.12509000000E+03 0.  0.
<mgrwt>
<rscale>  2 0.45151499E+03</rscale>
<asrwt>0</asrwt>
<pdfrwt beam="1">  1       21 0.40935561E-01 0.45151499E+03</pdfrwt>
<pdfrwt beam="2">  1       21 0.26925624E-01 0.45151499E+03</pdfrwt>
<totfact> 0.69992029E+04</totfact>
</mgrwt>
</event>
<event>
 7    0  0.4737014E-002  0.4575090E+03  0.7546771E-02  0.1025506E+00
         21   -1    0    0  502  501  0.00000000000E+00  0.00000000000E+00  0.77886123741E+03  0.77886123741E+03  0.00000000000E+00 0.  1.
         21   -1    0    0  501  502 -0.00000000000E+00 -0.00000000000E+00 -0.67186066975E+02  0.67186066975E+02  0.00000000000E+00 0.  1.
      99926    2    1    2    0    0  0.17763568394E-14 -0.14210854715E-13  0.71167517044E+03  0.84604730439E+03  0.45750900870E+03 0.  0.
      99925    2    3    3    0    0  0.11317505282E+02 -0.64719632961E+02  0.27129304102E+03  0.38355336407E+03  0.26305237534E+03 0.  0.
         25    1    4    4    0    0  0.39603371576E+02 -0.11043362658E+02  0.14279103567E+03  0.19423483433E+03  0.12509000000E+03 0.  0.
         25    1    4    4    0    0 -0.28285866293E+02 -0.53676270303E+02  0.12850200534E+03  0.18931852974E+03  0.12509000000E+03 0.  0.
         25    1    3    3    0    0 -0.11317505282E+02  0.64719632961E+02  0.44038212942E+03  0.46249394032E+03  0.12509000000E+03 0.  0.
<mgrwt>
<rscale>  2 0.45750901E+03</rscale>
<asrwt>0</asrwt>
<pdfrwt beam="1">  1       21 0.11453841E+00 0.45750901E+03</pdfrwt>
<pdfrwt beam="2">  1       21 0.98803044E-02 0.45750901E+03</pdfrwt>
<totfact> 0.44729780E+04</totfact>
</mgrwt>
</event>
<event>
 7    0  0.4737014E-002  0.4576849E+03  0.7546771E-02  0.1025455E+00
         21   -1    0    0  502  501  0.00000000000E+00  0.00000000000E+00  0.28413712491E+03  0.28413712491E+03  0.00000000000E+00 0.  1.
         21   -1    0    0  501  502 -0.00000000000E+00 -0.00000000000E+00 -0.18430840649E+03  0.18430840649E+03  0.00000000000E+00 0.  1.
      99926    2    1    2    0    0 -0.14210854715E-13 -0.71054273576E-14  0.99828718421E+02  0.46844553140E+03  0.45768487289E+03 0.  0.
      99925    2    3    3    0    0  0.10357435381E+03  0.42463880051E+02  0.32800468190E+02  0.28769398285E+03  0.26298503603E+03 0.  0.
         25    1    4    4    0    0  0.54511325601E+02  0.62191013231E+02  0.20009868340E+02  0.15128486268E+03  0.12509000000E+03 0.  0.
         25    1    4    4    0    0  0.49063028210E+02 -0.19727133180E+02  0.12790599850E+02  0.13640912017E+03  0.12509000000E+03 0.  0.
         25    1    3    3    0    0 -0.10357435381E+03 -0.42463880051E+02  0.67028250231E+02  0.18075154856E+03  0.12509000000E+03 0.  0.
<mgrwt>
<rscale>  2 0.45768487E+03</rscale>
<asrwt>0</asrwt>
<pdfrwt beam="1">  1       21 0.41784871E-01 0.45768487E+03</pdfrwt>
<pdfrwt beam="2">  1       21 0.27104177E-01 0.45768487E+03</pdfrwt>
<totfact> 0.66132294E+04</totfact>
</mgrwt>
</event>
<event>
 7    0  0.4737014E-002  0.4449029E+03  0.7546771E-02  0.1029253E+00
         21   -1    0    0  502  501  0.00000000000E+00  0.00000000000E+00  0.32799793915E+03  0.32799793915E+03  0.00000000000E+00 0. -1.
         21   -1    0    0  501  502 -0.00000000000E+00 -0.00000000000E+00 -0.15086877989E+03  0.15086877989E+03  0.00000000000E+00 0. -1.
      99926    2    1    2    0    0  0.71054273576E-14 -0.35527136788E-14  0.17712915926E+03  0.47886671905E+03  0.44490290576E+03 0.  0.
      99925    2    3    3    0    0  0.42730172401E+02 -0.29369519489E+02  0.16205974730E+02  0.26855215529E+03  0.26300036157E+03 0.  0.
         25    1    4    4    0    0  0.50997473380E+02 -0.43414988462E+02  0.67750956919E+01  0.14205285473E+03  0.12509000000E+03 0.  0.
         25    1    3    3    0    0 -0.42730172401E+02  0.29369519489E+02  0.16092318453E+03  0.21031456376E+03  0.12509000000E+03 0.  0.
         25    1    4    4    0    0 -0.82673009786E+01  0.14045468973E+02  0.94308790377E+01  0.12649930057E+03  0.12509000000E+03 0.  0.
<mgrwt>
<rscale>  2 0.44490291E+03</rscale>
<asrwt>0</asrwt>
<pdfrwt beam="1">  1       21 0.48234991E-01 0.44490291E+03</pdfrwt>
<pdfrwt beam="2">  1       21 0.22186585E-01 0.44490291E+03</pdfrwt>
<totfact> 0.72415258E+04</totfact>
</mgrwt>
</event>
<event>
 7    0  0.4737014E-002  0.4564016E+03  0.7546771E-02  0.1025830E+00
         21   -1    0    0  502  501  0.00000000000E+00  0.00000000000E+00  0.14799073177E+03  0.14799073177E+03  0.00000000000E+00 0. -1.
         21   -1    0    0  501  502 -0.00000000000E+00 -0.00000000000E+00 -0.35188422716E+03  0.35188422716E+03  0.00000000000E+00 0. -1.
      99926    2    1    2    0    0  0.00000000000E+00 -0.83266726847E-16 -0.20389349539E+03  0.49987495893E+03  0.45640159630E+03 0.  0.
      99925    2    3    3    0    0  0.73058129087E+02  0.89902457032E-01 -0.31597092441E+02  0.27477263358E+03  0.26299073293E+03 0.  0.
         25    1    4    4    0    0  0.78247328973E+02  0.47320215127E+01 -0.19528961619E+02  0.14890911645E+03  0.12509000000E+03 0.  0.
         25    1    3    3    0    0 -0.73058129087E+02 -0.89902457032E-01 -0.17229640294E+03  0.22510232535E+03  0.12509000000E+03 0.  0.
         25    1    4    4    0    0 -0.51891998861E+01 -0.46421190557E+01 -0.12068130822E+02  0.12586351714E+03  0.12509000000E+03 0.  0.
<mgrwt>
<rscale>  2 0.45640160E+03</rscale>
<asrwt>0</asrwt>
<pdfrwt beam="1">  1       21 0.21763343E-01 0.45640160E+03</pdfrwt>
<pdfrwt beam="2">  1       21 0.51747680E-01 0.45640160E+03</pdfrwt>
<totfact> 0.64558170E+04</totfact>
</mgrwt>
</event>
<event>
 7    0  0.4737014E-002  0.4578425E+03  0.7546771E-02  0.1025409E+00
         21   -1    0    0  502  501  0.00000000000E+00  0.00000000000E+00  0.63992358253E+03  0.63992358253E+03  0.00000000000E+00 0.  1.
         21   -1    0    0  501  502 -0.00000000000E+00 -0.00000000000E+00 -0.81892479232E+02  0.81892479232E+02  0.00000000000E+00 0.  1.
      99926    2    1    2    0    0  0.00000000000E+00  0.00000000000E+00  0.55803110330E+03  0.72181606176E+03  0.45784245628E+03 0.  0.
      99925    2    3    3    0    0  0.91471943559E+02 -0.34128679000E+02  0.44784416178E+03  0.52863077927E+03  0.26335190215E+03 0.  0.
         25    1    4    4    0    0  0.72943049420E+02 -0.34511497157E+02  0.29355635538E+03  0.32914217867E+03  0.12509000000E+03 0.  0.
         25    1    3    3    0    0 -0.91471943559E+02  0.34128679000E+02  0.11018694152E+03  0.19318528249E+03  0.12509000000E+03 0.  0.
         25    1    4    4    0    0  0.18528894140E+02  0.38281815675E+00  0.15428780639E+03  0.19948860060E+03  0.12509000000E+03 0.  0.
<mgrwt>
<rscale>  2 0.45784246E+03</rscale>
<asrwt>0</asrwt>
<pdfrwt beam="1">  1       21 0.94106406E-01 0.45784246E+03</pdfrwt>
<pdfrwt beam="2">  1       21 0.12043012E-01 0.45784246E+03</pdfrwt>
<totfact> 0.50593853E+04</totfact>
</mgrwt>
</event>
<event>
 7    0  0.4737014E-002  0.4541897E+03  0.7546771E-02  0.1026480E+00
         21   -1    0    0  502  501  0.00000000000E+00  0.00000000000E+00  0.60638819117E+03  0.60638819117E+03  0.00000000000E+00 0.  1.
         21   -1    0    0  501  502 -0.00000000000E+00 -0.00000000000E+00 -0.85047930023E+02  0.85047930023E+02  0.00000000000E+00 0.  1.
      99926    2    1    2    0    0  0.00000000000E+00 -0.71054273576E-14  0.52134026115E+03  0.69143612119E+03  0.45418965400E+03 0.  0.
      99925    2    3    3    0    0 -0.66578342360E+02  0.34421945599E+02  0.45580410392E+03  0.53156103866E+03  0.26302511413E+03 0.  0.
         25    1    4    4    0    0  0.32549191641E+01  0.33299265822E+02  0.23597892028E+03  0.26917093922E+03  0.12509000000E+03 0.  0.
         25    1    3    3    0    0  0.66578342360E+02 -0.34421945599E+02  0.65536157232E+02  0.15987508253E+03  0.12509000000E+03 0.  0.
         25    1    4    4    0    0 -0.69833261524E+02  0.11226797767E+01  0.21982518363E+03  0.26239009944E+03  0.12509000000E+03 0.  0.
<mgrwt>
<rscale>  2 0.45418965E+03</rscale>
<asrwt>0</asrwt>
<pdfrwt beam="1">  1       21 0.89174732E-01 0.45418965E+03</pdfrwt>
<pdfrwt beam="2">  1       21 0.12507049E-01 0.45418965E+03</pdfrwt>
<totfact> 0.53712267E+04</totfact>
</mgrwt>
</event>
<event>
 7    0  0.4737014E-002  0.4839506E+03  0.7546771E-02  0.1018055E+00
         21   -1    0    0  502  501  0.00000000000E+00  0.00000000000E+00  0.11808384210E+03  0.11808384210E+03  0.00000000000E+00 0. -1.
         21   -1    0    0  501  502 -0.00000000000E+00 -0.00000000000E+00 -0.49585146058E+03  0.49585146058E+03  0.00000000000E+00 0. -1.
      99926    2    1    2    0    0  0.00000000000E+00 -0.35527136788E-14 -0.37776761848E+03  0.61393530268E+03  0.48395059903E+03 0.  0.
      99925    2    3    3    0    0  0.22027139595E+02 -0.31759957177E+02 -0.40090133184E+03  0.48098205318E+03  0.26292198054E+03 0.  0.
         25    1    4    4    0    0  0.10057637847E+02  0.23268662354E+02 -0.21339415405E+03  0.24865067828E+03  0.12509000000E+03 0.  0.
         25    1    3    3    0    0 -0.22027139595E+02  0.31759957177E+02  0.23133713358E+02  0.13295324950E+03  0.12509000000E+03 0.  0.
         25    1    4    4    0    0  0.11969501748E+02 -0.55028619531E+02 -0.18750717779E+03  0.23233137490E+03  0.12509000000E+03 0.  0.
<mgrwt>
<rscale>  2 0.48395060E+03</rscale>
<asrwt>0</asrwt>
<pdfrwt beam="1">  1       21 0.17365271E-01 0.48395060E+03</pdfrwt>
<pdfrwt beam="2">  1       21 0.72919333E-01 0.48395060E+03</pdfrwt>
<totfact> 0.46297036E+04</totfact>
</mgrwt>
</event>
<event>
 7    0  0.4737014E-002  0.4512174E+03  0.7546771E-02  0.1027360E+00
         21   -1    0    0  502  501  0.00000000000E+00  0.00000000000E+00  0.49289092320E+03  0.49289092320E+03  0.00000000000E+00 0.  1.
         21   -1    0    0  501  502 -0.00000000000E+00 -0.00000000000E+00 -0.10326684613E+03  0.10326684613E+03  0.00000000000E+00 0.  1.
      99926    2    1    2    0    0  0.44408920985E-15  0.00000000000E+00  0.38962407707E+03  0.59615776932E+03  0.45121742486E+03 0.  0.
      99925    2    3    3    0    0 -0.26900550763E+01 -0.83995824077E+02  0.33901799905E+03  0.43718916207E+03  0.26294224631E+03 0.  0.
         25    1    4    4    0    0 -0.19098448185E+02 -0.76703144378E+02  0.15853060194E+03  0.21685843984E+03  0.12509000000E+03 0.  0.
         25    1    3    3    0    0  0.26900550763E+01  0.83995824077E+02  0.50606078017E+02  0.15896860725E+03  0.12509000000E+03 0.  0.
         25    1    4    4    0    0  0.16408393109E+02 -0.72926796997E+01  0.18048739712E+03  0.22033072223E+03  0.12509000000E+03 0.  0.
<mgrwt>
<rscale>  2 0.45121742E+03</rscale>
<asrwt>0</asrwt>
<pdfrwt beam="1">  1       21 0.72483958E-01 0.45121742E+03</pdfrwt>
<pdfrwt beam="2">  1       21 0.15186301E-01 0.45121742E+03</pdfrwt>
<totfact> 0.60709753E+04</totfact>
</mgrwt>
</event>
<event>
 7    0  0.4737014E-002  0.4568167E+03  0.7546771E-02  0.1025709E+00
         21   -1    0    0  502  501  0.00000000000E+00  0.00000000000E+00  0.52322357910E+03  0.52322357910E+03  0.00000000000E+00 0. -1.
         21   -1    0    0  501  502 -0.00000000000E+00 -0.00000000000E+00 -0.99709519845E+02  0.99709519845E+02  0.00000000000E+00 0. -1.
      99926    2    1    2    0    0 -0.71054273576E-14  0.00000000000E+00  0.42351405926E+03  0.62293309895E+03  0.45681668903E+03 0.  0.
      99925    2    3    3    0    0 -0.38391707141E+02 -0.49598072825E+02  0.13790705984E+03  0.30488788483E+03  0.26458339547E+03 0.  0.
         25    1    4    4    0    0 -0.57219803804E+02 -0.35742113264E+02  0.51945324868E+02  0.15131896604E+03  0.12509000000E+03 0.  0.
         25    1    3    3    0    0  0.38391707141E+02  0.49598072825E+02  0.28560699942E+03  0.31804521412E+03  0.12509000000E+03 0.  0.
         25    1    4    4    0    0  0.18828096663E+02 -0.13855959561E+02  0.85961734968E+02  0.15356891879E+03  0.12509000000E+03 0.  0.
<mgrwt>
<rscale>  2 0.45681669E+03</rscale>
<asrwt>0</asrwt>
<pdfrwt beam="1">  1       21 0.76944643E-01 0.45681669E+03</pdfrwt>
<pdfrwt beam="2">  1       21 0.14663165E-01 0.45681669E+03</pdfrwt>
<totfact> 0.56473967E+04</totfact>
</mgrwt>
</event>
<event>
 7    0  0.4737014E-002  0.4602813E+03  0.7546771E-02  0.1024700E+00
         21   -1    0    0  502  501  0.00000000000E+00  0.00000000000E+00  0.68554195367E+03  0.68554195367E+03  0.00000000000E+00 0.  1.
         21   -1    0    0  501  502 -0.00000000000E+00 -0.00000000000E+00 -0.77259642562E+02  0.77259642562E+02  0.00000000000E+00 0.  1.
      99926    2    1    2    0    0 -0.71054273576E-14  0.00000000000E+00  0.60828231111E+03  0.76280159623E+03  0.46028133267E+03 0.  0.
      99925    2    3    3    0    0  0.51889025604E+02 -0.81642265092E+02  0.26889572595E+03  0.38838379122E+03  0.26301925294E+03 0.  0.
         25    1    4    4    0    0  0.55521162417E+02 -0.36789616583E+02  0.17715030381E+03  0.22686078023E+03  0.12509000000E+03 0.  0.
         25    1    4    4    0    0 -0.36321368128E+01 -0.44852648509E+02  0.91745422141E+02  0.16152301099E+03  0.12509000000E+03 0.  0.
         25    1    3    3    0    0 -0.51889025604E+02  0.81642265092E+02  0.33938658516E+03  0.37441780502E+03  0.12509000000E+03 0.  0.
<mgrwt>
<rscale>  2 0.46028133E+03</rscale>
<asrwt>0</asrwt>
<pdfrwt beam="1">  1       21 0.10081499E+00 0.46028133E+03</pdfrwt>
<pdfrwt beam="2">  1       21 0.11361713E-01 0.46028133E+03</pdfrwt>
<totfact> 0.47611351E+04</totfact>
</mgrwt>
</event>
<event>
 7    0  0.4737014E-002  0.4462840E+03  0.7546771E-02  0.1028836E+00
         21   -1    0    0  502  501  0.00000000000E+00  0.00000000000E+00  0.26176184049E+03  0.26176184049E+03  0.00000000000E+00 0.  1.
         21   -1    0    0  501  502 -0.00000000000E+00 -0.00000000000E+00 -0.19022003459E+03  0.19022003459E+03  0.00000000000E+00 0.  1.
      99926    2    1    2    0    0 -0.14210854715E-13  0.71054273576E-14  0.71541805900E+02  0.45198187507E+03  0.44628397395E+03 0.  0.
      99925    2    3    3    0    0  0.83436547844E+02 -0.63298787379E+02  0.49344214844E+02  0.28733487343E+03  0.26297924624E+03 0.  0.
         25    1    4    4    0    0  0.15896533572E+02 -0.79100665918E+01  0.46837093513E+02  0.13474602169E+03  0.12509000000E+03 0.  0.
         25    1    4    4    0    0  0.67540014272E+02 -0.55388720787E+02  0.25071213317E+01  0.15258885174E+03  0.12509000000E+03 0.  0.
         25    1    3    3    0    0 -0.83436547844E+02  0.63298787379E+02  0.22197591056E+02  0.16464700164E+03  0.12509000000E+03 0.  0.
<mgrwt>
<rscale>  2 0.44628397E+03</rscale>
<asrwt>0</asrwt>
<pdfrwt beam="1">  1       21 0.38494388E-01 0.44628397E+03</pdfrwt>
<pdfrwt beam="2">  1       21 0.27973534E-01 0.44628397E+03</pdfrwt>
<totfact> 0.73764126E+04</totfact>
</mgrwt>
</event>
<event>
 7    0  0.4737014E-002  0.4570206E+03  0.7546771E-02  0.1025649E+00
         21   -1    0    0  502  501  0.00000000000E+00  0.00000000000E+00  0.28052630678E+03  0.28052630678E+03  0.00000000000E+00 0.  1.
         21   -1    0    0  501  502 -0.00000000000E+00 -0.00000000000E+00 -0.18613927227E+03  0.18613927227E+03  0.00000000000E+00 0.  1.
      99926    2    1    2    0    0  0.35527136788E-14  0.00000000000E+00  0.94387034508E+02  0.46666557905E+03  0.45702062359E+03 0.  0.
      99925    2    3    3    0    0  0.27511154547E+02 -0.92174997717E+02 -0.53545716232E+01  0.27998673739E+03  0.26288934526E+03 0.  0.
         25    1    4    4    0    0 -0.12337837877E+02 -0.76422603994E+02  0.63598943849E+01  0.14724331225E+03  0.12509000000E+03 0.  0.
         25    1    3    3    0    0 -0.27511154547E+02  0.92174997717E+02  0.99741606131E+02  0.18667884166E+03  0.12509000000E+03 0.  0.
         25    1    4    4    0    0  0.39848992424E+02 -0.15752393723E+02 -0.11714466008E+02  0.13274342514E+03  0.12509000000E+03 0.  0.
<mgrwt>
<rscale>  2 0.45702062E+03</rscale>
<asrwt>0</asrwt>
<pdfrwt beam="1">  1       21 0.41253869E-01 0.45702062E+03</pdfrwt>
<pdfrwt beam="2">  1       21 0.27373422E-01 0.45702062E+03</pdfrwt>
<totfact> 0.66610463E+04</totfact>
</mgrwt>
</event>
<event>
 7    0  0.4737014E-002  0.4585911E+03  0.7546771E-02  0.1025191E+00
         21   -1    0    0  502  501  0.00000000000E+00  0.00000000000E+00  0.14569326305E+03  0.14569326305E+03  0.00000000000E+00 0.  1.
         21   -1    0    0  501  502 -0.00000000000E+00 -0.00000000000E+00 -0.36087081339E+03  0.36087081339E+03  0.00000000000E+00 0.  1.
      99926    2    1    2    0    0 -0.14210854715E-13  0.00000000000E+00 -0.21517755033E+03  0.50656407644E+03  0.45859108732E+03 0.  0.
      99925    2    3    3    0    0  0.88596746671E+02 -0.70393482985E+02 -0.10385756648E+03  0.30446441570E+03  0.26288316862E+03 0.  0.
         25    1    4    4    0    0  0.46548938450E+02 -0.74925528263E+02 -0.68994160154E+02  0.16789383756E+03  0.12509000000E+03 0.  0.
         25    1    4    4    0    0  0.42047808221E+02  0.45320452785E+01 -0.34863406330E+02  0.13657057813E+03  0.12509000000E+03 0.  0.
         25    1    3    3    0    0 -0.88596746671E+02  0.70393482985E+02 -0.11131998385E+03  0.20209966074E+03  0.12509000000E+03 0.  0.
<mgrwt>
<rscale>  2 0.45859109E+03</rscale>
<asrwt>0</asrwt>
<pdfrwt beam="1">  1       21 0.21425480E-01 0.45859109E+03</pdfrwt>
<pdfrwt beam="2">  1       21 0.53069237E-01 0.45859109E+03</pdfrwt>
<totfact> 0.62997037E+04</totfact>
</mgrwt>
</event>
<event>
 7    0  0.4737014E-002  0.4553863E+03  0.7546771E-02  0.1026128E+00
         21   -1    0    0  502  501  0.00000000000E+00  0.00000000000E+00  0.16200650331E+02  0.16200650331E+02  0.00000000000E+00 0. -1.
         21   -1    0    0  501  502 -0.00000000000E+00 -0.00000000000E+00 -0.32001296282E+04  0.32001296282E+04  0.00000000000E+00 0. -1.
      99926    2    1    2    0    0 -0.35527136788E-14  0.71054273576E-14 -0.31839289779E+04  0.32163302785E+04  0.45538634640E+03 0.  0.
      99925    2    3    3    0    0  0.70177438380E+01 -0.37322158110E+02 -0.12466577243E+04  0.12746532688E+04  0.26295110159E+03 0.  0.
         25    1    4    4    0    0 -0.27286982452E+02 -0.10791791847E+02 -0.73490719363E+03  0.74605437706E+03  0.12509000000E+03 0.  0.
         25    1    3    3    0    0 -0.70177438380E+01  0.37322158110E+02 -0.19372712536E+04  0.19416770097E+04  0.12509000000E+03 0.  0.
         25    1    4    4    0    0  0.34304726290E+02 -0.26530366263E+02 -0.51175053068E+03  0.52859889173E+03  0.12509000000E+03 0.  0.
<mgrwt>
<rscale>  2 0.45538635E+03</rscale>
<asrwt>0</asrwt>
<pdfrwt beam="1">  1       21 0.23824464E-02 0.45538635E+03</pdfrwt>
<pdfrwt beam="2">  1       21 0.47060772E+00 0.45538635E+03</pdfrwt>
<totfact> 0.22059234E+03</totfact>
</mgrwt>
</event>
<event>
 7    0  0.4737014E-002  0.4503611E+03  0.7546771E-02  0.1027614E+00
         21   -1    0    0  502  501  0.00000000000E+00  0.00000000000E+00  0.64766300662E+02  0.64766300662E+02  0.00000000000E+00 0. -1.
         21   -1    0    0  501  502 -0.00000000000E+00 -0.00000000000E+00 -0.78291133680E+03  0.78291133680E+03  0.00000000000E+00 0. -1.
      99926    2    1    2    0    0  0.00000000000E+00  0.14210854715E-13 -0.71814503614E+03  0.84767763746E+03  0.45036105973E+03 0.  0.
      99925    2    3    3    0    0 -0.90559405549E+02 -0.56480587065E+02 -0.49452747495E+03  0.57011073666E+03  0.26282649396E+03 0.  0.
         25    1    4    4    0    0 -0.35544291731E+02  0.12411813047E+02 -0.22729816547E+03  0.26216295295E+03  0.12509000000E+03 0.  0.
         25    1    4    4    0    0 -0.55015113818E+02 -0.68892400112E+02 -0.26722930949E+03  0.30794778371E+03  0.12509000000E+03 0.  0.
         25    1    3    3    0    0  0.90559405549E+02  0.56480587065E+02 -0.22361756118E+03  0.27756690080E+03  0.12509000000E+03 0.  0.
<mgrwt>
<rscale>  2 0.45036106E+03</rscale>
<asrwt>0</asrwt>
<pdfrwt beam="1">  1       21 0.95244572E-02 0.45036106E+03</pdfrwt>
<pdfrwt beam="2">  1       21 0.11513400E+00 0.45036106E+03</pdfrwt>
<totfact> 0.47239206E+04</totfact>
</mgrwt>
</event>
<event>
 7    0  0.4737014E-002  0.4131437E+03  0.7546771E-02  0.1039321E+00
         21   -1    0    0  502  501  0.00000000000E+00  0.00000000000E+00  0.98839982715E+02  0.98839982715E+02  0.00000000000E+00 0. -1.
         21   -1    0    0  501  502 -0.00000000000E+00 -0.00000000000E+00 -0.43172743339E+03  0.43172743339E+03  0.00000000000E+00 0. -1.
      99926    2    1    2    0    0  0.00000000000E+00  0.00000000000E+00 -0.33288745067E+03  0.53056741610E+03  0.41314371375E+03 0.  0.
      99925    2    3    3    0    0  0.55629758466E+02  0.19318041182E+02 -0.17740508485E+03  0.32250461087E+03  0.26280944267E+03 0.  0.
         25    1    4    4    0    0 -0.60196092456E+01 -0.11041541324E+02 -0.70102241309E+02  0.14394437699E+03  0.12509000000E+03 0.  0.
         25    1    3    3    0    0 -0.55629758466E+02 -0.19318041182E+02 -0.15548236582E+03  0.20806280524E+03  0.12509000000E+03 0.  0.
         25    1    4    4    0    0  0.61649367712E+02  0.30359582506E+02 -0.10730284354E+03  0.17856023388E+03  0.12509000000E+03 0.  0.
<mgrwt>
<rscale>  2 0.41314371E+03</rscale>
<asrwt>0</asrwt>
<pdfrwt beam="1">  1       21 0.14535292E-01 0.41314371E+03</pdfrwt>
<pdfrwt beam="2">  1       21 0.63489326E-01 0.41314371E+03</pdfrwt>
<totfact> 0.89270374E+04</totfact>
</mgrwt>
</event>
<event>
 7    0  0.4737014E-002  0.4463093E+03  0.7546771E-02  0.1028828E+00
         21   -1    0    0  502  501  0.00000000000E+00  0.00000000000E+00  0.12967066152E+03  0.12967066152E+03  0.00000000000E+00 0.  1.
         21   -1    0    0  501  502 -0.00000000000E+00 -0.00000000000E+00 -0.38403444495E+03  0.38403444495E+03  0.00000000000E+00 0.  1.
      99926    2    1    2    0    0  0.00000000000E+00  0.00000000000E+00 -0.25436378343E+03  0.51370510647E+03  0.44630931213E+03 0.  0.
      99925    2    3    3    0    0  0.60502245900E+02 -0.66829190641E+02 -0.22394564855E+03  0.35654457227E+03  0.26238467187E+03 0.  0.
         25    1    4    4    0    0  0.27923777924E+02  0.69780792770E+01 -0.96469444241E+02  0.16056865428E+03  0.12509000000E+03 0.  0.
         25    1    3    3    0    0 -0.60502245900E+02  0.66829190641E+02 -0.30418134883E+02  0.15716053420E+03  0.12509000000E+03 0.  0.
         25    1    4    4    0    0  0.32578467976E+02 -0.73807269918E+02 -0.12747620431E+03  0.19597591799E+03  0.12509000000E+03 0.  0.
<mgrwt>
<rscale>  2 0.44630931E+03</rscale>
<asrwt>0</asrwt>
<pdfrwt beam="1">  1       21 0.19069215E-01 0.44630931E+03</pdfrwt>
<pdfrwt beam="2">  1       21 0.56475655E-01 0.44630931E+03</pdfrwt>
<totfact> 0.68951267E+04</totfact>
</mgrwt>
</event>
<event>
 7    0  0.4737014E-002  0.4679462E+03  0.7546771E-02  0.1022501E+00
         21   -1    0    0  502  501  0.00000000000E+00  0.00000000000E+00  0.50116891717E+03  0.50116891717E+03  0.00000000000E+00 0.  1.
         21   -1    0    0  501  502 -0.00000000000E+00 -0.00000000000E+00 -0.10923145489E+03  0.10923145489E+03  0.00000000000E+00 0.  1.
      99926    2    1    2    0    0 -0.71054273576E-14  0.14210854715E-13  0.39193746228E+03  0.61040037206E+03  0.46794619335E+03 0.  0.
      99925    2    3    3    0    0 -0.59622059462E+02  0.81868084248E+02  0.33929250061E+03  0.44105996553E+03  0.26297779190E+03 0.  0.
         25    1    4    4    0    0 -0.63399220196E+02  0.46177544805E+02  0.21709461105E+03  0.26254410108E+03  0.12509000000E+03 0.  0.
         25    1    4    4    0    0  0.37771607342E+01  0.35690539443E+02  0.12219788956E+03  0.17851586446E+03  0.12509000000E+03 0.  0.
         25    1    3    3    0    0  0.59622059462E+02 -0.81868084248E+02  0.52644961678E+02  0.16934040653E+03  0.12509000000E+03 0.  0.
<mgrwt>
<rscale>  2 0.46794619E+03</rscale>
<asrwt>0</asrwt>
<pdfrwt beam="1">  1       21 0.73701311E-01 0.46794619E+03</pdfrwt>
<pdfrwt beam="2">  1       21 0.16063449E-01 0.46794619E+03</pdfrwt>
<totfact> 0.52467484E+04</totfact>
</mgrwt>
</event>
<event>
 7    0  0.4737014E-002  0.4567548E+03  0.7546771E-02  0.1025727E+00
         21   -1    0    0  502  501  0.00000000000E+00  0.00000000000E+00  0.44884093046E+03  0.44884093046E+03  0.00000000000E+00 0. -1.
         21   -1    0    0  501  502 -0.00000000000E+00 -0.00000000000E+00 -0.11620204210E+03  0.11620204210E+03  0.00000000000E+00 0. -1.
      99926    2    1    2    0    0  0.35527136788E-14  0.00000000000E+00  0.33263888835E+03  0.56504297256E+03  0.45675478190E+03 0.  0.
      99925    2    3    3    0    0 -0.13678020393E+02 -0.33605677509E+02  0.34374418714E+03  0.43432470465E+03  0.26298565185E+03 0.  0.
         25    1    3    3    0    0  0.13678020393E+02  0.33605677509E+02 -0.11105298786E+02  0.13071826790E+03  0.12509000000E+03 0.  0.
         25    1    4    4    0    0  0.22330069679E+02  0.11098980487E+02  0.17555120794E+03  0.21699666838E+03  0.12509000000E+03 0.  0.
         25    1    4    4    0    0 -0.36008090073E+02 -0.44704657996E+02  0.16819297920E+03  0.21732803627E+03  0.12509000000E+03 0.  0.
<mgrwt>
<rscale>  2 0.45675478E+03</rscale>
<asrwt>0</asrwt>
<pdfrwt beam="1">  1       21 0.66006018E-01 0.45675478E+03</pdfrwt>
<pdfrwt beam="2">  1       21 0.17088536E-01 0.45675478E+03</pdfrwt>
<totfact> 0.60045586E+04</totfact>
</mgrwt>
</event>
<event>
 7    0  0.4737014E-002  0.4543831E+03  0.7546771E-02  0.1026423E+00
         21   -1    0    0  502  501  0.00000000000E+00  0.00000000000E+00  0.98938372453E+02  0.98938372453E+02  0.00000000000E+00 0. -1.
         21   -1    0    0  501  502 -0.00000000000E+00 -0.00000000000E+00 -0.52169855260E+03  0.52169855260E+03  0.00000000000E+00 0. -1.
      99926    2    1    2    0    0 -0.35527136788E-14  0.71054273576E-14 -0.42276018015E+03  0.62063692505E+03  0.45438312339E+03 0.  0.
      99925    2    3    3    0    0 -0.31770303037E+02  0.58185609670E+02 -0.14184044978E+03  0.30606051090E+03  0.26298175947E+03 0.  0.
         25    1    4    4    0    0 -0.32136034783E+02  0.55315013425E+02 -0.44007554012E+02  0.14722991663E+03  0.12509000000E+03 0.  0.
         25    1    3    3    0    0  0.31770303037E+02 -0.58185609670E+02 -0.28091973037E+03  0.31457641415E+03  0.12509000000E+03 0.  0.
         25    1    4    4    0    0  0.36573174583E+00  0.28705962460E+01 -0.97832895763E+02  0.15883059427E+03  0.12509000000E+03 0.  0.
<mgrwt>
<rscale>  2 0.45438312E+03</rscale>
<asrwt>0</asrwt>
<pdfrwt beam="1">  1       21 0.14549761E-01 0.45438312E+03</pdfrwt>
<pdfrwt beam="2">  1       21 0.76720373E-01 0.45438312E+03</pdfrwt>
<totfact> 0.57706237E+04</totfact>
</mgrwt>
</event>
<event>
 7    0  0.4737014E-002  0.4512118E+03  0.7546771E-02  0.1027361E+00
         21   -1    0    0  502  501  0.00000000000E+00  0.00000000000E+00  0.18563106284E+04  0.18563106284E+04  0.00000000000E+00 0. -1.
         21   -1    0    0  501  502 -0.00000000000E+00 -0.00000000000E+00 -0.27418908566E+02  0.27418908566E+02  0.00000000000E+00 0. -1.
      99926    2    1    2    0    0  0.00000000000E+00  0.00000000000E+00  0.18288917199E+04  0.18837295370E+04  0.45121175246E+03 0.  0.
      99925    2    3    3    0    0 -0.55117391816E+02  0.93978031331E+02  0.12026162511E+04  0.12358574291E+04  0.26303600611E+03 0.  0.
         25    1    3    3    0    0  0.55117391816E+02 -0.93978031331E+02  0.62627546876E+03  0.64787210785E+03  0.12509000000E+03 0.  0.
         25    1    4    4    0    0  0.12677799983E+02  0.36197402058E+02  0.58179062454E+03  0.59632106909E+03  0.12509000000E+03 0.  0.
         25    1    4    4    0    0 -0.67795191799E+02  0.57780629274E+02  0.62082562655E+03  0.63953636006E+03  0.12509000000E+03 0.  0.
<mgrwt>
<rscale>  2 0.45121175E+03</rscale>
<asrwt>0</asrwt>
<pdfrwt beam="1">  1       21 0.27298677E+00 0.45121175E+03</pdfrwt>
<pdfrwt beam="2">  1       21 0.40321937E-02 0.45121175E+03</pdfrwt>
<totfact> 0.16172657E+04</totfact>
</mgrwt>
</event>
<event>
 7    0  0.4737014E-002  0.4515838E+03  0.7546771E-02  0.1027251E+00
         21   -1    0    0  502  501  0.00000000000E+00  0.00000000000E+00  0.93740365061E+02  0.93740365061E+02  0.00000000000E+00 0.  1.
         21   -1    0    0  501  502 -0.00000000000E+00 -0.00000000000E+00 -0.54386377180E+03  0.54386377180E+03  0.00000000000E+00 0.  1.
      99926    2    1    2    0    0 -0.35527136788E-14  0.35527136788E-14 -0.45012340674E+03  0.63760413686E+03  0.45158382837E+03 0.  0.
      99925    2    3    3    0    0  0.31407491423E+02 -0.25503532280E+02 -0.42906532447E+03  0.50445830852E+03  0.26219128837E+03 0.  0.
         25    1    4    4    0    0 -0.85943513244E+01 -0.41032025802E+02 -0.23744238675E+03  0.27163189272E+03  0.12509000000E+03 0.  0.
         25    1    3    3    0    0 -0.31407491423E+02  0.25503532280E+02 -0.21058082270E+02  0.13314582834E+03  0.12509000000E+03 0.  0.
         25    1    4    4    0    0  0.40001842748E+02  0.15528493522E+02 -0.19162293772E+03  0.23282641580E+03  0.12509000000E+03 0.  0.
<mgrwt>
<rscale>  2 0.45158383E+03</rscale>
<asrwt>0</asrwt>
<pdfrwt beam="1">  1       21 0.13785347E-01 0.45158383E+03</pdfrwt>
<pdfrwt beam="2">  1       21 0.79979969E-01 0.45158383E+03</pdfrwt>
<totfact> 0.57968427E+04</totfact>
</mgrwt>
</event>
<event>
 7    0  0.4737014E-002  0.4297730E+03  0.7546771E-02  0.1033932E+00
         21   -1    0    0  502  501  0.00000000000E+00  0.00000000000E+00  0.33672501737E+03  0.33672501737E+03  0.00000000000E+00 0.  1.
         21   -1    0    0  501  502 -0.00000000000E+00 -0.00000000000E+00 -0.13713329228E+03  0.13713329228E+03  0.00000000000E+00 0.  1.
      99926    2    1    2    0    0  0.00000000000E+00 -0.35527136788E-14  0.19959172509E+03  0.47385830965E+03  0.42977301090E+03 0.  0.
      99925    2    3    3    0    0 -0.14797085226E+02  0.22692122119E+02  0.22023423816E+03  0.34421453778E+03  0.26314756739E+03 0.  0.
         25    1    4    4    0    0  0.16874916172E+02  0.35956258937E+02  0.82539435922E+02  0.15504154906E+03  0.12509000000E+03 0.  0.
         25    1    4    4    0    0 -0.31672001398E+02 -0.13264136818E+02  0.13769480224E+03  0.18917298872E+03  0.12509000000E+03 0.  0.
         25    1    3    3    0    0  0.14797085226E+02 -0.22692122119E+02 -0.20642513073E+02  0.12964377187E+03  0.12509000000E+03 0.  0.
<mgrwt>
<rscale>  2 0.42977301E+03</rscale>
<asrwt>0</asrwt>
<pdfrwt beam="1">  1       21 0.49518385E-01 0.42977301E+03</pdfrwt>
<pdfrwt beam="2">  1       21 0.20166661E-01 0.42977301E+03</pdfrwt>
<totfact> 0.82468229E+04</totfact>
</mgrwt>
</event>
<event>
 7    0  0.4737014E-002  0.4580930E+03  0.7546771E-02  0.1025336E+00
         21   -1    0    0  502  501  0.00000000000E+00  0.00000000000E+00  0.39149204483E+03  0.39149204483E+03  0.00000000000E+00 0. -1.
         21   -1    0    0  501  502 -0.00000000000E+00 -0.00000000000E+00 -0.13400601257E+03  0.13400601257E+03  0.00000000000E+00 0. -1.
      99926    2    1    2    0    0  0.71054273576E-14  0.14210854715E-13  0.25748603226E+03  0.52549805740E+03  0.45809295074E+03 0.  0.
      99925    2    3    3    0    0  0.58050980192E+02  0.99390509656E+02  0.14071666237E+03  0.31926764365E+03  0.26245429983E+03 0.  0.
         25    1    3    3    0    0 -0.58050980192E+02 -0.99390509656E+02  0.11676936989E+03  0.20623041375E+03  0.12509000000E+03 0.  0.
         25    1    4    4    0    0  0.52361079350E+02  0.30198015767E+02  0.97816491622E+02  0.16990931970E+03  0.12509000000E+03 0.  0.
         25    1    4    4    0    0  0.56899008421E+01  0.69192493889E+02  0.42900170746E+02  0.14935832395E+03  0.12509000000E+03 0.  0.
<mgrwt>
<rscale>  2 0.45809295E+03</rscale>
<asrwt>0</asrwt>
<pdfrwt beam="1">  1       21 0.57572359E-01 0.45809295E+03</pdfrwt>
<pdfrwt beam="2">  1       21 0.19706767E-01 0.45809295E+03</pdfrwt>
<totfact> 0.61978594E+04</totfact>
</mgrwt>
</event>
<event>
 7    0  0.4737014E-002  0.4533522E+03  0.7546771E-02  0.1026727E+00
         21   -1    0    0  502  501  0.00000000000E+00  0.00000000000E+00  0.17029128108E+04  0.17029128108E+04  0.00000000000E+00 0. -1.
         21   -1    0    0  501  502 -0.00000000000E+00 -0.00000000000E+00 -0.30173038786E+02  0.30173038786E+02  0.00000000000E+00 0. -1.
      99926    2    1    2    0    0  0.00000000000E+00  0.00000000000E+00  0.16727397720E+04  0.17330858496E+04  0.45335219990E+03 0.  0.
      99925    2    3    3    0    0 -0.72896872426E+02 -0.25763339468E+02  0.74678897735E+03  0.79553047207E+03  0.26305370484E+03 0.  0.
         25    1    4    4    0    0 -0.15872643879E+02 -0.35999866088E+02  0.44144364272E+03  0.46050833758E+03  0.12509000000E+03 0.  0.
         25    1    4    4    0    0 -0.57024228547E+02  0.10236526619E+02  0.30534533463E+03  0.33502213449E+03  0.12509000000E+03 0.  0.
         25    1    3    3    0    0  0.72896872426E+02  0.25763339468E+02  0.92595079465E+03  0.93755537750E+03  0.12509000000E+03 0.  0.
<mgrwt>
<rscale>  2 0.45335220E+03</rscale>
<asrwt>0</asrwt>
<pdfrwt beam="1">  1       21 0.25042829E+00 0.45335220E+03</pdfrwt>
<pdfrwt beam="2">  1       21 0.44372127E-02 0.45335220E+03</pdfrwt>
<totfact> 0.18820992E+04</totfact>
</mgrwt>
</event>
<event>
 7    0  0.4737014E-002  0.4620612E+03  0.7546771E-02  0.1024185E+00
         21   -1    0    0  502  501  0.00000000000E+00  0.00000000000E+00  0.28745785454E+03  0.28745785454E+03  0.00000000000E+00 0. -1.
         21   -1    0    0  501  502 -0.00000000000E+00 -0.00000000000E+00 -0.18567991077E+03  0.18567991077E+03  0.00000000000E+00 0. -1.
      99926    2    1    2    0    0  0.00000000000E+00 -0.14210854715E-13  0.10177794377E+03  0.47313776531E+03  0.46206124607E+03 0.  0.
      99925    2    3    3    0    0  0.68248662109E+02 -0.98121003508E+02  0.58264297126E+02  0.29473777441E+03  0.26303995159E+03 0.  0.
         25    1    4    4    0    0  0.63470315183E+02 -0.68967791934E+02  0.56461510637E+02  0.16619400566E+03  0.12509000000E+03 0.  0.
         25    1    4    4    0    0  0.47783469261E+01 -0.29153211575E+02  0.18027864888E+01  0.12854376875E+03  0.12509000000E+03 0.  0.
         25    1    3    3    0    0 -0.68248662109E+02  0.98121003508E+02  0.43513646640E+02  0.17839999090E+03  0.12509000000E+03 0.  0.
<mgrwt>
<rscale>  2 0.46206125E+03</rscale>
<asrwt>0</asrwt>
<pdfrwt beam="1">  1       21 0.42273214E-01 0.46206125E+03</pdfrwt>
<pdfrwt beam="2">  1       21 0.27305869E-01 0.46206125E+03</pdfrwt>
<totfact> 0.63566919E+04</totfact>
</mgrwt>
</event>
<event>
 7    0  0.4737014E-002  0.4352527E+03  0.7546771E-02  0.1032213E+00
         21   -1    0    0  502  501  0.00000000000E+00  0.00000000000E+00  0.24778514334E+03  0.24778514334E+03  0.00000000000E+00 0. -1.
         21   -1    0    0  501  502 -0.00000000000E+00 -0.00000000000E+00 -0.19113828034E+03  0.19113828034E+03  0.00000000000E+00 0. -1.
      99926    2    1    2    0    0 -0.12490009027E-15  0.00000000000E+00  0.56646863004E+02  0.43892342368E+03  0.43525269070E+03 0.  0.
      99925    2    3    3    0    0 -0.72226532375E-01  0.60165025147E+02 -0.35787085969E+02  0.27215598534E+03  0.26299872502E+03 0.  0.
         25    1    4    4    0    0  0.97303246490E+01  0.63809851241E+02  0.29363253181E+01  0.14079242323E+03  0.12509000000E+03 0.  0.
         25    1    3    3    0    0  0.72226532375E-01 -0.60165025147E+02  0.92433948973E+02  0.16676743834E+03  0.12509000000E+03 0.  0.
         25    1    4    4    0    0 -0.98025511813E+01 -0.36448260937E+01 -0.38723411287E+02  0.13136356210E+03  0.12509000000E+03 0.  0.
<mgrwt>
<rscale>  2 0.43525269E+03</rscale>
<asrwt>0</asrwt>
<pdfrwt beam="1">  1       21 0.36438992E-01 0.43525269E+03</pdfrwt>
<pdfrwt beam="2">  1       21 0.28108571E-01 0.43525269E+03</pdfrwt>
<totfact> 0.81902602E+04</totfact>
</mgrwt>
</event>
<event>
 7    0  0.4737014E-002  0.4558822E+03  0.7546771E-02  0.1025982E+00
         21   -1    0    0  502  501  0.00000000000E+00  0.00000000000E+00  0.15795835062E+03  0.15795835062E+03  0.00000000000E+00 0. -1.
         21   -1    0    0  501  502 -0.00000000000E+00 -0.00000000000E+00 -0.32892940743E+03  0.32892940743E+03  0.00000000000E+00 0. -1.
      99926    2    1    2    0    0  0.00000000000E+00  0.00000000000E+00 -0.17097105681E+03  0.48688775805E+03  0.45588220701E+03 0.  0.
      99925    2    3    3    0    0  0.18652913992E+02 -0.52397685925E+02 -0.20081412306E+01  0.26942644280E+03  0.26361549036E+03 0.  0.
         25    1    4    4    0    0  0.35475903673E+02  0.56981605843E+01  0.56515388734E+01  0.13027070571E+03  0.12509000000E+03 0.  0.
         25    1    4    4    0    0 -0.16822989681E+02 -0.58095846509E+02 -0.76596801040E+01  0.13915573708E+03  0.12509000000E+03 0.  0.
         25    1    3    3    0    0 -0.18652913992E+02  0.52397685925E+02 -0.16896291557E+03  0.21746131525E+03  0.12509000000E+03 0.  0.
<mgrwt>
<rscale>  2 0.45588221E+03</rscale>
<asrwt>0</asrwt>
<pdfrwt beam="1">  1       21 0.23229170E-01 0.45588221E+03</pdfrwt>
<pdfrwt beam="2">  1       21 0.48371971E-01 0.45588221E+03</pdfrwt>
<totfact> 0.65740426E+04</totfact>
</mgrwt>
</event>
<event>
 7    0  0.4737014E-002  0.4507786E+03  0.7546771E-02  0.1027490E+00
         21   -1    0    0  502  501  0.00000000000E+00  0.00000000000E+00  0.28426344365E+02  0.28426344365E+02  0.00000000000E+00 0.  1.
         21   -1    0    0  501  502 -0.00000000000E+00 -0.00000000000E+00 -0.17870865375E+04  0.17870865375E+04  0.00000000000E+00 0.  1.
      99926    2    1    2    0    0 -0.14210854715E-13  0.00000000000E+00 -0.17586601931E+04  0.18155128819E+04  0.45077860342E+03 0.  0.
      99925    2    3    3    0    0  0.10148060363E+03  0.17718545841E+02 -0.12554784299E+04  0.12868810111E+04  0.26310528148E+03 0.  0.
         25    1    3    3    0    0 -0.10148060363E+03 -0.17718545841E+02 -0.50318176326E+03  0.52863187074E+03  0.12509000000E+03 0.  0.
         25    1    4    4    0    0  0.66494124367E+02  0.33417992892E+01 -0.82225213487E+03  0.83437324837E+03  0.12509000000E+03 0.  0.
         25    1    4    4    0    0  0.34986479266E+02  0.14376746552E+02 -0.43322629500E+03  0.45250776275E+03  0.12509000000E+03 0.  0.
<mgrwt>
<rscale>  2 0.45077860E+03</rscale>
<asrwt>0</asrwt>
<pdfrwt beam="1">  1       21 0.41803435E-02 0.45077860E+03</pdfrwt>
<pdfrwt beam="2">  1       21 0.26280693E+00 0.45077860E+03</pdfrwt>
<totfact> 0.17530668E+04</totfact>
</mgrwt>
</event>
<event>
 7    0  0.4737014E-002  0.4624744E+03  0.7546771E-02  0.1024066E+00
         21   -1    0    0  502  501  0.00000000000E+00  0.00000000000E+00  0.48270064020E+02  0.48270064020E+02  0.00000000000E+00 0. -1.
         21   -1    0    0  501  502 -0.00000000000E+00 -0.00000000000E+00 -0.11077391340E+04  0.11077391340E+04  0.00000000000E+00 0. -1.
      99926    2    1    2    0    0 -0.71054273576E-14 -0.71054273576E-14 -0.10594690700E+04  0.11560091981E+04  0.46247438380E+03 0.  0.
      99925    2    3    3    0    0  0.39244899732E+02  0.60579370785E+02 -0.42261372519E+03  0.50298373098E+03  0.26302138808E+03 0.  0.
         25    1    4    4    0    0  0.36218720162E+02  0.59598174711E+02 -0.18021222170E+03  0.23019055383E+03  0.12509000000E+03 0.  0.
         25    1    3    3    0    0 -0.39244899732E+02 -0.60579370785E+02 -0.63685534483E+03  0.65302546708E+03  0.12509000000E+03 0.  0.
         25    1    4    4    0    0  0.30261795707E+01  0.98119607441E+00 -0.24240150348E+03  0.27279317715E+03  0.12509000000E+03 0.  0.
<mgrwt>
<rscale>  2 0.46247438E+03</rscale>
<asrwt>0</asrwt>
<pdfrwt beam="1">  1       21 0.70985390E-02 0.46247438E+03</pdfrwt>
<pdfrwt beam="2">  1       21 0.16290281E+00 0.46247438E+03</pdfrwt>
<totfact> 0.31695471E+04</totfact>
</mgrwt>
</event>
<event>
 7    0  0.4737014E-002  0.4533610E+03  0.7546771E-02  0.1026724E+00
         21   -1    0    0  502  501  0.00000000000E+00  0.00000000000E+00  0.43693380161E+03  0.43693380161E+03  0.00000000000E+00 0. -1.
         21   -1    0    0  501  502 -0.00000000000E+00 -0.00000000000E+00 -0.11760145385E+03  0.11760145385E+03  0.00000000000E+00 0. -1.
      99926    2    1    2    0    0  0.00000000000E+00  0.00000000000E+00  0.31933234776E+03  0.55453525546E+03  0.45336100540E+03 0.  0.
      99925    2    3    3    0    0  0.38944611700E+02 -0.50789181205E+01  0.32899690046E+03  0.42306894848E+03  0.26307013603E+03 0.  0.
         25    1    4    4    0    0  0.31710084952E+02  0.32950637843E+02  0.14093461694E+03  0.19391067112E+03  0.12509000000E+03 0.  0.
         25    1    3    3    0    0 -0.38944611700E+02  0.50789181205E+01 -0.96645526926E+01  0.13146630697E+03  0.12509000000E+03 0.  0.
         25    1    4    4    0    0  0.72345267477E+01 -0.38029555964E+02  0.18806228351E+03  0.22915827736E+03  0.12509000000E+03 0.  0.
<mgrwt>
<rscale>  2 0.45336101E+03</rscale>
<asrwt>0</asrwt>
<pdfrwt beam="1">  1       21 0.64254970E-01 0.45336101E+03</pdfrwt>
<pdfrwt beam="2">  1       21 0.17294332E-01 0.45336101E+03</pdfrwt>
<totfact> 0.62372609E+04</totfact>
</mgrwt>
</event>
<event>
 7    0  0.4737014E-002  0.4595134E+03  0.7546771E-02  0.1024922E+00
         21   -1    0    0  502  501  0.00000000000E+00  0.00000000000E+00  0.23230734116E+03  0.23230734116E+03  0.00000000000E+00 0.  1.
         21   -1    0    0  501  502 -0.00000000000E+00 -0.00000000000E+00 -0.22723406387E+03  0.22723406387E+03  0.00000000000E+00 0.  1.
      99926    2    1    2    0    0  0.17763568394E-14  0.00000000000E+00  0.50732772867E+01  0.45954140502E+03  0.45951340001E+03 0.  0.
      99925    2    3    3    0    0 -0.15760894177E+02 -0.74304074313E+02 -0.86286163042E+02  0.28702022754E+03  0.26299393118E+03 0.  0.
         25    1    4    4    0    0 -0.22582834884E+02 -0.93685824436E+01 -0.13278429521E+02  0.12814671107E+03  0.12509000000E+03 0.  0.
         25    1    4    4    0    0  0.68219407067E+01 -0.64935491869E+02 -0.73007733521E+02  0.15887351646E+03  0.12509000000E+03 0.  0.
         25    1    3    3    0    0  0.15760894177E+02  0.74304074313E+02  0.91359440329E+02  0.17252117749E+03  0.12509000000E+03 0.  0.
<mgrwt>
<rscale>  2 0.45951340E+03</rscale>
<asrwt>0</asrwt>
<pdfrwt beam="1">  1       21 0.34162844E-01 0.45951340E+03</pdfrwt>
<pdfrwt beam="2">  1       21 0.33416774E-01 0.45951340E+03</pdfrwt>
<totfact> 0.65812197E+04</totfact>
</mgrwt>
</event>
<event>
 7    0  0.4737014E-002  0.4431464E+03  0.7546771E-02  0.1029786E+00
         21   -1    0    0  502  501  0.00000000000E+00  0.00000000000E+00  0.69267383045E+03  0.69267383045E+03  0.00000000000E+00 0.  1.
         21   -1    0    0  501  502 -0.00000000000E+00 -0.00000000000E+00 -0.70877044286E+02  0.70877044286E+02  0.00000000000E+00 0.  1.
      99926    2    1    2    0    0  0.17763568394E-14  0.00000000000E+00  0.62179678617E+03  0.76355087474E+03  0.44314635847E+03 0.  0.
      99925    2    3    3    0    0  0.13757797189E+02 -0.75624680462E+02  0.51023059139E+03  0.57915214048E+03  0.26300869977E+03 0.  0.
         25    1    3    3    0    0 -0.13757797189E+02  0.75624680462E+02  0.11156619477E+03  0.18439873425E+03  0.12509000000E+03 0.  0.
         25    1    4    4    0    0  0.28023285637E+02 -0.73851852820E+02  0.26589651602E+03  0.30428254310E+03  0.12509000000E+03 0.  0.
         25    1    4    4    0    0 -0.14265488448E+02 -0.17728276416E+01  0.24433407537E+03  0.27486959739E+03  0.12509000000E+03 0.  0.
<mgrwt>
<rscale>  2 0.44314636E+03</rscale>
<asrwt>0</asrwt>
<pdfrwt beam="1">  1       21 0.10186379E+00 0.44314636E+03</pdfrwt>
<pdfrwt beam="2">  1       21 0.10423095E-01 0.44314636E+03</pdfrwt>
<totfact> 0.54473387E+04</totfact>
</mgrwt>
</event>
<event>
 7    0  0.4737014E-002  0.4605184E+03  0.7546771E-02  0.1024631E+00
         21   -1    0    0  502  501  0.00000000000E+00  0.00000000000E+00  0.28934143282E+03  0.28934143282E+03  0.00000000000E+00 0.  1.
         21   -1    0    0  501  502 -0.00000000000E+00 -0.00000000000E+00 -0.18324127477E+03  0.18324127477E+03  0.00000000000E+00 0.  1.
      99926    2    1    2    0    0  0.00000000000E+00  0.00000000000E+00  0.10610015805E+03  0.47258270759E+03  0.46051837312E+03 0.  0.
      99925    2    3    3    0    0  0.97103321300E+02  0.65775211861E+02  0.50888571837E+02  0.29244037260E+03  0.26301386139E+03 0.  0.
         25    1    4    4    0    0  0.52654686737E+02 -0.82472069465E+01  0.22648669663E+02  0.13784412499E+03  0.12509000000E+03 0.  0.
         25    1    4    4    0    0  0.44448634564E+02  0.74022418808E+02  0.28239902175E+02  0.15459624761E+03  0.12509000000E+03 0.  0.
         25    1    3    3    0    0 -0.97103321300E+02 -0.65775211861E+02  0.55211586208E+02  0.18014233499E+03  0.12509000000E+03 0.  0.
<mgrwt>
<rscale>  2 0.46051837E+03</rscale>
<asrwt>0</asrwt>
<pdfrwt beam="1">  1       21 0.42550211E-01 0.46051837E+03</pdfrwt>
<pdfrwt beam="2">  1       21 0.26947246E-01 0.46051837E+03</pdfrwt>
<totfact> 0.64379549E+04</totfact>
</mgrwt>
</event>
<event>
 7    0  0.4737014E-002  0.4555590E+03  0.7546771E-02  0.1026077E+00
         21   -1    0    0  502  501  0.00000000000E+00  0.00000000000E+00  0.10725576336E+04  0.10725576336E+04  0.00000000000E+00 0.  1.
         21   -1    0    0  501  502 -0.00000000000E+00 -0.00000000000E+00 -0.48373615129E+02  0.48373615129E+02  0.00000000000E+00 0.  1.
      99926    2    1    2    0    0  0.00000000000E+00  0.00000000000E+00  0.10241840184E+04  0.11209312487E+04  0.45555895412E+03 0.  0.
      99925    2    3    3    0    0  0.11017577336E+03 -0.26921638449E+02  0.62676574595E+03  0.68913005943E+03  0.26306170920E+03 0.  0.
         25    1    4    4    0    0  0.23897423686E+02 -0.71013372698E+01  0.35379212045E+03  0.37608228946E+03  0.12509000000E+03 0.  0.
         25    1    3    3    0    0 -0.11017577336E+03  0.26921638449E+02  0.39741827249E+03  0.43180118928E+03  0.12509000000E+03 0.  0.
         25    1    4    4    0    0  0.86278349677E+02 -0.19820301180E+02  0.27297362550E+03  0.31304776997E+03  0.12509000000E+03 0.  0.
<mgrwt>
<rscale>  2 0.45555895E+03</rscale>
<asrwt>0</asrwt>
<pdfrwt beam="1">  1       21 0.15772905E+00 0.45555895E+03</pdfrwt>
<pdfrwt beam="2">  1       21 0.71137676E-02 0.45555895E+03</pdfrwt>
<totfact> 0.34616759E+04</totfact>
</mgrwt>
</event>
<event>
 7    0  0.4737014E-002  0.4286238E+03  0.7546771E-02  0.1034296E+00
         21   -1    0    0  502  501  0.00000000000E+00  0.00000000000E+00  0.36694284453E+03  0.36694284453E+03  0.00000000000E+00 0. -1.
         21   -1    0    0  501  502 -0.00000000000E+00 -0.00000000000E+00 -0.12516826910E+03  0.12516826910E+03  0.00000000000E+00 0. -1.
      99926    2    1    2    0    0  0.88817841970E-15  0.44408920985E-15  0.24177457543E+03  0.49211111363E+03  0.42862384772E+03 0.  0.
      99925    2    3    3    0    0  0.69821138955E+01  0.36695852205E+01  0.25452590766E+03  0.36612571629E+03  0.26306346513E+03 0.  0.
         25    1    4    4    0    0  0.15933604098E+02  0.30415641149E+02  0.16429604410E+03  0.20933152933E+03  0.12509000000E+03 0.  0.
         25    1    3    3    0    0 -0.69821138955E+01 -0.36695852205E+01 -0.12751332234E+02  0.12598539734E+03  0.12509000000E+03 0.  0.
         25    1    4    4    0    0 -0.89514902025E+01 -0.26746055929E+02  0.90229863566E+02  0.15679418696E+03  0.12509000000E+03 0.  0.
<mgrwt>
<rscale>  2 0.42862385E+03</rscale>
<asrwt>0</asrwt>
<pdfrwt beam="1">  1       21 0.53962183E-01 0.42862385E+03</pdfrwt>
<pdfrwt beam="2">  1       21 0.18407098E-01 0.42862385E+03</pdfrwt>
<totfact> 0.81620858E+04</totfact>
</mgrwt>
</event>
<event>
 7    0  0.4737014E-002  0.4496213E+03  0.7546771E-02  0.1027835E+00
         21   -1    0    0  502  501  0.00000000000E+00  0.00000000000E+00  0.25776420595E+03  0.25776420595E+03  0.00000000000E+00 0.  1.
         21   -1    0    0  501  502 -0.00000000000E+00 -0.00000000000E+00 -0.19606999664E+03  0.19606999664E+03  0.00000000000E+00 0.  1.
      99926    2    1    2    0    0  0.00000000000E+00  0.17763568394E-14  0.61694209308E+02  0.45383420259E+03  0.44962129396E+03 0.  0.
      99925    2    3    3    0    0 -0.51359686091E+02  0.10088941562E+02  0.13448232671E+03  0.29993416285E+03  0.26293611724E+03 0.  0.
         25    1    4    4    0    0 -0.21472014073E+02 -0.31843326688E+02  0.84274802124E+02  0.15564316630E+03  0.12509000000E+03 0.  0.
         25    1    4    4    0    0 -0.29887672017E+02  0.41932268250E+02  0.50207524590E+02  0.14429099655E+03  0.12509000000E+03 0.  0.
         25    1    3    3    0    0  0.51359686091E+02 -0.10088941562E+02 -0.72788117406E+02  0.15390003974E+03  0.12509000000E+03 0.  0.
<mgrwt>
<rscale>  2 0.44962129E+03</rscale>
<asrwt>0</asrwt>
<pdfrwt beam="1">  1       21 0.37906501E-01 0.44962129E+03</pdfrwt>
<pdfrwt beam="2">  1       21 0.28833823E-01 0.44962129E+03</pdfrwt>
<totfact> 0.71656946E+04</totfact>
</mgrwt>
</event>
<event>
 7    0  0.4737014E-002  0.4639924E+03  0.7546771E-02  0.1023630E+00
         21   -1    0    0  502  501  0.00000000000E+00  0.00000000000E+00  0.66471057763E+03  0.66471057763E+03  0.00000000000E+00 0.  1.
         21   -1    0    0  501  502 -0.00000000000E+00 -0.00000000000E+00 -0.80970934677E+02  0.80970934677E+02  0.00000000000E+00 0.  1.
      99926    2    1    2    0    0  0.00000000000E+00 -0.35527136788E-14  0.58373964295E+03  0.74568151231E+03  0.46399239977E+03 0.  0.
      99925    2    3    3    0    0  0.43374447426E+02  0.30752375830E+02  0.18896472260E+03  0.32816289338E+03  0.26297560133E+03 0.  0.
         25    1    4    4    0    0 -0.35092280868E+01 -0.17271774974E+02  0.87307142642E+02  0.15356000179E+03  0.12509000000E+03 0.  0.
         25    1    3    3    0    0 -0.43374447426E+02 -0.30752375830E+02  0.39477492036E+03  0.41751861893E+03  0.12509000000E+03 0.  0.
         25    1    4    4    0    0  0.46883675513E+02  0.48024150804E+02  0.10165757995E+03  0.17460289159E+03  0.12509000000E+03 0.  0.
<mgrwt>
<rscale>  2 0.46399240E+03</rscale>
<asrwt>0</asrwt>
<pdfrwt beam="1">  1       21 0.97751552E-01 0.46399240E+03</pdfrwt>
<pdfrwt beam="2">  1       21 0.11907491E-01 0.46399240E+03</pdfrwt>
<totfact> 0.47075140E+04</totfact>
</mgrwt>
</event>
<event>
 6    0  0.4737014E-002  0.4571138E+03  0.7546771E-02  0.1025622E+00
         21   -1    0    0  502  501  0.00000000000E+00  0.00000000000E+00  0.18194429805E+03  0.18194429805E+03  0.00000000000E+00 0. -1.
         21   -1    0    0  501  502 -0.00000000000E+00 -0.00000000000E+00 -0.28711121196E+03  0.28711121196E+03  0.00000000000E+00 0. -1.
      99926    2    1    2    0    0  0.00000000000E+00  0.00000000000E+00 -0.10516691392E+03  0.46905551001E+03  0.45711376230E+03 0.  0.
         25    1    3    3    0    0  0.64221502572E+02  0.46187910340E+02  0.52135779621E+01  0.14809596196E+03  0.12509000000E+03 0.  0.
         25    1    3    3    0    0 -0.78620079754E+02 -0.71410989501E+02 -0.99900458974E+02  0.19211521586E+03  0.12509000000E+03 0.  0.
         25    1    3    3    0    0  0.14398577182E+02  0.25223079161E+02 -0.10480032905E+02  0.12884433219E+03  0.12509000000E+03 0.  0.
<mgrwt>
<rscale>  2 0.45711376E+03</rscale>
<asrwt>0</asrwt>
<pdfrwt beam="1">  1       21 0.26756515E-01 0.45711376E+03</pdfrwt>
<pdfrwt beam="2">  1       21 0.42222237E-01 0.45711376E+03</pdfrwt>
<totfact> 0.66386152E+04</totfact>
</mgrwt>
</event>
<event>
 7    0  0.4737014E-002  0.4543995E+03  0.7546771E-02  0.1026418E+00
         21   -1    0    0  502  501  0.00000000000E+00  0.00000000000E+00  0.67071325340E+03  0.67071325340E+03  0.00000000000E+00 0. -1.
         21   -1    0    0  501  502 -0.00000000000E+00 -0.00000000000E+00 -0.76962452792E+02  0.76962452792E+02  0.00000000000E+00 0. -1.
      99926    2    1    2    0    0  0.00000000000E+00  0.00000000000E+00  0.59375080061E+03  0.74767570620E+03  0.45439954710E+03 0.  0.
      99925    2    3    3    0    0 -0.75454504089E+02 -0.81207460686E+02  0.40723810695E+03  0.49723104792E+03  0.26288363474E+03 0.  0.
         25    1    4    4    0    0 -0.13409004473E+02 -0.10315192997E+02  0.21461012706E+03  0.24898035935E+03  0.12509000000E+03 0.  0.
         25    1    4    4    0    0 -0.62045499615E+02 -0.70892267689E+02  0.19262797989E+03  0.24825068857E+03  0.12509000000E+03 0.  0.
         25    1    3    3    0    0  0.75454504089E+02  0.81207460686E+02  0.18651269367E+03  0.25044465827E+03  0.12509000000E+03 0.  0.
<mgrwt>
<rscale>  2 0.45439955E+03</rscale>
<asrwt>0</asrwt>
<pdfrwt beam="1">  1       21 0.98634299E-01 0.45439955E+03</pdfrwt>
<pdfrwt beam="2">  1       21 0.11318008E-01 0.45439955E+03</pdfrwt>
<totfact> 0.50628247E+04</totfact>
</mgrwt>
</event>
<event>
 7    0  0.4737014E-002  0.4324532E+03  0.7546771E-02  0.1033088E+00
         21   -1    0    0  502  501  0.00000000000E+00  0.00000000000E+00  0.11752865539E+04  0.11752865539E+04  0.00000000000E+00 0.  1.
         21   -1    0    0  501  502 -0.00000000000E+00 -0.00000000000E+00 -0.39780888898E+02  0.39780888898E+02  0.00000000000E+00 0.  1.
      99926    2    1    2    0    0  0.00000000000E+00 -0.13322676296E-14  0.11355056650E+04  0.12150674428E+04  0.43245320590E+03 0.  0.
      99925    2    3    3    0    0  0.52698039595E+02 -0.12189291490E+01  0.93669541797E+03  0.97433607469E+03  0.26297131255E+03 0.  0.
         25    1    4    4    0    0  0.62725284350E+01 -0.26400768117E+02  0.36693610677E+03  0.38862058582E+03  0.12509000000E+03 0.  0.
         25    1    4    4    0    0  0.46425511160E+02  0.25181838968E+02  0.56975931120E+03  0.58571548887E+03  0.12509000000E+03 0.  0.
         25    1    3    3    0    0 -0.52698039595E+02  0.12189291490E+01  0.19881024700E+03  0.24073136808E+03  0.12509000000E+03 0.  0.
<mgrwt>
<rscale>  2 0.43245321E+03</rscale>
<asrwt>0</asrwt>
<pdfrwt beam="1">  1       21 0.17283624E+00 0.43245321E+03</pdfrwt>
<pdfrwt beam="2">  1       21 0.58501315E-02 0.43245321E+03</pdfrwt>
<totfact> 0.37913868E+04</totfact>
</mgrwt>
</event>
<event>
 7    0  0.4737014E-002  0.4491255E+03  0.7546771E-02  0.1027983E+00
         21   -1    0    0  502  501  0.00000000000E+00  0.00000000000E+00  0.39358100398E+02  0.39358100398E+02  0.00000000000E+00 0.  1.
         21   -1    0    0  501  502 -0.00000000000E+00 -0.00000000000E+00 -0.12812716938E+04  0.12812716938E+04  0.00000000000E+00 0.  1.
      99926    2    1    2    0    0  0.00000000000E+00  0.00000000000E+00 -0.12419135934E+04  0.13206297942E+04  0.44912546115E+03 0.  0.
      99925    2    3    3    0    0  0.24230855091E+02 -0.79764245693E+02 -0.58596041957E+03  0.64767248233E+03  0.26302197977E+03 0.  0.
         25    1    4    4    0    0  0.43280591874E+01 -0.71928284512E+02 -0.37029061278E+03  0.39743560010E+03  0.12509000000E+03 0.  0.
         25    1    3    3    0    0 -0.24230855091E+02  0.79764245693E+02 -0.65595317387E+03  0.67295731190E+03  0.12509000000E+03 0.  0.
         25    1    4    4    0    0  0.19902795904E+02 -0.78359611810E+01 -0.21566980678E+03  0.25023688223E+03  0.12509000000E+03 0.  0.
<mgrwt>
<rscale>  2 0.44912546E+03</rscale>
<asrwt>0</asrwt>
<pdfrwt beam="1">  1       21 0.57879559E-02 0.44912546E+03</pdfrwt>
<pdfrwt beam="2">  1       21 0.18842231E+00 0.44912546E+03</pdfrwt>
<totfact> 0.29862419E+04</totfact>
</mgrwt>
</event>
<event>
 7    0  0.4737014E-002  0.4530503E+03  0.7546771E-02  0.1026816E+00
         21   -1    0    0  502  501  0.00000000000E+00  0.00000000000E+00  0.43036852097E+03  0.43036852097E+03  0.00000000000E+00 0.  1.
         21   -1    0    0  501  502 -0.00000000000E+00 -0.00000000000E+00 -0.11923185485E+03  0.11923185485E+03  0.00000000000E+00 0.  1.
      99926    2    1    2    0    0  0.14210854715E-13  0.00000000000E+00  0.31113666613E+03  0.54960037582E+03  0.45305027104E+03 0.  0.
      99925    2    3    3    0    0  0.92142921960E+02  0.62558528487E+02  0.19630538799E+03  0.34652990014E+03  0.26295109580E+03 0.  0.
         25    1    3    3    0    0 -0.92142921960E+02 -0.62558528487E+02  0.11483127813E+03  0.20307047568E+03  0.12509000000E+03 0.  0.
         25    1    4    4    0    0  0.88274244390E+02  0.27023613270E+02  0.10662476798E+03  0.18851781651E+03  0.12509000000E+03 0.  0.
         25    1    4    4    0    0  0.38686775702E+01  0.35534915217E+02  0.89680620014E+02  0.15801208363E+03  0.12509000000E+03 0.  0.
<mgrwt>
<rscale>  2 0.45305027E+03</rscale>
<asrwt>0</asrwt>
<pdfrwt beam="1">  1       21 0.63289488E-01 0.45305027E+03</pdfrwt>
<pdfrwt beam="2">  1       21 0.17534096E-01 0.45305027E+03</pdfrwt>
<totfact> 0.62856972E+04</totfact>
</mgrwt>
</event>
<event>
 7    0  0.4737014E-002  0.4584413E+03  0.7546771E-02  0.1025234E+00
         21   -1    0    0  502  501  0.00000000000E+00  0.00000000000E+00  0.18545010351E+03  0.18545010351E+03  0.00000000000E+00 0. -1.
         21   -1    0    0  501  502 -0.00000000000E+00 -0.00000000000E+00 -0.28332208023E+03  0.28332208023E+03  0.00000000000E+00 0. -1.
      99926    2    1    2    0    0  0.00000000000E+00  0.00000000000E+00 -0.97871976718E+02  0.46877218374E+03  0.45844131187E+03 0.  0.
      99925    2    3    3    0    0  0.34722566273E+02 -0.74587141557E+02  0.22774802324E+02  0.27649100503E+03  0.26298229208E+03 0.  0.
         25    1    3    3    0    0 -0.34722566273E+02  0.74587141557E+02 -0.12064677904E+03  0.19228117871E+03  0.12509000000E+03 0.  0.
         25    1    4    4    0    0 -0.11427187866E+02 -0.41994873956E+02  0.39521649904E+02  0.13821584197E+03  0.12509000000E+03 0.  0.
         25    1    4    4    0    0  0.46149754139E+02 -0.32592267601E+02 -0.16746847579E+02  0.13827516306E+03  0.12509000000E+03 0.  0.
<mgrwt>
<rscale>  2 0.45844131E+03</rscale>
<asrwt>0</asrwt>
<pdfrwt beam="1">  1       21 0.27272074E-01 0.45844131E+03</pdfrwt>
<pdfrwt beam="2">  1       21 0.41665012E-01 0.45844131E+03</pdfrwt>
<totfact> 0.65715101E+04</totfact>
</mgrwt>
</event>
<event>
 7    0  0.4737014E-002  0.4586714E+03  0.7546771E-02  0.1025167E+00
         21   -1    0    0  502  501  0.00000000000E+00  0.00000000000E+00  0.13086110820E+03  0.13086110820E+03  0.00000000000E+00 0.  1.
         21   -1    0    0  501  502 -0.00000000000E+00 -0.00000000000E+00 -0.40191361681E+03  0.40191361681E+03  0.00000000000E+00 0.  1.
      99926    2    1    2    0    0  0.00000000000E+00  0.14210854715E-13 -0.27105250862E+03  0.53277472501E+03  0.45867139128E+03 0.  0.
      99925    2    3    3    0    0 -0.45408693205E+02 -0.67813024703E+02 -0.73320521255E+02  0.28497237905E+03  0.26300722850E+03 0.  0.
         25    1    3    3    0    0  0.45408693205E+02  0.67813024703E+02 -0.19773198736E+03  0.24780234596E+03  0.12509000000E+03 0.  0.
         25    1    4    4    0    0 -0.59968134582E+02 -0.43640222517E+02 -0.23060042730E+02  0.14724102641E+03  0.12509000000E+03 0.  0.
         25    1    4    4    0    0  0.14559441377E+02 -0.24172802187E+02 -0.50260478524E+02  0.13773135264E+03  0.12509000000E+03 0.  0.
<mgrwt>
<rscale>  2 0.45867139E+03</rscale>
<asrwt>0</asrwt>
<pdfrwt beam="1">  1       21 0.19244280E-01 0.45867139E+03</pdfrwt>
<pdfrwt beam="2">  1       21 0.59104944E-01 0.45867139E+03</pdfrwt>
<totfact> 0.61218203E+04</totfact>
</mgrwt>
</event>
<event>
 7    0  0.4737014E-002  0.4556286E+03  0.7546771E-02  0.1026057E+00
         21   -1    0    0  502  501  0.00000000000E+00  0.00000000000E+00  0.16257962075E+04  0.16257962075E+04  0.00000000000E+00 0.  1.
         21   -1    0    0  501  502 -0.00000000000E+00 -0.00000000000E+00 -0.31922425519E+02  0.31922425519E+02  0.00000000000E+00 0.  1.
      99926    2    1    2    0    0  0.00000000000E+00 -0.88817841970E-15  0.15938737820E+04  0.16577186330E+04  0.45562861343E+03 0.  0.
      99925    2    3    3    0    0 -0.11328646541E+03 -0.69611770869E+01  0.97266629187E+03  0.10139573923E+04  0.26295930627E+03 0.  0.
         25    1    4    4    0    0 -0.85878741588E+02  0.17699319334E+02  0.59963533550E+03  0.61878790215E+03  0.12509000000E+03 0.  0.
         25    1    3    3    0    0  0.11328646541E+03  0.69611770869E+01  0.62120749014E+03  0.64376124079E+03  0.12509000000E+03 0.  0.
         25    1    4    4    0    0 -0.27407723824E+02 -0.24660496421E+02  0.37303095636E+03  0.39516949011E+03  0.12509000000E+03 0.  0.
<mgrwt>
<rscale>  2 0.45562861E+03</rscale>
<asrwt>0</asrwt>
<pdfrwt beam="1">  1       21 0.23908762E+00 0.45562861E+03</pdfrwt>
<pdfrwt beam="2">  1       21 0.46944754E-02 0.45562861E+03</pdfrwt>
<totfact> 0.20058293E+04</totfact>
</mgrwt>
</event>
<event>
 7    0  0.4737014E-002  0.4341224E+03  0.7546771E-02  0.1032566E+00
         21   -1    0    0  502  501  0.00000000000E+00  0.00000000000E+00  0.11893401419E+03  0.11893401419E+03  0.00000000000E+00 0. -1.
         21   -1    0    0  501  502 -0.00000000000E+00 -0.00000000000E+00 -0.39614884296E+03  0.39614884296E+03  0.00000000000E+00 0. -1.
      99926    2    1    2    0    0  0.00000000000E+00 -0.71054273576E-14 -0.27721482877E+03  0.51508285714E+03  0.43412243484E+03 0.  0.
      99925    2    3    3    0    0  0.81955075377E+02 -0.36664035694E+02 -0.20308208803E+03  0.34419091104E+03  0.26299080378E+03 0.  0.
         25    1    4    4    0    0  0.17603208514E+02 -0.51093077823E+02 -0.10650198069E+03  0.17294668410E+03  0.12509000000E+03 0.  0.
         25    1    4    4    0    0  0.64351866862E+02  0.14429042128E+02 -0.96580107338E+02  0.17124422694E+03  0.12509000000E+03 0.  0.
         25    1    3    3    0    0 -0.81955075377E+02  0.36664035694E+02 -0.74132740740E+02  0.17089194610E+03  0.12509000000E+03 0.  0.
<mgrwt>
<rscale>  2 0.43412243E+03</rscale>
<asrwt>0</asrwt>
<pdfrwt beam="1">  1       21 0.17490297E-01 0.43412243E+03</pdfrwt>
<pdfrwt beam="2">  1       21 0.58257182E-01 0.43412243E+03</pdfrwt>
<totfact> 0.76048885E+04</totfact>
</mgrwt>
</event>
<event>
 7    0  0.4737014E-002  0.4663967E+03  0.7546771E-02  0.1022942E+00
         21   -1    0    0  502  501  0.00000000000E+00  0.00000000000E+00  0.31261525993E+03  0.31261525993E+03  0.00000000000E+00 0.  1.
         21   -1    0    0  501  502 -0.00000000000E+00 -0.00000000000E+00 -0.17395657867E+03  0.17395657867E+03  0.00000000000E+00 0.  1.
      99926    2    1    2    0    0  0.00000000000E+00  0.00000000000E+00  0.13865868127E+03  0.48657183860E+03  0.46639674551E+03 0.  0.
      99925    2    3    3    0    0  0.44571107975E+01  0.35856771704E+02  0.20978666783E+03  0.33820650408E+03  0.26280719070E+03 0.  0.
         25    1    4    4    0    0  0.13644360278E+01  0.39660908574E+02  0.63878837927E+02  0.14595500467E+03  0.12509000000E+03 0.  0.
         25    1    4    4    0    0  0.30926747697E+01 -0.38041368699E+01  0.14590782991E+03  0.19225149940E+03  0.12509000000E+03 0.  0.
         25    1    3    3    0    0 -0.44571107975E+01 -0.35856771704E+02 -0.71127986569E+02  0.14836533452E+03  0.12509000000E+03 0.  0.
<mgrwt>
<rscale>  2 0.46639675E+03</rscale>
<asrwt>0</asrwt>
<pdfrwt beam="1">  1       21 0.45972833E-01 0.46639675E+03</pdfrwt>
<pdfrwt beam="2">  1       21 0.25581850E-01 0.46639675E+03</pdfrwt>
<totfact> 0.60558427E+04</totfact>
</mgrwt>
</event>
<event>
 7    0  0.4737014E-002  0.4581615E+03  0.7546771E-02  0.1025316E+00
         21   -1    0    0  502  501  0.00000000000E+00  0.00000000000E+00  0.99382663760E+02  0.99382663760E+02  0.00000000000E+00 0. -1.
         21   -1    0    0  501  502 -0.00000000000E+00 -0.00000000000E+00 -0.52803964737E+03  0.52803964737E+03  0.00000000000E+00 0. -1.
      99926    2    1    2    0    0  0.35527136788E-14  0.00000000000E+00 -0.42865698361E+03  0.62742231113E+03  0.45816148562E+03 0.  0.
      99925    2    3    3    0    0 -0.24518061146E+02  0.67747917960E+01 -0.11411131042E+03  0.28796167755E+03  0.26316060390E+03 0.  0.
         25    1    3    3    0    0  0.24518061146E+02 -0.67747917960E+01 -0.31454567320E+03  0.33946063358E+03  0.12509000000E+03 0.  0.
         25    1    4    4    0    0  0.14592479507E+00  0.29170347711E+02 -0.88551290559E+02  0.15601208171E+03  0.12509000000E+03 0.  0.
         25    1    4    4    0    0 -0.24663985941E+02 -0.22395555915E+02 -0.25560019857E+02  0.13194959584E+03  0.12509000000E+03 0.  0.
<mgrwt>
<rscale>  2 0.45816149E+03</rscale>
<asrwt>0</asrwt>
<pdfrwt beam="1">  1       21 0.14615098E-01 0.45816149E+03</pdfrwt>
<pdfrwt beam="2">  1       21 0.77652889E-01 0.45816149E+03</pdfrwt>
<totfact> 0.55620014E+04</totfact>
</mgrwt>
</event>
<event>
 7    0  0.4737014E-002  0.4541616E+03  0.7546771E-02  0.1026488E+00
         21   -1    0    0  502  501  0.00000000000E+00  0.00000000000E+00  0.11462650172E+03  0.11462650172E+03  0.00000000000E+00 0. -1.
         21   -1    0    0  501  502 -0.00000000000E+00 -0.00000000000E+00 -0.44985837834E+03  0.44985837834E+03  0.00000000000E+00 0. -1.
      99926    2    1    2    0    0  0.00000000000E+00 -0.71054273576E-14 -0.33523187662E+03  0.56448488006E+03  0.45416161079E+03 0.  0.
      99925    2    3    3    0    0 -0.44809269549E+02 -0.58450447468E+02 -0.10531634999E+03  0.29257867761E+03  0.26284296370E+03 0.  0.
         25    1    3    3    0    0  0.44809269549E+02  0.58450447468E+02 -0.22991552663E+03  0.27190620245E+03  0.12509000000E+03 0.  0.
         25    1    4    4    0    0 -0.22157061032E+02 -0.21703478156E+02 -0.95484787872E+01  0.12923102516E+03  0.12509000000E+03 0.  0.
         25    1    4    4    0    0 -0.22652208517E+02 -0.36746969312E+02 -0.95767871203E+02  0.16334765244E+03  0.12509000000E+03 0.  0.
<mgrwt>
<rscale>  2 0.45416161E+03</rscale>
<asrwt>0</asrwt>
<pdfrwt beam="1">  1       21 0.16856839E-01 0.45416161E+03</pdfrwt>
<pdfrwt beam="2">  1       21 0.66155643E-01 0.45416161E+03</pdfrwt>
<totfact> 0.61324989E+04</totfact>
</mgrwt>
</event>
<event>
 7    0  0.4737014E-002  0.4547015E+03  0.7546771E-02  0.1026329E+00
         21   -1    0    0  502  501  0.00000000000E+00  0.00000000000E+00  0.13119449837E+03  0.13119449837E+03  0.00000000000E+00 0. -1.
         21   -1    0    0  501  502 -0.00000000000E+00 -0.00000000000E+00 -0.39398267834E+03  0.39398267834E+03  0.00000000000E+00 0. -1.
      99926    2    1    2    0    0  0.00000000000E+00  0.00000000000E+00 -0.26278817997E+03  0.52517717671E+03  0.45470148384E+03 0.  0.
      99925    2    3    3    0    0  0.95948580762E+02 -0.59466812257E+02 -0.16264587433E+03  0.32917099980E+03  0.26297801194E+03 0.  0.
         25    1    3    3    0    0 -0.95948580762E+02  0.59466812257E+02 -0.10014230564E+03  0.19600617692E+03  0.12509000000E+03 0.  0.
         25    1    4    4    0    0  0.20815663063E+02 -0.58976320438E+02 -0.88382853357E+02  0.16544042755E+03  0.12509000000E+03 0.  0.
         25    1    4    4    0    0  0.75132917699E+02 -0.49049181915E+00 -0.74263020975E+02  0.16373057225E+03  0.12509000000E+03 0.  0.
<mgrwt>
<rscale>  2 0.45470148E+03</rscale>
<asrwt>0</asrwt>
<pdfrwt beam="1">  1       21 0.19293309E-01 0.45470148E+03</pdfrwt>
<pdfrwt beam="2">  1       21 0.57938629E-01 0.45470148E+03</pdfrwt>
<totfact> 0.63684748E+04</totfact>
</mgrwt>
</event>
<event>
 7    0  0.4737014E-002  0.4525644E+03  0.7546771E-02  0.1026960E+00
         21   -1    0    0  502  501  0.00000000000E+00  0.00000000000E+00  0.45548717426E+03  0.45548717426E+03  0.00000000000E+00 0.  1.
         21   -1    0    0  501  502 -0.00000000000E+00 -0.00000000000E+00 -0.11241510094E+03  0.11241510094E+03  0.00000000000E+00 0.  1.
      99926    2    1    2    0    0  0.00000000000E+00  0.00000000000E+00  0.34307207331E+03  0.56790227520E+03  0.45256441165E+03 0.  0.
      99925    2    3    3    0    0 -0.70526483251E+02 -0.11024202013E+02  0.32279031619E+03  0.42245683649E+03  0.26302219032E+03 0.  0.
         25    1    3    3    0    0  0.70526483251E+02  0.11024202013E+02  0.20281757119E+02  0.14544543871E+03  0.12509000000E+03 0.  0.
         25    1    4    4    0    0 -0.33698127267E+02  0.10901392632E+02  0.21764881078E+03  0.25352103873E+03  0.12509000000E+03 0.  0.
         25    1    4    4    0    0 -0.36828355984E+02 -0.21925594645E+02  0.10514150541E+03  0.16893579776E+03  0.12509000000E+03 0.  0.
<mgrwt>
<rscale>  2 0.45256441E+03</rscale>
<asrwt>0</asrwt>
<pdfrwt beam="1">  1       21 0.66983407E-01 0.45256441E+03</pdfrwt>
<pdfrwt beam="2">  1       21 0.16531633E-01 0.45256441E+03</pdfrwt>
<totfact> 0.61882122E+04</totfact>
</mgrwt>
</event>
<event>
 7    0  0.4737014E-002  0.4571805E+03  0.7546771E-02  0.1025602E+00
         21   -1    0    0  502  501  0.00000000000E+00  0.00000000000E+00  0.73517750097E+03  0.73517750097E+03  0.00000000000E+00 0. -1.
         21   -1    0    0  501  502 -0.00000000000E+00 -0.00000000000E+00 -0.71076032462E+02  0.71076032462E+02  0.00000000000E+00 0. -1.
      99926    2    1    2    0    0  0.00000000000E+00  0.00000000000E+00  0.66410146850E+03  0.80625353343E+03  0.45718048919E+03 0.  0.
      99925    2    3    3    0    0 -0.48525867518E+02  0.40968341790E+02  0.24689636909E+03  0.36609359894E+03  0.26274234769E+03 0.  0.
         25    1    4    4    0    0 -0.47714305095E+02 -0.81372369331E+01  0.10227379036E+03  0.16867218452E+03  0.12509000000E+03 0.  0.
         25    1    3    3    0    0  0.48525867518E+02 -0.40968341790E+02  0.41720509942E+03  0.44015993449E+03  0.12509000000E+03 0.  0.
         25    1    4    4    0    0 -0.81156242344E+00  0.49105578724E+02  0.14462257872E+03  0.19742141442E+03  0.12509000000E+03 0.  0.
<mgrwt>
<rscale>  2 0.45718049E+03</rscale>
<asrwt>0</asrwt>
<pdfrwt beam="1">  1       21 0.10811433E+00 0.45718049E+03</pdfrwt>
<pdfrwt beam="2">  1       21 0.10452358E-01 0.45718049E+03</pdfrwt>
<totfact> 0.46660266E+04</totfact>
</mgrwt>
</event>
<event>
 7    0  0.4737014E-002  0.4611315E+03  0.7546771E-02  0.1024454E+00
         21   -1    0    0  502  501  0.00000000000E+00  0.00000000000E+00  0.65444228891E+03  0.65444228891E+03  0.00000000000E+00 0.  1.
         21   -1    0    0  501  502 -0.00000000000E+00 -0.00000000000E+00 -0.81230338741E+02  0.81230338741E+02  0.00000000000E+00 0.  1.
      99926    2    1    2    0    0  0.00000000000E+00 -0.88817841970E-15  0.57321195017E+03  0.73567262765E+03  0.46113151623E+03 0.  0.
      99925    2    3    3    0    0  0.12811065806E+02 -0.58833962978E+01  0.17049144371E+03  0.31373655171E+03  0.26299154690E+03 0.  0.
         25    1    4    4    0    0 -0.19420438599E+02 -0.14053935405E+02  0.11940894909E+03  0.17458714660E+03  0.12509000000E+03 0.  0.
         25    1    4    4    0    0  0.32231504405E+02  0.81705391073E+01  0.51082494626E+02  0.13914940511E+03  0.12509000000E+03 0.  0.
         25    1    3    3    0    0 -0.12811065806E+02  0.58833962978E+01  0.40272050646E+03  0.42193607594E+03  0.12509000000E+03 0.  0.
<mgrwt>
<rscale>  2 0.46113152E+03</rscale>
<asrwt>0</asrwt>
<pdfrwt beam="1">  1       21 0.96241510E-01 0.46113152E+03</pdfrwt>
<pdfrwt beam="2">  1       21 0.11945638E-01 0.46113152E+03</pdfrwt>
<totfact> 0.48621866E+04</totfact>
</mgrwt>
</event>
<event>
 7    0  0.4737014E-002  0.4564288E+03  0.7546771E-02  0.1025822E+00
         21   -1    0    0  502  501  0.00000000000E+00  0.00000000000E+00  0.77757935733E+02  0.77757935733E+02  0.00000000000E+00 0. -1.
         21   -1    0    0  501  502 -0.00000000000E+00 -0.00000000000E+00 -0.66979411915E+03  0.66979411915E+03  0.00000000000E+00 0. -1.
      99926    2    1    2    0    0  0.00000000000E+00  0.00000000000E+00 -0.59203618341E+03  0.74755205488E+03  0.45642878117E+03 0.  0.
      99925    2    3    3    0    0  0.32665296099E+02 -0.89096278556E+02 -0.26662168185E+03  0.38623879143E+03  0.26284618001E+03 0.  0.
         25    1    3    3    0    0 -0.32665296099E+02  0.89096278556E+02 -0.32541450156E+03  0.36131326345E+03  0.12509000000E+03 0.  0.
         25    1    4    4    0    0  0.46241840891E+02 -0.17677214423E+02 -0.12045754593E+03  0.18057774013E+03  0.12509000000E+03 0.  0.
         25    1    4    4    0    0 -0.13576544793E+02 -0.71419064133E+02 -0.14616413593E+03  0.20566105130E+03  0.12509000000E+03 0.  0.
<mgrwt>
<rscale>  2 0.45642878E+03</rscale>
<asrwt>0</asrwt>
<pdfrwt beam="1">  1       21 0.11434991E-01 0.45642878E+03</pdfrwt>
<pdfrwt beam="2">  1       21 0.98499135E-01 0.45642878E+03</pdfrwt>
<totfact> 0.49834049E+04</totfact>
</mgrwt>
</event>
<event>
 7    0  0.4737014E-002  0.4572307E+03  0.7546771E-02  0.1025587E+00
         21   -1    0    0  502  501  0.00000000000E+00  0.00000000000E+00  0.79538210199E+02  0.79538210199E+02  0.00000000000E+00 0. -1.
         21   -1    0    0  501  502 -0.00000000000E+00 -0.00000000000E+00 -0.65710527992E+03  0.65710527992E+03  0.00000000000E+00 0. -1.
      99926    2    1    2    0    0 -0.17763568394E-14  0.14210854715E-13 -0.57756706972E+03  0.73664349012E+03  0.45723069835E+03 0.  0.
      99925    2    3    3    0    0 -0.54880877114E+01 -0.10163534184E+03 -0.44976419822E+03  0.53087433820E+03  0.26302065916E+03 0.  0.
         25    1    4    4    0    0 -0.21201247967E+02 -0.27461745861E+02 -0.15792591813E+03  0.20443029159E+03  0.12509000000E+03 0.  0.
         25    1    3    3    0    0  0.54880877114E+01  0.10163534184E+03 -0.12780287150E+03  0.20576915192E+03  0.12509000000E+03 0.  0.
         25    1    4    4    0    0  0.15713160256E+02 -0.74173595976E+02 -0.29183828009E+03  0.32644404661E+03  0.12509000000E+03 0.  0.
<mgrwt>
<rscale>  2 0.45723070E+03</rscale>
<asrwt>0</asrwt>
<pdfrwt beam="1">  1       21 0.11696796E-01 0.45723070E+03</pdfrwt>
<pdfrwt beam="2">  1       21 0.96633125E-01 0.45723070E+03</pdfrwt>
<totfact> 0.50074207E+04</totfact>
</mgrwt>
</event>
<event>
 7    0  0.4737014E-002  0.4530838E+03  0.7546771E-02  0.1026806E+00
         21   -1    0    0  502  501  0.00000000000E+00  0.00000000000E+00  0.31286228804E+03  0.31286228804E+03  0.00000000000E+00 0.  1.
         21   -1    0    0  501  502 -0.00000000000E+00 -0.00000000000E+00 -0.16403777859E+03  0.16403777859E+03  0.00000000000E+00 0.  1.
      99926    2    1    2    0    0  0.00000000000E+00  0.00000000000E+00  0.14882450945E+03  0.47690006663E+03  0.45308381006E+03 0.  0.
      99925    2    3    3    0    0  0.90734576243E+02  0.56853993186E+02  0.12546853419E+03  0.31059267188E+03  0.26317354519E+03 0.  0.
         25    1    3    3    0    0 -0.90734576243E+02 -0.56853993186E+02  0.23355975263E+02  0.16630739475E+03  0.12509000000E+03 0.  0.
         25    1    4    4    0    0  0.12743105663E+02  0.39421584903E+02  0.84739558259E+02  0.15666763843E+03  0.12509000000E+03 0.  0.
         25    1    4    4    0    0  0.77991470579E+02  0.17432408282E+02  0.40728975929E+02  0.15392503345E+03  0.12509000000E+03 0.  0.
<mgrwt>
<rscale>  2 0.45308381E+03</rscale>
<asrwt>0</asrwt>
<pdfrwt beam="1">  1       21 0.46009160E-01 0.45308381E+03</pdfrwt>
<pdfrwt beam="2">  1       21 0.24123203E-01 0.45308381E+03</pdfrwt>
<totfact> 0.67954067E+04</totfact>
</mgrwt>
</event>
<event>
 7    0  0.4737014E-002  0.4582226E+03  0.7546771E-02  0.1025298E+00
         21   -1    0    0  502  501  0.00000000000E+00  0.00000000000E+00  0.68414545573E+02  0.68414545573E+02  0.00000000000E+00 0.  1.
         21   -1    0    0  501  502 -0.00000000000E+00 -0.00000000000E+00 -0.76726344228E+03  0.76726344228E+03  0.00000000000E+00 0.  1.
      99926    2    1    2    0    0  0.00000000000E+00  0.00000000000E+00 -0.69884889670E+03  0.83567798785E+03  0.45822256487E+03 0.  0.
      99925    2    3    3    0    0 -0.43909703196E+02 -0.19365479144E+02 -0.24548784400E+03  0.36293404445E+03  0.26297101599E+03 0.  0.
         25    1    4    4    0    0 -0.10272104974E+02 -0.91319087390E+01 -0.68221536264E+02  0.14314535972E+03  0.12509000000E+03 0.  0.
         25    1    4    4    0    0 -0.33637598222E+02 -0.10233570405E+02 -0.17726630774E+03  0.21978868473E+03  0.12509000000E+03 0.  0.
         25    1    3    3    0    0  0.43909703196E+02  0.19365479144E+02 -0.45336105270E+03  0.47274394340E+03  0.12509000000E+03 0.  0.
<mgrwt>
<rscale>  2 0.45822256E+03</rscale>
<asrwt>0</asrwt>
<pdfrwt beam="1">  1       21 0.10060963E-01 0.45822256E+03</pdfrwt>
<pdfrwt beam="2">  1       21 0.11283286E+00 0.45822256E+03</pdfrwt>
<totfact> 0.44939953E+04</totfact>
</mgrwt>
</event>
<event>
 7    0  0.4737014E-002  0.4549179E+03  0.7546771E-02  0.1026266E+00
         21   -1    0    0  502  501  0.00000000000E+00  0.00000000000E+00  0.27904349184E+02  0.27904349184E+02  0.00000000000E+00 0. -1.
         21   -1    0    0  501  502 -0.00000000000E+00 -0.00000000000E+00 -0.18541046279E+04  0.18541046279E+04  0.00000000000E+00 0. -1.
      99926    2    1    2    0    0 -0.88817841970E-15  0.11102230246E-15 -0.18262002787E+04  0.18820089771E+04  0.45491793969E+03 0.  0.
      99925    2    3    3    0    0  0.40053101107E+01 -0.30073759856E+00 -0.68181971370E+03  0.73080503397E+03  0.26302422462E+03 0.  0.
         25    1    4    4    0    0  0.66933849760E+01  0.15368510026E+02 -0.44444277896E+03  0.46201502613E+03  0.12509000000E+03 0.  0.
         25    1    3    3    0    0 -0.40053101107E+01  0.30073759856E+00 -0.11443805650E+04  0.11512039431E+04  0.12509000000E+03 0.  0.
         25    1    4    4    0    0 -0.26880748653E+01 -0.15669247625E+02 -0.23737693474E+03  0.26879000784E+03  0.12509000000E+03 0.  0.
<mgrwt>
<rscale>  2 0.45491794E+03</rscale>
<asrwt>0</asrwt>
<pdfrwt beam="1">  1       21 0.41035802E-02 0.45491794E+03</pdfrwt>
<pdfrwt beam="2">  1       21 0.27266248E+00 0.45491794E+03</pdfrwt>
<totfact> 0.15743371E+04</totfact>
</mgrwt>
</event>
<event>
 7    0  0.4737014E-002  0.4559660E+03  0.7546771E-02  0.1025958E+00
         21   -1    0    0  502  501  0.00000000000E+00  0.00000000000E+00  0.16187920275E+03  0.16187920275E+03  0.00000000000E+00 0. -1.
         21   -1    0    0  501  502 -0.00000000000E+00 -0.00000000000E+00 -0.32108043985E+03  0.32108043985E+03  0.00000000000E+00 0. -1.
      99926    2    1    2    0    0  0.00000000000E+00 -0.19428902931E-14 -0.15920123710E+03  0.48295964260E+03  0.45596598830E+03 0.  0.
      99925    2    3    3    0    0 -0.11331918660E+03 -0.25155156149E+00 -0.11418297407E+03  0.30827291318E+03  0.26296983877E+03 0.  0.
         25    1    4    4    0    0 -0.61437628909E+02 -0.39978122591E+02 -0.64085509644E+02  0.15851590828E+03  0.12509000000E+03 0.  0.
         25    1    4    4    0    0 -0.51881557687E+02  0.39726571029E+02 -0.50097464430E+02  0.14975700490E+03  0.12509000000E+03 0.  0.
         25    1    3    3    0    0  0.11331918660E+03  0.25155156149E+00 -0.45018263031E+02  0.17468672942E+03  0.12509000000E+03 0.  0.
<mgrwt>
<rscale>  2 0.45596599E+03</rscale>
<asrwt>0</asrwt>
<pdfrwt beam="1">  1       21 0.23805766E-01 0.45596599E+03</pdfrwt>
<pdfrwt beam="2">  1       21 0.47217711E-01 0.45596599E+03</pdfrwt>
<totfact> 0.65977915E+04</totfact>
</mgrwt>
</event>
<event>
 7    0  0.4737014E-002  0.4467563E+03  0.7546771E-02  0.1028694E+00
         21   -1    0    0  502  501  0.00000000000E+00  0.00000000000E+00  0.63733669841E+03  0.63733669841E+03  0.00000000000E+00 0.  1.
         21   -1    0    0  501  502 -0.00000000000E+00 -0.00000000000E+00 -0.78291109622E+02  0.78291109622E+02  0.00000000000E+00 0.  1.
      99926    2    1    2    0    0 -0.14210854715E-13  0.35527136788E-14  0.55904558879E+03  0.71562780803E+03  0.44675629742E+03 0.  0.
      99925    2    3    3    0    0 -0.10114679002E+03 -0.29154093103E+02  0.35241237912E+03  0.45214075766E+03  0.26297556066E+03 0.  0.
         25    1    4    4    0    0 -0.88010967271E+02  0.41318160367E+01  0.19773405894E+03  0.25001853617E+03  0.12509000000E+03 0.  0.
         25    1    3    3    0    0  0.10114679002E+03  0.29154093103E+02  0.20663320966E+03  0.26348705037E+03  0.12509000000E+03 0.  0.
         25    1    4    4    0    0 -0.13135822749E+02 -0.33285909139E+02  0.15467832018E+03  0.20212222149E+03  0.12509000000E+03 0.  0.
<mgrwt>
<rscale>  2 0.44675630E+03</rscale>
<asrwt>0</asrwt>
<pdfrwt beam="1">  1       21 0.93725983E-01 0.44675630E+03</pdfrwt>
<pdfrwt beam="2">  1       21 0.11513399E-01 0.44675630E+03</pdfrwt>
<totfact> 0.55580230E+04</totfact>
</mgrwt>
</event>
<event>
 7    0  0.4737014E-002  0.4267083E+03  0.7546771E-02  0.1034905E+00
         21   -1    0    0  502  501  0.00000000000E+00  0.00000000000E+00  0.28646474516E+03  0.28646474516E+03  0.00000000000E+00 0. -1.
         21   -1    0    0  501  502 -0.00000000000E+00 -0.00000000000E+00 -0.15890258425E+03  0.15890258425E+03  0.00000000000E+00 0. -1.
      99926    2    1    2    0    0  0.00000000000E+00  0.71054273576E-14  0.12756216091E+03  0.44536732941E+03  0.42670827647E+03 0.  0.
      99925    2    3    3    0    0 -0.17606442887E+02  0.44046097574E+02  0.10646273730E+02  0.26769662750E+03  0.26324531465E+03 0.  0.
         25    1    4    4    0    0 -0.33197772052E+02  0.36635742938E+02  0.35246683854E+02  0.13904713788E+03  0.12509000000E+03 0.  0.
         25    1    3    3    0    0  0.17606442887E+02 -0.44046097574E+02  0.11691588718E+03  0.17767070191E+03  0.12509000000E+03 0.  0.
         25    1    4    4    0    0  0.15591329165E+02  0.74103546364E+01 -0.24600410124E+02  0.12864948962E+03  0.12509000000E+03 0.  0.
<mgrwt>
<rscale>  2 0.42670828E+03</rscale>
<asrwt>0</asrwt>
<pdfrwt beam="1">  1       21 0.42127168E-01 0.42670828E+03</pdfrwt>
<pdfrwt beam="2">  1       21 0.23368027E-01 0.42670828E+03</pdfrwt>
<totfact> 0.87326066E+04</totfact>
</mgrwt>
</event>
<event>
 7    0  0.4737014E-002  0.4546177E+03  0.7546771E-02  0.1026354E+00
         21   -1    0    0  502  501  0.00000000000E+00  0.00000000000E+00  0.89609635055E+02  0.89609635055E+02  0.00000000000E+00 0. -1.
         21   -1    0    0  501  502 -0.00000000000E+00 -0.00000000000E+00 -0.57660456309E+03  0.57660456309E+03  0.00000000000E+00 0. -1.
      99926    2    1    2    0    0 -0.14210854715E-13  0.00000000000E+00 -0.48699492804E+03  0.66621419815E+03  0.45461774919E+03 0.  0.
      99925    2    3    3    0    0 -0.98475032752E+02  0.31288365175E+02 -0.24012865095E+03  0.37080471839E+03  0.26297923169E+03 0.  0.
         25    1    3    3    0    0  0.98475032752E+02 -0.31288365175E+02 -0.24686627709E+03  0.29540947976E+03  0.12509000000E+03 0.  0.
         25    1    4    4    0    0 -0.92487415260E+02  0.18538681834E+02 -0.13283275732E+03  0.20540120307E+03  0.12509000000E+03 0.  0.
         25    1    4    4    0    0 -0.59876174915E+01  0.12749683340E+02 -0.10729589363E+03  0.16540351531E+03  0.12509000000E+03 0.  0.
<mgrwt>
<rscale>  2 0.45461775E+03</rscale>
<asrwt>0</asrwt>
<pdfrwt beam="1">  1       21 0.13177888E-01 0.45461775E+03</pdfrwt>
<pdfrwt beam="2">  1       21 0.84794786E-01 0.45461775E+03</pdfrwt>
<totfact> 0.54941232E+04</totfact>
</mgrwt>
</event>
<event>
 7    0  0.4737014E-002  0.4537171E+03  0.7546771E-02  0.1026619E+00
         21   -1    0    0  502  501  0.00000000000E+00  0.00000000000E+00  0.92404671011E+03  0.92404671011E+03  0.00000000000E+00 0.  1.
         21   -1    0    0  501  502 -0.00000000000E+00 -0.00000000000E+00 -0.55695030831E+02  0.55695030831E+02  0.00000000000E+00 0.  1.
      99926    2    1    2    0    0 -0.71054273576E-14  0.00000000000E+00  0.86835167928E+03  0.97974174094E+03  0.45371713659E+03 0.  0.
      99925    2    3    3    0    0  0.59116394523E+02  0.26062914330E+02  0.34920612682E+03  0.44184431917E+03  0.26288297734E+03 0.  0.
         25    1    4    4    0    0  0.22786438433E+02 -0.27051165554E+02  0.16393271107E+03  0.20921861579E+03  0.12509000000E+03 0.  0.
         25    1    4    4    0    0  0.36329956089E+02  0.53114079884E+02  0.18527341574E+03  0.23262570338E+03  0.12509000000E+03 0.  0.
         25    1    3    3    0    0 -0.59116394523E+02 -0.26062914330E+02  0.51914555246E+03  0.53789742177E+03  0.12509000000E+03 0.  0.
<mgrwt>
<rscale>  2 0.45371714E+03</rscale>
<asrwt>0</asrwt>
<pdfrwt beam="1">  1       21 0.13588921E+00 0.45371714E+03</pdfrwt>
<pdfrwt beam="2">  1       21 0.81904463E-02 0.45371714E+03</pdfrwt>
<totfact> 0.40362482E+04</totfact>
</mgrwt>
</event>
<event>
 7    0  0.4737014E-002  0.4555036E+03  0.7546771E-02  0.1026093E+00
         21   -1    0    0  502  501  0.00000000000E+00  0.00000000000E+00  0.11906478431E+04  0.11906478431E+04  0.00000000000E+00 0.  1.
         21   -1    0    0  501  502 -0.00000000000E+00 -0.00000000000E+00 -0.43565258962E+02  0.43565258962E+02  0.00000000000E+00 0.  1.
      99926    2    1    2    0    0  0.00000000000E+00  0.00000000000E+00  0.11470825842E+04  0.12342131021E+04  0.45550359655E+03 0.  0.
      99925    2    3    3    0    0  0.24207382107E+02  0.11095262593E+03  0.72855323974E+03  0.78286977069E+03  0.26305659502E+03 0.  0.
         25    1    3    3    0    0 -0.24207382107E+02 -0.11095262593E+03  0.41852934442E+03  0.45134333139E+03  0.12509000000E+03 0.  0.
         25    1    4    4    0    0  0.22648682068E+02  0.78260188250E+02  0.29768902540E+03  0.33302234731E+03  0.12509000000E+03 0.  0.
         25    1    4    4    0    0  0.15587000388E+01  0.32692437680E+02  0.43086421433E+03  0.44984742338E+03  0.12509000000E+03 0.  0.
<mgrwt>
<rscale>  2 0.45550360E+03</rscale>
<asrwt>0</asrwt>
<pdfrwt beam="1">  1       21 0.17509525E+00 0.45550360E+03</pdfrwt>
<pdfrwt beam="2">  1       21 0.64066565E-02 0.45550360E+03</pdfrwt>
<totfact> 0.30965149E+04</totfact>
</mgrwt>
</event>
<event>
 7    0  0.4737014E-002  0.4447245E+03  0.7546771E-02  0.1029307E+00
         21   -1    0    0  502  501  0.00000000000E+00  0.00000000000E+00  0.15542854166E+03  0.15542854166E+03  0.00000000000E+00 0.  1.
         21   -1    0    0  501  502 -0.00000000000E+00 -0.00000000000E+00 -0.31812030082E+03  0.31812030082E+03  0.00000000000E+00 0.  1.
      99926    2    1    2    0    0 -0.88817841970E-15  0.00000000000E+00 -0.16269175916E+03  0.47354884248E+03  0.44472451890E+03 0.  0.
      99925    2    3    3    0    0  0.51217847776E+01  0.10258039328E+03 -0.11293075955E+03  0.30421888368E+03  0.26314787282E+03 0.  0.
         25    1    4    4    0    0 -0.21955041512E+02  0.24872637417E+02 -0.75701436174E+02  0.14992960841E+03  0.12509000000E+03 0.  0.
         25    1    3    3    0    0 -0.51217847776E+01 -0.10258039328E+03 -0.49760999609E+02  0.16932995880E+03  0.12509000000E+03 0.  0.
         25    1    4    4    0    0  0.27076826289E+02  0.77707755862E+02 -0.37229323374E+02  0.15428927527E+03  0.12509000000E+03 0.  0.
<mgrwt>
<rscale>  2 0.44472452E+03</rscale>
<asrwt>0</asrwt>
<pdfrwt beam="1">  1       21 0.22857139E-01 0.44472452E+03</pdfrwt>
<pdfrwt beam="2">  1       21 0.46782397E-01 0.44472452E+03</pdfrwt>
<totfact> 0.72942832E+04</totfact>
</mgrwt>
</event>
<event>
 7    0  0.4737014E-002  0.4500582E+03  0.7546771E-02  0.1027705E+00
         21   -1    0    0  502  501  0.00000000000E+00  0.00000000000E+00  0.49952792950E+02  0.49952792950E+02  0.00000000000E+00 0.  1.
         21   -1    0    0  501  502 -0.00000000000E+00 -0.00000000000E+00 -0.10137188619E+04  0.10137188619E+04  0.00000000000E+00 0.  1.
      99926    2    1    2    0    0 -0.71054273576E-14  0.00000000000E+00 -0.96376606894E+03  0.10636716548E+04  0.45005816698E+03 0.  0.
      99925    2    3    3    0    0  0.61353806937E+02 -0.44309108085E+02 -0.79287422281E+03  0.83877363827E+03  0.26299067734E+03 0.  0.
         25    1    3    3    0    0 -0.61353806937E+02  0.44309108085E+02 -0.17089184613E+03  0.22489801657E+03  0.12509000000E+03 0.  0.
         25    1    4    4    0    0  0.22340323523E+02 -0.34748120110E+02 -0.51224184109E+03  0.52890994864E+03  0.12509000000E+03 0.  0.
         25    1    4    4    0    0  0.39013483414E+02 -0.95609879741E+01 -0.28063238172E+03  0.30986368963E+03  0.12509000000E+03 0.  0.
<mgrwt>
<rscale>  2 0.45005817E+03</rscale>
<asrwt>0</asrwt>
<pdfrwt beam="1">  1       21 0.73459992E-02 0.45005817E+03</pdfrwt>
<pdfrwt beam="2">  1       21 0.14907630E+00 0.45005817E+03</pdfrwt>
<totfact> 0.38233071E+04</totfact>
</mgrwt>
</event>
<event>
 7    0  0.4737014E-002  0.4633459E+03  0.7546771E-02  0.1023815E+00
         21   -1    0    0  502  501  0.00000000000E+00  0.00000000000E+00  0.19267026057E+03  0.19267026057E+03  0.00000000000E+00 0. -1.
         21   -1    0    0  501  502 -0.00000000000E+00 -0.00000000000E+00 -0.27857104324E+03  0.27857104324E+03  0.00000000000E+00 0. -1.
      99926    2    1    2    0    0  0.00000000000E+00 -0.14210854715E-13 -0.85900782671E+02  0.47124130380E+03  0.46334589881E+03 0.  0.
      99925    2    3    3    0    0  0.24553976825E+02 -0.11814940696E+03 -0.47239214383E+02  0.29318399532E+03  0.26298884310E+03 0.  0.
         25    1    4    4    0    0 -0.58282851922E+01 -0.25905767715E+02  0.16135800553E+00  0.12787733124E+03  0.12509000000E+03 0.  0.
         25    1    4    4    0    0  0.30382262018E+02 -0.92243639241E+02 -0.47400572389E+02  0.16530666408E+03  0.12509000000E+03 0.  0.
         25    1    3    3    0    0 -0.24553976825E+02  0.11814940696E+03 -0.38661568288E+02  0.17805730848E+03  0.12509000000E+03 0.  0.
<mgrwt>
<rscale>  2 0.46334590E+03</rscale>
<asrwt>0</asrwt>
<pdfrwt beam="1">  1       21 0.28333862E-01 0.46334590E+03</pdfrwt>
<pdfrwt beam="2">  1       21 0.40966330E-01 0.46334590E+03</pdfrwt>
<totfact> 0.63060675E+04</totfact>
</mgrwt>
</event>
<event>
 7    0  0.4737014E-002  0.4802516E+03  0.7546771E-02  0.1019066E+00
         21   -1    0    0  502  501  0.00000000000E+00  0.00000000000E+00  0.44525543590E+03  0.44525543590E+03  0.00000000000E+00 0. -1.
         21   -1    0    0  501  502 -0.00000000000E+00 -0.00000000000E+00 -0.12949960490E+03  0.12949960490E+03  0.00000000000E+00 0. -1.
      99926    2    1    2    0    0  0.00000000000E+00  0.00000000000E+00  0.31575583100E+03  0.57475504081E+03  0.48025161335E+03 0.  0.
      99925    2    3    3    0    0 -0.53866003871E+01 -0.85039279888E+02  0.68448238411E+02  0.28480806628E+03  0.26300148039E+03 0.  0.
         25    1    3    3    0    0  0.53866003871E+01  0.85039279888E+02  0.24730759259E+03  0.28994697453E+03  0.12509000000E+03 0.  0.
         25    1    4    4    0    0 -0.10609325129E+01 -0.77619575849E+02  0.60519938113E+02  0.15917316087E+03  0.12509000000E+03 0.  0.
         25    1    4    4    0    0 -0.43256678742E+01 -0.74197040398E+01  0.79283002982E+01  0.12563490541E+03  0.12509000000E+03 0.  0.
<mgrwt>
<rscale>  2 0.48025161E+03</rscale>
<asrwt>0</asrwt>
<pdfrwt beam="1">  1       21 0.65478740E-01 0.48025161E+03</pdfrwt>
<pdfrwt beam="2">  1       21 0.19044060E-01 0.48025161E+03</pdfrwt>
<totfact> 0.49589194E+04</totfact>
</mgrwt>
</event>
<event>
 7    0  0.4737014E-002  0.4390015E+03  0.7546771E-02  0.1031054E+00
         21   -1    0    0  502  501  0.00000000000E+00  0.00000000000E+00  0.58664732981E+03  0.58664732981E+03  0.00000000000E+00 0.  1.
         21   -1    0    0  501  502 -0.00000000000E+00 -0.00000000000E+00 -0.82128675920E+02  0.82128675920E+02  0.00000000000E+00 0.  1.
      99926    2    1    2    0    0  0.00000000000E+00 -0.44408920985E-15  0.50451865389E+03  0.66877600573E+03  0.43900145070E+03 0.  0.
      99925    2    3    3    0    0 -0.95007895541E+02  0.17330545156E+01  0.35361525362E+03  0.45094844088E+03  0.26321330713E+03 0.  0.
         25    1    4    4    0    0 -0.66157507187E+02 -0.61745181131E+01  0.12632312868E+03  0.18978930784E+03  0.12509000000E+03 0.  0.
         25    1    4    4    0    0 -0.28850388354E+02  0.79075726287E+01  0.22729212494E+03  0.26115913304E+03  0.12509000000E+03 0.  0.
         25    1    3    3    0    0  0.95007895541E+02 -0.17330545156E+01  0.15090340028E+03  0.21782756485E+03  0.12509000000E+03 0.  0.
<mgrwt>
<rscale>  2 0.43900145E+03</rscale>
<asrwt>0</asrwt>
<pdfrwt beam="1">  1       21 0.86271664E-01 0.43900145E+03</pdfrwt>
<pdfrwt beam="2">  1       21 0.12077747E-01 0.43900145E+03</pdfrwt>
<totfact> 0.62094763E+04</totfact>
</mgrwt>
</event>
<event>
 7    0  0.4737014E-002  0.4513767E+03  0.7546771E-02  0.1027312E+00
         21   -1    0    0  502  501  0.00000000000E+00  0.00000000000E+00  0.16898993349E+03  0.16898993349E+03  0.00000000000E+00 0. -1.
         21   -1    0    0  501  502 -0.00000000000E+00 -0.00000000000E+00 -0.30140984513E+03  0.30140984513E+03  0.00000000000E+00 0. -1.
      99926    2    1    2    0    0  0.00000000000E+00  0.35527136788E-14 -0.13241991164E+03  0.47039977862E+03  0.45137669272E+03 0.  0.
      99925    2    3    3    0    0 -0.54758921710E+02  0.18470950162E+02 -0.18082610595E+03  0.32435052920E+03  0.26299328831E+03 0.  0.
         25    1    4    4    0    0 -0.29512135121E+02 -0.28356745844E+02 -0.10726995143E+03  0.16979228997E+03  0.12509000000E+03 0.  0.
         25    1    4    4    0    0 -0.25246786589E+02  0.46827696006E+02 -0.73556154526E+02  0.15455823923E+03  0.12509000000E+03 0.  0.
         25    1    3    3    0    0  0.54758921710E+02 -0.18470950162E+02  0.48406194316E+02  0.14604924942E+03  0.12509000000E+03 0.  0.
<mgrwt>
<rscale>  2 0.45137669E+03</rscale>
<asrwt>0</asrwt>
<pdfrwt beam="1">  1       21 0.24851461E-01 0.45137669E+03</pdfrwt>
<pdfrwt beam="2">  1       21 0.44324977E-01 0.45137669E+03</pdfrwt>
<totfact> 0.69379198E+04</totfact>
</mgrwt>
</event>
<event>
 7    0  0.4737014E-002  0.4542913E+03  0.7546771E-02  0.1026450E+00
         21   -1    0    0  502  501  0.00000000000E+00  0.00000000000E+00  0.19947917456E+02  0.19947917456E+02  0.00000000000E+00 0. -1.
         21   -1    0    0  501  502 -0.00000000000E+00 -0.00000000000E+00 -0.25864928166E+04  0.25864928166E+04  0.00000000000E+00 0. -1.
      99926    2    1    2    0    0  0.00000000000E+00  0.00000000000E+00 -0.25665448992E+04  0.26064407341E+04  0.45429129513E+03 0.  0.
      99925    2    3    3    0    0  0.37021083578E+02  0.54447798609E+02 -0.21396136761E+04  0.21567153726E+04  0.26294370534E+03 0.  0.
         25    1    4    4    0    0  0.54966955252E+02  0.22124536036E+02 -0.96369435675E+03  0.97358368033E+03  0.12509000000E+03 0.  0.
         25    1    4    4    0    0 -0.17945871675E+02  0.32323262572E+02 -0.11759193193E+04  0.11831316923E+04  0.12509000000E+03 0.  0.
         25    1    3    3    0    0 -0.37021083578E+02 -0.54447798609E+02 -0.42693122310E+03  0.44972536148E+03  0.12509000000E+03 0.  0.
<mgrwt>
<rscale>  2 0.45429130E+03</rscale>
<asrwt>0</asrwt>
<pdfrwt beam="1">  1       21 0.29335204E-02 0.45429130E+03</pdfrwt>
<pdfrwt beam="2">  1       21 0.38036618E+00 0.45429130E+03</pdfrwt>
<totfact> 0.61367396E+03</totfact>
</mgrwt>
</event>
<event>
 7    0  0.4737014E-002  0.4485589E+03  0.7546771E-02  0.1028153E+00
         21   -1    0    0  502  501  0.00000000000E+00  0.00000000000E+00  0.93282548613E+02  0.93282548613E+02  0.00000000000E+00 0. -1.
         21   -1    0    0  501  502 -0.00000000000E+00 -0.00000000000E+00 -0.53923563161E+03  0.53923563161E+03  0.00000000000E+00 0. -1.
      99926    2    1    2    0    0  0.00000000000E+00  0.00000000000E+00 -0.44595308300E+03  0.63251818022E+03  0.44855891038E+03 0.  0.
      99925    2    3    3    0    0 -0.17821760493E+02 -0.97039575384E+02 -0.34075267031E+03  0.44160215348E+03  0.26299388832E+03 0.  0.
         25    1    4    4    0    0 -0.20782598475E+02 -0.90135516004E+02 -0.18909907518E+03  0.24487199917E+03  0.12509000000E+03 0.  0.
         25    1    4    4    0    0  0.29608379813E+01 -0.69040593806E+01 -0.15165359513E+03  0.19673015431E+03  0.12509000000E+03 0.  0.
         25    1    3    3    0    0  0.17821760493E+02  0.97039575384E+02 -0.10520041268E+03  0.19091602674E+03  0.12509000000E+03 0.  0.
<mgrwt>
<rscale>  2 0.44855891E+03</rscale>
<asrwt>0</asrwt>
<pdfrwt beam="1">  1       21 0.13718022E-01 0.44855891E+03</pdfrwt>
<pdfrwt beam="2">  1       21 0.79299357E-01 0.44855891E+03</pdfrwt>
<totfact> 0.59697650E+04</totfact>
</mgrwt>
</event>
<event>
 7    0  0.4737014E-002  0.4308387E+03  0.7546771E-02  0.1033595E+00
         21   -1    0    0  502  501  0.00000000000E+00  0.00000000000E+00  0.14471048295E+04  0.14471048295E+04  0.00000000000E+00 0.  1.
         21   -1    0    0  501  502 -0.00000000000E+00 -0.00000000000E+00 -0.32067812403E+02  0.32067812403E+02  0.00000000000E+00 0.  1.
      99926    2    1    2    0    0  0.00000000000E+00  0.00000000000E+00  0.14150370171E+04  0.14791726419E+04  0.43083865286E+03 0.  0.
      99925    2    3    3    0    0  0.62825392965E+02 -0.62236244349E+02  0.92294833442E+03  0.96379010453E+03  0.26312992507E+03 0.  0.
         25    1    3    3    0    0 -0.62825392965E+02  0.62236244349E+02  0.49208868268E+03  0.51538253738E+03  0.12509000000E+03 0.  0.
         25    1    4    4    0    0  0.40781395903E+02 -0.42754420115E+02  0.34448829475E+03  0.37122871119E+03  0.12509000000E+03 0.  0.
         25    1    4    4    0    0  0.22043997062E+02 -0.19481824234E+02  0.57846003967E+03  0.59256139334E+03  0.12509000000E+03 0.  0.
<mgrwt>
<rscale>  2 0.43083865E+03</rscale>
<asrwt>0</asrwt>
<pdfrwt beam="1">  1       21 0.21280949E+00 0.43083865E+03</pdfrwt>
<pdfrwt beam="2">  1       21 0.47158557E-02 0.43083865E+03</pdfrwt>
<totfact> 0.29445151E+04</totfact>
</mgrwt>
</event>
<event>
 7    0  0.4737014E-002  0.4529759E+03  0.7546771E-02  0.1026838E+00
         21   -1    0    0  502  501  0.00000000000E+00  0.00000000000E+00  0.27118647997E+03  0.27118647997E+03  0.00000000000E+00 0.  1.
         21   -1    0    0  501  502 -0.00000000000E+00 -0.00000000000E+00 -0.18915691289E+03  0.18915691289E+03  0.00000000000E+00 0.  1.
      99926    2    1    2    0    0  0.00000000000E+00  0.00000000000E+00  0.82029567080E+02  0.46034339286E+03  0.45297592593E+03 0.  0.
      99925    2    3    3    0    0 -0.29780164242E+01 -0.11957448365E+02  0.16413311315E+03  0.31020895467E+03  0.26294118652E+03 0.  0.
         25    1    4    4    0    0  0.74177606758E+00 -0.34219539758E+02  0.48775350259E+02  0.13855710024E+03  0.12509000000E+03 0.  0.
         25    1    4    4    0    0 -0.37197924917E+01  0.22262091393E+02  0.11535776289E+03  0.17165185443E+03  0.12509000000E+03 0.  0.
         25    1    3    3    0    0  0.29780164242E+01  0.11957448365E+02 -0.82103546074E+02  0.15013443819E+03  0.12509000000E+03 0.  0.
<mgrwt>
<rscale>  2 0.45297593E+03</rscale>
<asrwt>0</asrwt>
<pdfrwt beam="1">  1       21 0.39880365E-01 0.45297593E+03</pdfrwt>
<pdfrwt beam="2">  1       21 0.27817193E-01 0.45297593E+03</pdfrwt>
<totfact> 0.69264981E+04</totfact>
</mgrwt>
</event>
<event>
 7    0  0.4737014E-002  0.4654203E+03  0.7546771E-02  0.1023221E+00
         21   -1    0    0  502  501  0.00000000000E+00  0.00000000000E+00  0.46084818935E+02  0.46084818935E+02  0.00000000000E+00 0. -1.
         21   -1    0    0  501  502 -0.00000000000E+00 -0.00000000000E+00 -0.11750942545E+04  0.11750942545E+04  0.00000000000E+00 0. -1.
      99926    2    1    2    0    0  0.00000000000E+00  0.00000000000E+00 -0.11290094356E+04  0.12211790735E+04  0.46542026579E+03 0.  0.
      99925    2    3    3    0    0 -0.11542459711E+03  0.39021071236E+02 -0.66621585956E+03  0.72653689599E+03  0.26299583283E+03 0.  0.
         25    1    4    4    0    0 -0.27536771428E+02  0.29924270093E+02 -0.24062195603E+03  0.27422649315E+03  0.12509000000E+03 0.  0.
         25    1    3    3    0    0  0.11542459711E+03 -0.39021071236E+02 -0.46279357603E+03  0.49464217747E+03  0.12509000000E+03 0.  0.
         25    1    4    4    0    0 -0.87887825686E+02  0.90968011423E+01 -0.42559390353E+03  0.45231040284E+03  0.12509000000E+03 0.  0.
<mgrwt>
<rscale>  2 0.46542027E+03</rscale>
<asrwt>0</asrwt>
<pdfrwt beam="1">  1       21 0.67771801E-02 0.46542027E+03</pdfrwt>
<pdfrwt beam="2">  1       21 0.17280796E+00 0.46542027E+03</pdfrwt>
<totfact> 0.29060681E+04</totfact>
</mgrwt>
</event>
<event>
 7    0  0.4737014E-002  0.4637991E+03  0.7546771E-02  0.1023685E+00
         21   -1    0    0  502  501  0.00000000000E+00  0.00000000000E+00  0.34048979051E+03  0.34048979051E+03  0.00000000000E+00 0.  1.
         21   -1    0    0  501  502 -0.00000000000E+00 -0.00000000000E+00 -0.15794131518E+03  0.15794131518E+03  0.00000000000E+00 0.  1.
      99926    2    1    2    0    0  0.00000000000E+00  0.71054273576E-14  0.18254847533E+03  0.49843110569E+03  0.46379911738E+03 0.  0.
      99925    2    3    3    0    0  0.10614731964E+03  0.58087892030E+02  0.12173675548E+03  0.31407538965E+03  0.26302482028E+03 0.  0.
         25    1    4    4    0    0  0.93627604646E+02  0.47737468664E+02  0.67860851157E+02  0.17691127009E+03  0.12509000000E+03 0.  0.
         25    1    3    3    0    0 -0.10614731964E+03 -0.58087892030E+02  0.60811719843E+02  0.18435571604E+03  0.12509000000E+03 0.  0.
         25    1    4    4    0    0  0.12519714995E+02  0.10350423366E+02  0.53875904325E+02  0.13716411956E+03  0.12509000000E+03 0.  0.
<mgrwt>
<rscale>  2 0.46379912E+03</rscale>
<asrwt>0</asrwt>
<pdfrwt beam="1">  1       21 0.50072028E-01 0.46379912E+03</pdfrwt>
<pdfrwt beam="2">  1       21 0.23226664E-01 0.46379912E+03</pdfrwt>
<totfact> 0.61006874E+04</totfact>
</mgrwt>
</event>
<event>
 7    0  0.4737014E-002  0.4541100E+03  0.7546771E-02  0.1026503E+00
         21   -1    0    0  502  501  0.00000000000E+00  0.00000000000E+00  0.29724676358E+02  0.29724676358E+02  0.00000000000E+00 0. -1.
         21   -1    0    0  501  502 -0.00000000000E+00 -0.00000000000E+00 -0.17343828175E+04  0.17343828175E+04  0.00000000000E+00 0. -1.
      99926    2    1    2    0    0  0.00000000000E+00  0.00000000000E+00 -0.17046581412E+04  0.17641074939E+04  0.45410997757E+03 0.  0.
      99925    2    3    3    0    0  0.57582858214E+02 -0.95205816547E+02 -0.11363218237E+04  0.11716265989E+04  0.26287195966E+03 0.  0.
         25    1    4    4    0    0  0.42825237828E+02 -0.16917073499E+02 -0.63443443039E+03  0.64828600397E+03  0.12509000000E+03 0.  0.
         25    1    4    4    0    0  0.14757620386E+02 -0.78288743048E+02 -0.50188739326E+03  0.52334059489E+03  0.12509000000E+03 0.  0.
         25    1    3    3    0    0 -0.57582858214E+02  0.95205816547E+02 -0.56833631751E+03  0.59248089502E+03  0.12509000000E+03 0.  0.
<mgrwt>
<rscale>  2 0.45410998E+03</rscale>
<asrwt>0</asrwt>
<pdfrwt beam="1">  1       21 0.43712762E-02 0.45410998E+03</pdfrwt>
<pdfrwt beam="2">  1       21 0.25505628E+00 0.45410998E+03</pdfrwt>
<totfact> 0.18084058E+04</totfact>
</mgrwt>
</event>
<event>
 7    0  0.4737014E-002  0.4497934E+03  0.7546771E-02  0.1027784E+00
         21   -1    0    0  502  501  0.00000000000E+00  0.00000000000E+00  0.17715146215E+02  0.17715146215E+02  0.00000000000E+00 0. -1.
         21   -1    0    0  501  502 -0.00000000000E+00 -0.00000000000E+00 -0.28551005110E+04  0.28551005110E+04  0.00000000000E+00 0. -1.
      99926    2    1    2    0    0 -0.88817841970E-15  0.00000000000E+00 -0.28373853648E+04  0.28728156572E+04  0.44979338817E+03 0.  0.
      99925    2    3    3    0    0  0.68463795686E+01 -0.98303584578E+02 -0.15098641231E+04  0.15357776537E+04  0.26308337782E+03 0.  0.
         25    1    3    3    0    0 -0.68463795686E+01  0.98303584578E+02 -0.13275212417E+04  0.13370380035E+04  0.12509000000E+03 0.  0.
         25    1    4    4    0    0  0.11979970709E+02 -0.39109731992E+02 -0.52596778490E+03  0.54218328053E+03  0.12509000000E+03 0.  0.
         25    1    4    4    0    0 -0.51335911403E+01 -0.59193852586E+02 -0.98389633819E+03  0.99359437315E+03  0.12509000000E+03 0.  0.
<mgrwt>
<rscale>  2 0.44979339E+03</rscale>
<asrwt>0</asrwt>
<pdfrwt beam="1">  1       21 0.26051695E-02 0.44979339E+03</pdfrwt>
<pdfrwt beam="2">  1       21 0.41986757E+00 0.44979339E+03</pdfrwt>
<totfact> 0.41868830E+03</totfact>
</mgrwt>
</event>
<event>
 7    0  0.4737014E-002  0.4553314E+03  0.7546771E-02  0.1026144E+00
         21   -1    0    0  502  501  0.00000000000E+00  0.00000000000E+00  0.22448240122E+03  0.22448240122E+03  0.00000000000E+00 0. -1.
         21   -1    0    0  501  502 -0.00000000000E+00 -0.00000000000E+00 -0.23089413604E+03  0.23089413604E+03  0.00000000000E+00 0. -1.
      99926    2    1    2    0    0  0.14210854715E-13  0.71054273576E-14 -0.64117348129E+01  0.45537653726E+03  0.45533139618E+03 0.  0.
      99925    2    3    3    0    0 -0.10039917870E+03 -0.44309217240E+02 -0.33107944847E+02  0.28684316505E+03  0.26294403114E+03 0.  0.
         25    1    3    3    0    0  0.10039917870E+03  0.44309217240E+02  0.26696210034E+02  0.16853337221E+03  0.12509000000E+03 0.  0.
         25    1    4    4    0    0 -0.74423076657E+02 -0.21561523475E+02 -0.51249876131E+02  0.15581319436E+03  0.12509000000E+03 0.  0.
         25    1    4    4    0    0 -0.25976102045E+02 -0.22747693765E+02  0.18141931284E+02  0.13102997069E+03  0.12509000000E+03 0.  0.
<mgrwt>
<rscale>  2 0.45533140E+03</rscale>
<asrwt>0</asrwt>
<pdfrwt beam="1">  1       21 0.33012118E-01 0.45533140E+03</pdfrwt>
<pdfrwt beam="2">  1       21 0.33955020E-01 0.45533140E+03</pdfrwt>
<totfact> 0.68337340E+04</totfact>
</mgrwt>
</event>
<event>
 7    0  0.4737014E-002  0.4530165E+03  0.7546771E-02  0.1026826E+00
         21   -1    0    0  502  501  0.00000000000E+00  0.00000000000E+00  0.12357410044E+03  0.12357410044E+03  0.00000000000E+00 0. -1.
         21   -1    0    0  501  502 -0.00000000000E+00 -0.00000000000E+00 -0.41518404494E+03  0.41518404494E+03  0.00000000000E+00 0. -1.
      99926    2    1    2    0    0  0.00000000000E+00  0.35527136788E-14 -0.29160994450E+03  0.53875814537E+03  0.45301653333E+03 0.  0.
      99925    2    3    3    0    0  0.27850329464E+02 -0.20269400920E+02 -0.30963530125E+03  0.40776611870E+03  0.26308306353E+03 0.  0.
         25    1    4    4    0    0  0.18515950222E+02 -0.20242806637E+02 -0.21647310843E+03  0.25151685114E+03  0.12509000000E+03 0.  0.
         25    1    3    3    0    0 -0.27850329464E+02  0.20269400920E+02  0.18025356752E+02  0.13099202667E+03  0.12509000000E+03 0.  0.
         25    1    4    4    0    0  0.93343792418E+01 -0.26594282912E-01 -0.93162192816E+02  0.15624926756E+03  0.12509000000E+03 0.  0.
<mgrwt>
<rscale>  2 0.45301653E+03</rscale>
<asrwt>0</asrwt>
<pdfrwt beam="1">  1       21 0.18172662E-01 0.45301653E+03</pdfrwt>
<pdfrwt beam="2">  1       21 0.61056478E-01 0.45301653E+03</pdfrwt>
<totfact> 0.63608172E+04</totfact>
</mgrwt>
</event>
<event>
 7    0  0.4737014E-002  0.4611254E+03  0.7546771E-02  0.1024455E+00
         21   -1    0    0  502  501  0.00000000000E+00  0.00000000000E+00  0.79212803393E+03  0.79212803393E+03  0.00000000000E+00 0. -1.
         21   -1    0    0  501  502 -0.00000000000E+00 -0.00000000000E+00 -0.67109286630E+02  0.67109286630E+02  0.00000000000E+00 0. -1.
      99926    2    1    2    0    0 -0.14210854715E-13  0.00000000000E+00  0.72501874730E+03  0.85923732056E+03  0.46112535075E+03 0.  0.
      99925    2    3    3    0    0 -0.64116543568E+02 -0.10043672566E+03  0.47174279771E+03  0.55265179944E+03  0.26207685363E+03 0.  0.
         25    1    3    3    0    0  0.64116543568E+02  0.10043672566E+03  0.25327594959E+03  0.30658552112E+03  0.12509000000E+03 0.  0.
         25    1    4    4    0    0 -0.46859105162E+02 -0.73179037748E+02  0.31215168143E+03  0.34732855860E+03  0.12509000000E+03 0.  0.
         25    1    4    4    0    0 -0.17257438406E+02 -0.27257687917E+02  0.15959111629E+03  0.20532324084E+03  0.12509000000E+03 0.  0.
<mgrwt>
<rscale>  2 0.46112535E+03</rscale>
<asrwt>0</asrwt>
<pdfrwt beam="1">  1       21 0.11648941E+00 0.46112535E+03</pdfrwt>
<pdfrwt beam="2">  1       21 0.98690132E-02 0.46112535E+03</pdfrwt>
<totfact> 0.42928893E+04</totfact>
</mgrwt>
</event>
<event>
 7    0  0.4737014E-002  0.4425356E+03  0.7546771E-02  0.1029972E+00
         21   -1    0    0  502  501  0.00000000000E+00  0.00000000000E+00  0.48163289479E+03  0.48163289479E+03  0.00000000000E+00 0.  1.
         21   -1    0    0  501  502 -0.00000000000E+00 -0.00000000000E+00 -0.10165303088E+03  0.10165303088E+03  0.00000000000E+00 0.  1.
      99926    2    1    2    0    0 -0.71054273576E-14 -0.14210854715E-13  0.37997986391E+03  0.58328592568E+03  0.44253561904E+03 0.  0.
      99925    2    3    3    0    0  0.60275449417E+02  0.73764812495E+02  0.19739483878E+03  0.34233120614E+03  0.26296683242E+03 0.  0.
         25    1    3    3    0    0 -0.60275449417E+02 -0.73764812495E+02  0.18258502514E+03  0.24095471954E+03  0.12509000000E+03 0.  0.
         25    1    4    4    0    0  0.11333156961E+02  0.11327698193E+02  0.12460486627E+03  0.17728688049E+03  0.12509000000E+03 0.  0.
         25    1    4    4    0    0  0.48942292455E+02  0.62437114303E+02  0.72789972501E+02  0.16504432565E+03  0.12509000000E+03 0.  0.
<mgrwt>
<rscale>  2 0.44253562E+03</rscale>
<asrwt>0</asrwt>
<pdfrwt beam="1">  1       21 0.70828366E-01 0.44253562E+03</pdfrwt>
<pdfrwt beam="2">  1       21 0.14948975E-01 0.44253562E+03</pdfrwt>
<totfact> 0.65983834E+04</totfact>
</mgrwt>
</event>
<event>
 7    0  0.4737014E-002  0.4453026E+03  0.7546771E-02  0.1029132E+00
         21   -1    0    0  502  501  0.00000000000E+00  0.00000000000E+00  0.16419076042E+03  0.16419076042E+03  0.00000000000E+00 0. -1.
         21   -1    0    0  501  502 -0.00000000000E+00 -0.00000000000E+00 -0.30192687110E+03  0.30192687110E+03  0.00000000000E+00 0. -1.
      99926    2    1    2    0    0  0.14210854715E-13  0.00000000000E+00 -0.13773611068E+03  0.46611763152E+03  0.44530260523E+03 0.  0.
      99925    2    3    3    0    0  0.95162881262E+02 -0.31827871659E+02 -0.11149446060E+03  0.30362110945E+03  0.26398063561E+03 0.  0.
         25    1    4    4    0    0  0.36971055008E+02  0.15627217264E+02 -0.24137150476E+02  0.13357087617E+03  0.12509000000E+03 0.  0.
         25    1    4    4    0    0  0.58191826254E+02 -0.47455088923E+02 -0.87357310122E+02  0.17005023328E+03  0.12509000000E+03 0.  0.
         25    1    3    3    0    0 -0.95162881262E+02  0.31827871659E+02 -0.26241650086E+02  0.16249652207E+03  0.12509000000E+03 0.  0.
<mgrwt>
<rscale>  2 0.44530261E+03</rscale>
<asrwt>0</asrwt>
<pdfrwt beam="1">  1       21 0.24145700E-01 0.44530261E+03</pdfrwt>
<pdfrwt beam="2">  1       21 0.44401010E-01 0.44530261E+03</pdfrwt>
<totfact> 0.73197399E+04</totfact>
</mgrwt>
</event>
<event>
 7    0  0.4737014E-002  0.4610655E+03  0.7546771E-02  0.1024473E+00
         21   -1    0    0  502  501  0.00000000000E+00  0.00000000000E+00  0.25473481255E+03  0.25473481255E+03  0.00000000000E+00 0.  1.
         21   -1    0    0  501  502 -0.00000000000E+00 -0.00000000000E+00 -0.20863010585E+03  0.20863010585E+03  0.00000000000E+00 0.  1.
      99926    2    1    2    0    0  0.00000000000E+00 -0.14210854715E-13  0.46104706698E+02  0.46336491840E+03  0.46106550903E+03 0.  0.
      99925    2    3    3    0    0  0.78141888928E+02  0.83334424625E+02  0.62513050130E+02  0.29316643730E+03  0.26265547280E+03 0.  0.
         25    1    4    4    0    0  0.33765101868E+02  0.19023172794E+02  0.63804810204E+02  0.14567266426E+03  0.12509000000E+03 0.  0.
         25    1    4    4    0    0  0.44376787060E+02  0.64311251831E+02 -0.12917600740E+01  0.14749377304E+03  0.12509000000E+03 0.  0.
         25    1    3    3    0    0 -0.78141888928E+02 -0.83334424625E+02 -0.16408343432E+02  0.17019848109E+03  0.12509000000E+03 0.  0.
<mgrwt>
<rscale>  2 0.46106551E+03</rscale>
<asrwt>0</asrwt>
<pdfrwt beam="1">  1       21 0.37461002E-01 0.46106551E+03</pdfrwt>
<pdfrwt beam="2">  1       21 0.30680898E-01 0.46106551E+03</pdfrwt>
<totfact> 0.64746719E+04</totfact>
</mgrwt>
</event>
<event>
 7    0  0.4737014E-002  0.4554422E+03  0.7546771E-02  0.1026111E+00
         21   -1    0    0  502  501  0.00000000000E+00  0.00000000000E+00  0.25687306616E+03  0.25687306616E+03  0.00000000000E+00 0. -1.
         21   -1    0    0  501  502 -0.00000000000E+00 -0.00000000000E+00 -0.20187756166E+03  0.20187756166E+03  0.00000000000E+00 0. -1.
      99926    2    1    2    0    0  0.00000000000E+00  0.71054273576E-14  0.54995504493E+02  0.45875062782E+03  0.45544223894E+03 0.  0.
      99925    2    3    3    0    0  0.78115712237E+02  0.39073754186E+02 -0.38307414841E+02  0.27991616352E+03  0.26316682505E+03 0.  0.
         25    1    4    4    0    0  0.47651799953E+02  0.50132560094E+02  0.66642814165E+01  0.14309398439E+03  0.12509000000E+03 0.  0.
         25    1    3    3    0    0 -0.78115712237E+02 -0.39073754186E+02  0.93302919335E+02  0.17883446430E+03  0.12509000000E+03 0.  0.
         25    1    4    4    0    0  0.30463912284E+02 -0.11058805908E+02 -0.44971696258E+02  0.13682217914E+03  0.12509000000E+03 0.  0.
<mgrwt>
<rscale>  2 0.45544224E+03</rscale>
<asrwt>0</asrwt>
<pdfrwt beam="1">  1       21 0.37775451E-01 0.45544224E+03</pdfrwt>
<pdfrwt beam="2">  1       21 0.29687877E-01 0.45544224E+03</pdfrwt>
<totfact> 0.68031413E+04</totfact>
</mgrwt>
</event>
<event>
 7    0  0.4737014E-002  0.4589555E+03  0.7546771E-02  0.1025085E+00
         21   -1    0    0  502  501  0.00000000000E+00  0.00000000000E+00  0.56440110927E+03  0.56440110927E+03  0.00000000000E+00 0. -1.
         21   -1    0    0  501  502 -0.00000000000E+00 -0.00000000000E+00 -0.93302516973E+02  0.93302516973E+02  0.00000000000E+00 0. -1.
      99926    2    1    2    0    0  0.00000000000E+00 -0.35527136788E-14  0.47109859229E+03  0.65770362624E+03  0.45895552759E+03 0.  0.
      99925    2    3    3    0    0 -0.44422689268E+02 -0.23309534439E+02  0.44660545638E+03  0.52072139555E+03  0.26301640329E+03 0.  0.
         25    1    3    3    0    0  0.44422689268E+02  0.23309534439E+02  0.24493135912E+02  0.13698223069E+03  0.12509000000E+03 0.  0.
         25    1    4    4    0    0  0.12227114459E+02  0.10626065181E+02  0.21986986517E+03  0.25348112612E+03  0.12509000000E+03 0.  0.
         25    1    4    4    0    0 -0.56649803727E+02 -0.33935599620E+02  0.22673559121E+03  0.26724026943E+03  0.12509000000E+03 0.  0.
<mgrwt>
<rscale>  2 0.45895553E+03</rscale>
<asrwt>0</asrwt>
<pdfrwt beam="1">  1       21 0.83000161E-01 0.45895553E+03</pdfrwt>
<pdfrwt beam="2">  1       21 0.13720959E-01 0.45895553E+03</pdfrwt>
<totfact> 0.53568945E+04</totfact>
</mgrwt>
</event>
<event>
 7    0  0.4737014E-002  0.4542900E+03  0.7546771E-02  0.1026450E+00
         21   -1    0    0  502  501  0.00000000000E+00  0.00000000000E+00  0.26311039537E+02  0.26311039537E+02  0.00000000000E+00 0.  1.
         21   -1    0    0  501  502 -0.00000000000E+00 -0.00000000000E+00 -0.19609581482E+04  0.19609581482E+04  0.00000000000E+00 0.  1.
      99926    2    1    2    0    0 -0.14210854715E-13  0.17763568394E-14 -0.19346471087E+04  0.19872691877E+04  0.45428998390E+03 0.  0.
      99925    2    3    3    0    0  0.95258851288E+02 -0.13313425350E+02 -0.96236096544E+03  0.10022619043E+04  0.26294258107E+03 0.  0.
         25    1    3    3    0    0 -0.95258851288E+02  0.13313425350E+02 -0.97228614323E+03  0.98500728345E+03  0.12509000000E+03 0.  0.
         25    1    4    4    0    0  0.78832160667E+02 -0.35059777854E+02 -0.52151128384E+03  0.54319906558E+03  0.12509000000E+03 0.  0.
         25    1    4    4    0    0  0.16426690621E+02  0.21746352504E+02 -0.44084968161E+03  0.45906283871E+03  0.12509000000E+03 0.  0.
<mgrwt>
<rscale>  2 0.45428998E+03</rscale>
<asrwt>0</asrwt>
<pdfrwt beam="1">  1       21 0.38692694E-02 0.45428998E+03</pdfrwt>
<pdfrwt beam="2">  1       21 0.28837629E+00 0.45428998E+03</pdfrwt>
<totfact> 0.13995651E+04</totfact>
</mgrwt>
</event>
<event>
 7    0  0.4737014E-002  0.4443343E+03  0.7546771E-02  0.1029425E+00
         21   -1    0    0  502  501  0.00000000000E+00  0.00000000000E+00  0.42997318646E+03  0.42997318646E+03  0.00000000000E+00 0. -1.
         21   -1    0    0  501  502 -0.00000000000E+00 -0.00000000000E+00 -0.11479375244E+03  0.11479375244E+03  0.00000000000E+00 0. -1.
      99926    2    1    2    0    0  0.00000000000E+00  0.00000000000E+00  0.31517943401E+03  0.54476693890E+03  0.44433426842E+03 0.  0.
      99925    2    3    3    0    0  0.73161064446E+02 -0.18168870541E+02  0.11458607550E+03  0.29663823684E+03  0.26302400204E+03 0.  0.
         25    1    4    4    0    0  0.12957817635E+02 -0.16097097245E+02  0.19297854925E+02  0.12824561155E+03  0.12509000000E+03 0.  0.
         25    1    3    3    0    0 -0.73161064446E+02  0.18168870541E+02  0.20059335851E+03  0.24812870206E+03  0.12509000000E+03 0.  0.
         25    1    4    4    0    0  0.60203246810E+02 -0.20717732958E+01  0.95288220579E+02  0.16839262529E+03  0.12509000000E+03 0.  0.
<mgrwt>
<rscale>  2 0.44433427E+03</rscale>
<asrwt>0</asrwt>
<pdfrwt beam="1">  1       21 0.63231351E-01 0.44433427E+03</pdfrwt>
<pdfrwt beam="2">  1       21 0.16881434E-01 0.44433427E+03</pdfrwt>
<totfact> 0.67753258E+04</totfact>
</mgrwt>
</event>
<event>
 7    0  0.4737014E-002  0.4540553E+03  0.7546771E-02  0.1026520E+00
         21   -1    0    0  502  501  0.00000000000E+00  0.00000000000E+00  0.56883692577E+03  0.56883692577E+03  0.00000000000E+00 0.  1.
         21   -1    0    0  501  502 -0.00000000000E+00 -0.00000000000E+00 -0.90608667134E+02  0.90608667134E+02  0.00000000000E+00 0.  1.
      99926    2    1    2    0    0  0.71054273576E-14  0.71054273576E-14  0.47822825864E+03  0.65944559291E+03  0.45405530791E+03 0.  0.
      99925    2    3    3    0    0  0.57023989605E+02  0.32925654229E+02  0.43371072990E+03  0.51123914041E+03  0.26253500216E+03 0.  0.
         25    1    4    4    0    0  0.45976297523E+02  0.48586957206E+02  0.19606661809E+03  0.24200028755E+03  0.12509000000E+03 0.  0.
         25    1    4    4    0    0  0.11047692082E+02 -0.15661302977E+02  0.23764411181E+03  0.26923885286E+03  0.12509000000E+03 0.  0.
         25    1    3    3    0    0 -0.57023989605E+02 -0.32925654229E+02  0.44517528736E+02  0.14820645250E+03  0.12509000000E+03 0.  0.
<mgrwt>
<rscale>  2 0.45405531E+03</rscale>
<asrwt>0</asrwt>
<pdfrwt beam="1">  1       21 0.83652488E-01 0.45405531E+03</pdfrwt>
<pdfrwt beam="2">  1       21 0.13324804E-01 0.45405531E+03</pdfrwt>
<totfact> 0.55573060E+04</totfact>
</mgrwt>
</event>
<event>
 7    0  0.4737014E-002  0.4462178E+03  0.7546771E-02  0.1028856E+00
         21   -1    0    0  502  501  0.00000000000E+00  0.00000000000E+00  0.40466755826E+02  0.40466755826E+02  0.00000000000E+00 0. -1.
         21   -1    0    0  501  502 -0.00000000000E+00 -0.00000000000E+00 -0.12300855290E+04  0.12300855290E+04  0.00000000000E+00 0. -1.
      99926    2    1    2    0    0  0.00000000000E+00 -0.71054273576E-14 -0.11896187732E+04  0.12705522848E+04  0.44621775289E+03 0.  0.
      99925    2    3    3    0    0 -0.78597249736E+02 -0.37508779156E+02 -0.92070335787E+03  0.96144478756E+03  0.26286302545E+03 0.  0.
         25    1    4    4    0    0 -0.24913636290E+02  0.10677275709E+02 -0.34716013536E+03  0.37000319076E+03  0.12509000000E+03 0.  0.
         25    1    3    3    0    0  0.78597249736E+02  0.37508779156E+02 -0.26891541532E+03  0.30910749728E+03  0.12509000000E+03 0.  0.
         25    1    4    4    0    0 -0.53683613446E+02 -0.48186054866E+02 -0.57354322251E+03  0.59144159680E+03  0.12509000000E+03 0.  0.
<mgrwt>
<rscale>  2 0.44621775E+03</rscale>
<asrwt>0</asrwt>
<pdfrwt beam="1">  1       21 0.59509938E-02 0.44621775E+03</pdfrwt>
<pdfrwt beam="2">  1       21 0.18089492E+00 0.44621775E+03</pdfrwt>
<totfact> 0.32121282E+04</totfact>
</mgrwt>
</event>
<event>
 7    0  0.4737014E-002  0.4480271E+03  0.7546771E-02  0.1028312E+00
         21   -1    0    0  502  501  0.00000000000E+00  0.00000000000E+00  0.31397278621E+03  0.31397278621E+03  0.00000000000E+00 0.  1.
         21   -1    0    0  501  502 -0.00000000000E+00 -0.00000000000E+00 -0.15982935160E+03  0.15982935160E+03  0.00000000000E+00 0.  1.
      99926    2    1    2    0    0 -0.71054273576E-14  0.00000000000E+00  0.15414343461E+03  0.47380213781E+03  0.44802708329E+03 0.  0.
      99925    2    3    3    0    0  0.51070791943E+02  0.84279496524E+02  0.14084592826E+03  0.31400354239E+03  0.26277250580E+03 0.  0.
         25    1    4    4    0    0  0.21963362578E+02  0.38941924172E+02  0.24937675291E+02  0.13516012172E+03  0.12509000000E+03 0.  0.
         25    1    4    4    0    0  0.29107429365E+02  0.45337572352E+02  0.11590825297E+03  0.17884342067E+03  0.12509000000E+03 0.  0.
         25    1    3    3    0    0 -0.51070791943E+02 -0.84279496524E+02  0.13297506343E+02  0.15979859542E+03  0.12509000000E+03 0.  0.
<mgrwt>
<rscale>  2 0.44802708E+03</rscale>
<asrwt>0</asrwt>
<pdfrwt beam="1">  1       21 0.46172469E-01 0.44802708E+03</pdfrwt>
<pdfrwt beam="2">  1       21 0.23504316E-01 0.44802708E+03</pdfrwt>
<totfact> 0.71002976E+04</totfact>
</mgrwt>
</event>
<event>
 7    0  0.4737014E-002  0.4478677E+03  0.7546771E-02  0.1028360E+00
         21   -1    0    0  502  501  0.00000000000E+00  0.00000000000E+00  0.26823797249E+03  0.26823797249E+03  0.00000000000E+00 0. -1.
         21   -1    0    0  501  502 -0.00000000000E+00 -0.00000000000E+00 -0.18694733803E+03  0.18694733803E+03  0.00000000000E+00 0. -1.
      99926    2    1    2    0    0 -0.14210854715E-13  0.71054273576E-14  0.81290634462E+02  0.45518531052E+03  0.44786772563E+03 0.  0.
      99925    2    3    3    0    0  0.84567562190E+02 -0.60776362290E+02  0.73215217677E+02  0.29221856777E+03  0.26303190769E+03 0.  0.
         25    1    4    4    0    0  0.38974707716E+02 -0.63872440404E+02  0.62554245244E+02  0.15861670209E+03  0.12509000000E+03 0.  0.
         25    1    3    3    0    0 -0.84567562190E+02  0.60776362290E+02  0.80754167849E+01  0.16296674275E+03  0.12509000000E+03 0.  0.
         25    1    4    4    0    0  0.45592854474E+02  0.30960781147E+01  0.10660972433E+02  0.13360186568E+03  0.12509000000E+03 0.  0.
<mgrwt>
<rscale>  2 0.44786773E+03</rscale>
<asrwt>0</asrwt>
<pdfrwt beam="1">  1       21 0.39446761E-01 0.44786773E+03</pdfrwt>
<pdfrwt beam="2">  1       21 0.27492255E-01 0.44786773E+03</pdfrwt>
<totfact> 0.72573189E+04</totfact>
</mgrwt>
</event>
<event>
 7    0  0.4737014E-002  0.4550287E+03  0.7546771E-02  0.1026233E+00
         21   -1    0    0  502  501  0.00000000000E+00  0.00000000000E+00  0.18707106033E+03  0.18707106033E+03  0.00000000000E+00 0.  1.
         21   -1    0    0  501  502 -0.00000000000E+00 -0.00000000000E+00 -0.27670116167E+03  0.27670116167E+03  0.00000000000E+00 0.  1.
      99926    2    1    2    0    0  0.00000000000E+00  0.00000000000E+00 -0.89630101337E+02  0.46377222200E+03  0.45502870111E+03 0.  0.
      99925    2    3    3    0    0  0.67895998059E+02 -0.89412873016E+02 -0.50597446291E+02  0.29121618857E+03  0.26389815933E+03 0.  0.
         25    1    3    3    0    0 -0.67895998059E+02  0.89412873016E+02 -0.39032655046E+02  0.17255603343E+03  0.12509000000E+03 0.  0.
         25    1    4    4    0    0  0.31822615285E+02 -0.39444897516E+00 -0.22820820997E+02  0.13107681872E+03  0.12509000000E+03 0.  0.
         25    1    4    4    0    0  0.36073382774E+02 -0.89018424040E+02 -0.27776625294E+02  0.16013936985E+03  0.12509000000E+03 0.  0.
<mgrwt>
<rscale>  2 0.45502870E+03</rscale>
<asrwt>0</asrwt>
<pdfrwt beam="1">  1       21 0.27510450E-01 0.45502870E+03</pdfrwt>
<pdfrwt beam="2">  1       21 0.40691347E-01 0.45502870E+03</pdfrwt>
<totfact> 0.67885963E+04</totfact>
</mgrwt>
</event>
<event>
 7    0  0.4737014E-002  0.4564043E+03  0.7546771E-02  0.1025829E+00
         21   -1    0    0  502  501  0.00000000000E+00  0.00000000000E+00  0.13520904493E+03  0.13520904493E+03  0.00000000000E+00 0. -1.
         21   -1    0    0  501  502 -0.00000000000E+00 -0.00000000000E+00 -0.38515345874E+03  0.38515345874E+03  0.00000000000E+00 0. -1.
      99926    2    1    2    0    0  0.00000000000E+00  0.71054273576E-14 -0.24994441381E+03  0.52036250367E+03  0.45640434400E+03 0.  0.
      99925    2    3    3    0    0 -0.77473334229E+02 -0.50460241997E+02 -0.23412146889E+03  0.36400961043E+03  0.26294824728E+03 0.  0.
         25    1    3    3    0    0  0.77473334229E+02  0.50460241997E+02 -0.15822944927E+02  0.15635289324E+03  0.12509000000E+03 0.  0.
         25    1    4    4    0    0 -0.53041823502E+02  0.23601454173E+01 -0.82322644396E+02  0.15888212992E+03  0.12509000000E+03 0.  0.
         25    1    4    4    0    0 -0.24431510727E+02 -0.52820387414E+02 -0.15179882449E+03  0.20512748051E+03  0.12509000000E+03 0.  0.
<mgrwt>
<rscale>  2 0.45640434E+03</rscale>
<asrwt>0</asrwt>
<pdfrwt beam="1">  1       21 0.19883683E-01 0.45640434E+03</pdfrwt>
<pdfrwt beam="2">  1       21 0.56640214E-01 0.45640434E+03</pdfrwt>
<totfact> 0.63155957E+04</totfact>
</mgrwt>
</event>
<event>
 7    0  0.4737014E-002  0.4465758E+03  0.7546771E-02  0.1028748E+00
         21   -1    0    0  502  501  0.00000000000E+00  0.00000000000E+00  0.28695454968E+03  0.28695454968E+03  0.00000000000E+00 0. -1.
         21   -1    0    0  501  502 -0.00000000000E+00 -0.00000000000E+00 -0.17374696545E+03  0.17374696545E+03  0.00000000000E+00 0. -1.
      99926    2    1    2    0    0  0.00000000000E+00  0.00000000000E+00  0.11320758423E+03  0.46070151513E+03  0.44657578183E+03 0.  0.
      99925    2    3    3    0    0 -0.20929032039E+02  0.22494715822E+02  0.17514290654E+03  0.31777660872E+03  0.26336837076E+03 0.  0.
         25    1    3    3    0    0  0.20929032039E+02 -0.22494715822E+02 -0.61935322314E+02  0.14292490641E+03  0.12509000000E+03 0.  0.
         25    1    4    4    0    0 -0.30198273608E+02  0.20613992696E+02  0.47237496041E+02  0.13862092755E+03  0.12509000000E+03 0.  0.
         25    1    4    4    0    0  0.92692415694E+01  0.18807231265E+01  0.12790541050E+03  0.17915568116E+03  0.12509000000E+03 0.  0.
<mgrwt>
<rscale>  2 0.44657578E+03</rscale>
<asrwt>0</asrwt>
<pdfrwt beam="1">  1       21 0.42199199E-01 0.44657578E+03</pdfrwt>
<pdfrwt beam="2">  1       21 0.25551024E-01 0.44657578E+03</pdfrwt>
<totfact> 0.72883589E+04</totfact>
</mgrwt>
</event>
<event>
 7    0  0.4737014E-002  0.4540062E+03  0.7546771E-02  0.1026534E+00
         21   -1    0    0  502  501  0.00000000000E+00  0.00000000000E+00  0.37369212214E+03  0.37369212214E+03  0.00000000000E+00 0.  1.
         21   -1    0    0  501  502 -0.00000000000E+00 -0.00000000000E+00 -0.13789533200E+03  0.13789533200E+03  0.00000000000E+00 0.  1.
      99926    2    1    2    0    0  0.17763568394E-14 -0.71054273576E-14  0.23579679015E+03  0.51158745414E+03  0.45400616405E+03 0.  0.
      99925    2    3    3    0    0  0.15690160754E+01 -0.33003261971E+02  0.26938653414E+03  0.37791825008E+03  0.26298559248E+03 0.  0.
         25    1    3    3    0    0 -0.15690160754E+01  0.33003261971E+02 -0.33589743998E+02  0.13366920406E+03  0.12509000000E+03 0.  0.
         25    1    4    4    0    0 -0.23750339040E+02  0.15901057632E+02  0.12630627843E+03  0.18004917747E+03  0.12509000000E+03 0.  0.
         25    1    4    4    0    0  0.25319355115E+02 -0.48904319603E+02  0.14308025572E+03  0.19786907261E+03  0.12509000000E+03 0.  0.
<mgrwt>
<rscale>  2 0.45400616E+03</rscale>
<asrwt>0</asrwt>
<pdfrwt beam="1">  1       21 0.54954724E-01 0.45400616E+03</pdfrwt>
<pdfrwt beam="2">  1       21 0.20278725E-01 0.45400616E+03</pdfrwt>
<totfact> 0.64974974E+04</totfact>
</mgrwt>
</event>
<event>
 7    0  0.4737014E-002  0.4541547E+03  0.7546771E-02  0.1026490E+00
         21   -1    0    0  502  501  0.00000000000E+00  0.00000000000E+00  0.32164655275E+03  0.32164655275E+03  0.00000000000E+00 0.  1.
         21   -1    0    0  501  502 -0.00000000000E+00 -0.00000000000E+00 -0.16031299890E+03  0.16031299890E+03  0.00000000000E+00 0.  1.
      99926    2    1    2    0    0  0.14210854715E-13 -0.71054273576E-14  0.16133355385E+03  0.48195955165E+03  0.45415470253E+03 0.  0.
      99925    2    3    3    0    0 -0.90421211999E+02  0.62113246522E+02  0.12727802738E+03  0.31213217471E+03  0.26304514302E+03 0.  0.
         25    1    3    3    0    0  0.90421211999E+02 -0.62113246522E+02  0.34055526476E+02  0.16982737693E+03  0.12509000000E+03 0.  0.
         25    1    4    4    0    0 -0.22039485748E+02  0.61921043544E+02  0.77280337037E+02  0.16105810491E+03  0.12509000000E+03 0.  0.
         25    1    4    4    0    0 -0.68381726251E+02  0.19220297850E+00  0.49997690338E+02  0.15107406980E+03  0.12509000000E+03 0.  0.
<mgrwt>
<rscale>  2 0.45415470E+03</rscale>
<asrwt>0</asrwt>
<pdfrwt beam="1">  1       21 0.47300964E-01 0.45415470E+03</pdfrwt>
<pdfrwt beam="2">  1       21 0.23575441E-01 0.45415470E+03</pdfrwt>
<totfact> 0.67006216E+04</totfact>
</mgrwt>
</event>
<event>
 7    0  0.4737014E-002  0.4578065E+03  0.7546771E-02  0.1025419E+00
         21   -1    0    0  502  501  0.00000000000E+00  0.00000000000E+00  0.39015584625E+03  0.39015584625E+03  0.00000000000E+00 0. -1.
         21   -1    0    0  501  502 -0.00000000000E+00 -0.00000000000E+00 -0.13429687012E+03  0.13429687012E+03  0.00000000000E+00 0. -1.
      99926    2    1    2    0    0 -0.71054273576E-14  0.00000000000E+00  0.25585897613E+03  0.52445271637E+03  0.45780654871E+03 0.  0.
      99925    2    3    3    0    0 -0.42896511156E+02  0.10731062591E+03  0.15233336044E+03  0.32515208339E+03  0.26298810529E+03 0.  0.
         25    1    3    3    0    0  0.42896511156E+02 -0.10731062591E+03  0.10352561569E+03  0.19930063298E+03  0.12509000000E+03 0.  0.
         25    1    4    4    0    0  0.10607955112E+02  0.65846088210E+02  0.10050434416E+03  0.17377245852E+03  0.12509000000E+03 0.  0.
         25    1    4    4    0    0 -0.53504466268E+02  0.41464537699E+02  0.51829016282E+02  0.15137962487E+03  0.12509000000E+03 0.  0.
<mgrwt>
<rscale>  2 0.45780655E+03</rscale>
<asrwt>0</asrwt>
<pdfrwt beam="1">  1       21 0.57375860E-01 0.45780655E+03</pdfrwt>
<pdfrwt beam="2">  1       21 0.19749540E-01 0.45780655E+03</pdfrwt>
<totfact> 0.62188326E+04</totfact>
</mgrwt>
</event>
<event>
 7    0  0.4737014E-002  0.4540458E+03  0.7546771E-02  0.1026522E+00
         21   -1    0    0  502  501  0.00000000000E+00  0.00000000000E+00  0.11258084902E+03  0.11258084902E+03  0.00000000000E+00 0. -1.
         21   -1    0    0  501  502 -0.00000000000E+00 -0.00000000000E+00 -0.45779890661E+03  0.45779890661E+03  0.00000000000E+00 0. -1.
      99926    2    1    2    0    0 -0.14210854715E-13  0.17763568394E-14 -0.34521805759E+03  0.57037975564E+03  0.45404576681E+03 0.  0.
      99925    2    3    3    0    0 -0.85463414184E+02  0.15964437202E+02 -0.30657008197E+03  0.41321731566E+03  0.26306743696E+03 0.  0.
         25    1    3    3    0    0  0.85463414184E+02 -0.15964437202E+02 -0.38647975618E+02  0.15716243997E+03  0.12509000000E+03 0.  0.
         25    1    4    4    0    0 -0.79869564437E+02 -0.97700933569E+01 -0.15252231757E+03  0.21303794851E+03  0.12509000000E+03 0.  0.
         25    1    4    4    0    0 -0.55938497462E+01  0.25734530559E+02 -0.15404776441E+03  0.20017936716E+03  0.12509000000E+03 0.  0.
<mgrwt>
<rscale>  2 0.45404577E+03</rscale>
<asrwt>0</asrwt>
<pdfrwt beam="1">  1       21 0.16556007E-01 0.45404577E+03</pdfrwt>
<pdfrwt beam="2">  1       21 0.67323369E-01 0.45404577E+03</pdfrwt>
<totfact> 0.60998531E+04</totfact>
</mgrwt>
</event>
<event>
 7    0  0.4737014E-002  0.4530389E+03  0.7546771E-02  0.1026820E+00
         21   -1    0    0  502  501  0.00000000000E+00  0.00000000000E+00  0.14208941098E+03  0.14208941098E+03  0.00000000000E+00 0.  1.
         21   -1    0    0  501  502 -0.00000000000E+00 -0.00000000000E+00 -0.36111818540E+03  0.36111818540E+03  0.00000000000E+00 0.  1.
      99926    2    1    2    0    0  0.00000000000E+00  0.00000000000E+00 -0.21902877442E+03  0.50320759638E+03  0.45303893986E+03 0.  0.
      99925    2    3    3    0    0  0.10641624004E+02 -0.94763587687E+02 -0.74376134162E+02  0.28951324422E+03  0.26304510551E+03 0.  0.
         25    1    3    3    0    0 -0.10641624004E+02  0.94763587687E+02 -0.14465264025E+03  0.21369435216E+03  0.12509000000E+03 0.  0.
         25    1    4    4    0    0  0.11181502435E+02 -0.89831428875E+02 -0.35641313322E+02  0.15846931225E+03  0.12509000000E+03 0.  0.
         25    1    4    4    0    0 -0.53987843128E+00 -0.49321588119E+01 -0.38734820839E+02  0.13104393196E+03  0.12509000000E+03 0.  0.
<mgrwt>
<rscale>  2 0.45303894E+03</rscale>
<asrwt>0</asrwt>
<pdfrwt beam="1">  1       21 0.20895501E-01 0.45303894E+03</pdfrwt>
<pdfrwt beam="2">  1       21 0.53105616E-01 0.45303894E+03</pdfrwt>
<totfact> 0.66068329E+04</totfact>
</mgrwt>
</event>
<event>
 7    0  0.4737014E-002  0.4631952E+03  0.7546771E-02  0.1023859E+00
         21   -1    0    0  502  501  0.00000000000E+00  0.00000000000E+00  0.15268005504E+03  0.15268005504E+03  0.00000000000E+00 0. -1.
         21   -1    0    0  501  502 -0.00000000000E+00 -0.00000000000E+00 -0.35130618265E+03  0.35130618265E+03  0.00000000000E+00 0. -1.
      99926    2    1    2    0    0 -0.35527136788E-14  0.71054273576E-14 -0.19862612761E+03  0.50398623769E+03  0.46319519558E+03 0.  0.
      99925    2    3    3    0    0  0.90751971167E+01  0.60184832579E+02 -0.23759375010E+03  0.35951978145E+03  0.26286709549E+03 0.  0.
         25    1    4    4    0    0  0.43316917872E+02  0.36019436449E+02 -0.13411030042E+03  0.19185107754E+03  0.12509000000E+03 0.  0.
         25    1    3    3    0    0 -0.90751971167E+01 -0.60184832579E+02  0.38967622496E+02  0.14446645624E+03  0.12509000000E+03 0.  0.
         25    1    4    4    0    0 -0.34241720755E+02  0.24165396130E+02 -0.10348344968E+03  0.16766870390E+03  0.12509000000E+03 0.  0.
<mgrwt>
<rscale>  2 0.46319520E+03</rscale>
<asrwt>0</asrwt>
<pdfrwt beam="1">  1       21 0.22452949E-01 0.46319520E+03</pdfrwt>
<pdfrwt beam="2">  1       21 0.51662674E-01 0.46319520E+03</pdfrwt>
<totfact> 0.60930216E+04</totfact>
</mgrwt>
</event>
<event>
 7    0  0.4737014E-002  0.4508555E+03  0.7546771E-02  0.1027467E+00
         21   -1    0    0  502  501  0.00000000000E+00  0.00000000000E+00  0.54664200171E+03  0.54664200171E+03  0.00000000000E+00 0.  1.
         21   -1    0    0  501  502 -0.00000000000E+00 -0.00000000000E+00 -0.92963363227E+02  0.92963363227E+02  0.00000000000E+00 0.  1.
      99926    2    1    2    0    0  0.00000000000E+00  0.00000000000E+00  0.45367863848E+03  0.63960536494E+03  0.45085553766E+03 0.  0.
      99925    2    3    3    0    0 -0.77803185032E+02 -0.75495241594E+02  0.26695442209E+03  0.39007318627E+03  0.26294402459E+03 0.  0.
         25    1    3    3    0    0  0.77803185032E+02  0.75495241594E+02  0.18672421639E+03  0.24953217867E+03  0.12509000000E+03 0.  0.
         25    1    4    4    0    0 -0.78973147477E+02 -0.32855893296E+02  0.12875694575E+03  0.19885202268E+03  0.12509000000E+03 0.  0.
         25    1    4    4    0    0  0.11699624449E+01 -0.42639348298E+02  0.13819747635E+03  0.19122116359E+03  0.12509000000E+03 0.  0.
<mgrwt>
<rscale>  2 0.45085554E+03</rscale>
<asrwt>0</asrwt>
<pdfrwt beam="1">  1       21 0.80388528E-01 0.45085554E+03</pdfrwt>
<pdfrwt beam="2">  1       21 0.13671083E-01 0.45085554E+03</pdfrwt>
<totfact> 0.58184047E+04</totfact>
</mgrwt>
</event>
<event>
 7    0  0.4737014E-002  0.4546653E+03  0.7546771E-02  0.1026340E+00
         21   -1    0    0  502  501  0.00000000000E+00  0.00000000000E+00  0.12569064851E+03  0.12569064851E+03  0.00000000000E+00 0.  1.
         21   -1    0    0  501  502 -0.00000000000E+00 -0.00000000000E+00 -0.41116934363E+03  0.41116934363E+03  0.00000000000E+00 0.  1.
      99926    2    1    2    0    0  0.00000000000E+00  0.00000000000E+00 -0.28547869513E+03  0.53685999214E+03  0.45466533383E+03 0.  0.
      99925    2    3    3    0    0 -0.51063510374E+02 -0.97372365176E+02 -0.21007652912E+03  0.35404354231E+03  0.26291790006E+03 0.  0.
         25    1    4    4    0    0  0.13205708393E+02 -0.59104594316E+02 -0.95066261712E+02  0.16838303364E+03  0.12509000000E+03 0.  0.
         25    1    3    3    0    0  0.51063510374E+02  0.97372365176E+02 -0.75402166007E+02  0.18281644983E+03  0.12509000000E+03 0.  0.
         25    1    4    4    0    0 -0.64269218766E+02 -0.38267770860E+02 -0.11501026741E+03  0.18566050866E+03  0.12509000000E+03 0.  0.
<mgrwt>
<rscale>  2 0.45466533E+03</rscale>
<asrwt>0</asrwt>
<pdfrwt beam="1">  1       21 0.18483919E-01 0.45466533E+03</pdfrwt>
<pdfrwt beam="2">  1       21 0.60466080E-01 0.45466533E+03</pdfrwt>
<totfact> 0.62909720E+04</totfact>
</mgrwt>
</event>
<event>
 7    0  0.4737014E-002  0.4549329E+03  0.7546771E-02  0.1026261E+00
         21   -1    0    0  502  501  0.00000000000E+00  0.00000000000E+00  0.65793876191E+02  0.65793876191E+02  0.00000000000E+00 0. -1.
         21   -1    0    0  501  502 -0.00000000000E+00 -0.00000000000E+00 -0.78641045910E+03  0.78641045910E+03  0.00000000000E+00 0. -1.
      99926    2    1    2    0    0  0.00000000000E+00  0.35527136788E-14 -0.72061658291E+03  0.85220433529E+03  0.45493292860E+03 0.  0.
      99925    2    3    3    0    0 -0.80694092610E+02 -0.25531033051E+02 -0.59406077167E+03  0.65515801665E+03  0.26298375637E+03 0.  0.
         25    1    4    4    0    0 -0.25041998348E+02 -0.47480116292E+02 -0.26037425043E+03  0.29380898814E+03  0.12509000000E+03 0.  0.
         25    1    4    4    0    0 -0.55652094262E+02  0.21949083241E+02 -0.33368652124E+03  0.36134902851E+03  0.12509000000E+03 0.  0.
         25    1    3    3    0    0  0.80694092610E+02  0.25531033051E+02 -0.12655581124E+03  0.19704631864E+03  0.12509000000E+03 0.  0.
<mgrwt>
<rscale>  2 0.45493293E+03</rscale>
<asrwt>0</asrwt>
<pdfrwt beam="1">  1       21 0.96755694E-02 0.45493293E+03</pdfrwt>
<pdfrwt beam="2">  1       21 0.11564860E+00 0.45493293E+03</pdfrwt>
<totfact> 0.45364789E+04</totfact>
</mgrwt>
</event>
<event>
 7    0  0.4737014E-002  0.4520559E+03  0.7546771E-02  0.1027111E+00
         21   -1    0    0  502  501  0.00000000000E+00  0.00000000000E+00  0.45480216840E+03  0.45480216840E+03  0.00000000000E+00 0. -1.
         21   -1    0    0  501  502 -0.00000000000E+00 -0.00000000000E+00 -0.11233153998E+03  0.11233153998E+03  0.00000000000E+00 0. -1.
      99926    2    1    2    0    0  0.00000000000E+00  0.71054273576E-14  0.34247062842E+03  0.56713370838E+03  0.45205587249E+03 0.  0.
      99925    2    3    3    0    0  0.53002683931E+02  0.48524316434E+02  0.32127780220E+03  0.42132377123E+03  0.26292660616E+03 0.  0.
         25    1    4    4    0    0  0.34590278004E+01  0.55338490868E+02  0.14362093684E+03  0.19836530705E+03  0.12509000000E+03 0.  0.
         25    1    3    3    0    0 -0.53002683931E+02 -0.48524316434E+02  0.21192826215E+02  0.14580993715E+03  0.12509000000E+03 0.  0.
         25    1    4    4    0    0  0.49543656130E+02 -0.68141744339E+01  0.17765686537E+03  0.22295846418E+03  0.12509000000E+03 0.  0.
<mgrwt>
<rscale>  2 0.45205587E+03</rscale>
<asrwt>0</asrwt>
<pdfrwt beam="1">  1       21 0.66882671E-01 0.45205587E+03</pdfrwt>
<pdfrwt beam="2">  1       21 0.16519344E-01 0.45205587E+03</pdfrwt>
<totfact> 0.62183536E+04</totfact>
</mgrwt>
</event>
<event>
 7    0  0.4737014E-002  0.4503077E+03  0.7546771E-02  0.1027630E+00
         21   -1    0    0  502  501  0.00000000000E+00  0.00000000000E+00  0.10208258215E+04  0.10208258215E+04  0.00000000000E+00 0. -1.
         21   -1    0    0  501  502 -0.00000000000E+00 -0.00000000000E+00 -0.49660048344E+02  0.49660048344E+02  0.00000000000E+00 0. -1.
      99926    2    1    2    0    0  0.00000000000E+00  0.00000000000E+00  0.97116577320E+03  0.10704858699E+04  0.45030771545E+03 0.  0.
      99925    2    3    3    0    0  0.66691830223E+02  0.75459955704E+02  0.71177101808E+03  0.76540366422E+03  0.26283603612E+03 0.  0.
         25    1    4    4    0    0 -0.25927839571E+01  0.55969801175E+02  0.35615716287E+03  0.38162124409E+03  0.12509000000E+03 0.  0.
         25    1    3    3    0    0 -0.66691830223E+02 -0.75459955704E+02  0.25939475511E+03  0.30508220567E+03  0.12509000000E+03 0.  0.
         25    1    4    4    0    0  0.69284614180E+02  0.19490154529E+02  0.35561385521E+03  0.38378242013E+03  0.12509000000E+03 0.  0.
<mgrwt>
<rscale>  2 0.45030772E+03</rscale>
<asrwt>0</asrwt>
<pdfrwt beam="1">  1       21 0.15012143E+00 0.45030772E+03</pdfrwt>
<pdfrwt beam="2">  1       21 0.73029489E-02 0.45030772E+03</pdfrwt>
<totfact> 0.37903559E+04</totfact>
</mgrwt>
</event>
<event>
 7    0  0.4737014E-002  0.4538390E+03  0.7546771E-02  0.1026583E+00
         21   -1    0    0  502  501  0.00000000000E+00  0.00000000000E+00  0.13697629592E+03  0.13697629592E+03  0.00000000000E+00 0.  1.
         21   -1    0    0  501  502 -0.00000000000E+00 -0.00000000000E+00 -0.37592242789E+03  0.37592242789E+03  0.00000000000E+00 0.  1.
      99926    2    1    2    0    0 -0.71054273576E-14  0.14210854715E-13 -0.23894613197E+03  0.51289872380E+03  0.45383900989E+03 0.  0.
      99925    2    3    3    0    0 -0.51767245656E+02  0.99221958159E+02 -0.15783793319E+03  0.32648281055E+03  0.26297027917E+03 0.  0.
         25    1    3    3    0    0  0.51767245656E+02 -0.99221958159E+02 -0.81108198779E+02  0.18641591325E+03  0.12509000000E+03 0.  0.
         25    1    4    4    0    0 -0.53171128346E+02  0.80053619008E+02 -0.70927829756E+02  0.17295668805E+03  0.12509000000E+03 0.  0.
         25    1    4    4    0    0  0.14038826899E+01  0.19168339150E+02 -0.86910103434E+02  0.15352612250E+03  0.12509000000E+03 0.  0.
<mgrwt>
<rscale>  2 0.45383901E+03</rscale>
<asrwt>0</asrwt>
<pdfrwt beam="1">  1       21 0.20143573E-01 0.45383901E+03</pdfrwt>
<pdfrwt beam="2">  1       21 0.55282709E-01 0.45383901E+03</pdfrwt>
<totfact> 0.64970168E+04</totfact>
</mgrwt>
</event>
<event>
 7    0  0.4737014E-002  0.4651865E+03  0.7546771E-02  0.1023288E+00
         21   -1    0    0  502  501  0.00000000000E+00  0.00000000000E+00  0.40837354954E+03  0.40837354954E+03  0.00000000000E+00 0.  1.
         21   -1    0    0  501  502 -0.00000000000E+00 -0.00000000000E+00 -0.13247582523E+03  0.13247582523E+03  0.00000000000E+00 0.  1.
      99926    2    1    2    0    0  0.35527136788E-14  0.71054273576E-14  0.27589772430E+03  0.54084937477E+03  0.46518651304E+03 0.  0.
      99925    2    3    3    0    0 -0.22685875287E+02  0.52033742801E+02  0.45972603674E+02  0.27301504440E+03  0.26306192209E+03 0.  0.
         25    1    4    4    0    0 -0.40075783333E+02 -0.27046637568E+01  0.18909837404E+02  0.13273459860E+03  0.12509000000E+03 0.  0.
         25    1    3    3    0    0  0.22685875287E+02 -0.52033742801E+02  0.22992512063E+03  0.26783433037E+03  0.12509000000E+03 0.  0.
         25    1    4    4    0    0  0.17389908046E+02  0.54738406557E+02  0.27062766270E+02  0.14028044580E+03  0.12509000000E+03 0.  0.
<mgrwt>
<rscale>  2 0.46518651E+03</rscale>
<asrwt>0</asrwt>
<pdfrwt beam="1">  1       21 0.60054933E-01 0.46518651E+03</pdfrwt>
<pdfrwt beam="2">  1       21 0.19481739E-01 0.46518651E+03</pdfrwt>
<totfact> 0.57679086E+04</totfact>
</mgrwt>
</event>
<event>
 7    0  0.4737014E-002  0.4540568E+03  0.7546771E-02  0.1026519E+00
         21   -1    0    0  502  501  0.00000000000E+00  0.00000000000E+00  0.73521416873E+02  0.73521416873E+02  0.00000000000E+00 0. -1.
         21   -1    0    0  501  502 -0.00000000000E+00 -0.00000000000E+00 -0.70104595672E+03  0.70104595672E+03  0.00000000000E+00 0. -1.
      99926    2    1    2    0    0  0.35527136788E-14  0.00000000000E+00 -0.62752453985E+03  0.77456737360E+03  0.45405678954E+03 0.  0.
      99925    2    3    3    0    0 -0.26456536985E+02  0.92818835572E+02 -0.49288285427E+03  0.56698323118E+03  0.26309920529E+03 0.  0.
         25    1    4    4    0    0 -0.45577463648E+02  0.34994896152E+02 -0.20076600214E+03  0.24342646459E+03  0.12509000000E+03 0.  0.
         25    1    4    4    0    0  0.19120926663E+02  0.57823939420E+02 -0.29211685213E+03  0.32355676659E+03  0.12509000000E+03 0.  0.
         25    1    3    3    0    0  0.26456536985E+02 -0.92818835572E+02 -0.13464168558E+03  0.20758414242E+03  0.12509000000E+03 0.  0.
<mgrwt>
<rscale>  2 0.45405679E+03</rscale>
<asrwt>0</asrwt>
<pdfrwt beam="1">  1       21 0.10811974E-01 0.45405679E+03</pdfrwt>
<pdfrwt beam="2">  1       21 0.10309499E+00 0.45405679E+03</pdfrwt>
<totfact> 0.49384193E+04</totfact>
</mgrwt>
</event>
<event>
 7    0  0.4737014E-002  0.4528511E+03  0.7546771E-02  0.1026875E+00
         21   -1    0    0  502  501  0.00000000000E+00  0.00000000000E+00  0.11391801767E+03  0.11391801767E+03  0.00000000000E+00 0. -1.
         21   -1    0    0  501  502 -0.00000000000E+00 -0.00000000000E+00 -0.45004768262E+03  0.45004768262E+03  0.00000000000E+00 0. -1.
      99926    2    1    2    0    0  0.71054273576E-14  0.71054273576E-14 -0.33612966494E+03  0.56396570029E+03  0.45285114491E+03 0.  0.
      99925    2    3    3    0    0 -0.42046966967E+02 -0.60679584469E+02 -0.10889733174E+03  0.29427698945E+03  0.26323061801E+03 0.  0.
         25    1    4    4    0    0  0.11194490637E+02 -0.28496404684E+01 -0.52094212659E+02  0.13599541229E+03  0.12509000000E+03 0.  0.
         25    1    3    3    0    0  0.42046966967E+02  0.60679584469E+02 -0.22723233320E+03  0.26968871084E+03  0.12509000000E+03 0.  0.
         25    1    4    4    0    0 -0.53241457604E+02 -0.57829944001E+02 -0.56803119085E+02  0.15828157716E+03  0.12509000000E+03 0.  0.
<mgrwt>
<rscale>  2 0.45285114E+03</rscale>
<asrwt>0</asrwt>
<pdfrwt beam="1">  1       21 0.16752650E-01 0.45285114E+03</pdfrwt>
<pdfrwt beam="2">  1       21 0.66183482E-01 0.45285114E+03</pdfrwt>
<totfact> 0.61999986E+04</totfact>
</mgrwt>
</event>
<event>
 7    0  0.4737014E-002  0.4610476E+03  0.7546771E-02  0.1024478E+00
         21   -1    0    0  502  501  0.00000000000E+00  0.00000000000E+00  0.72014281399E+02  0.72014281399E+02  0.00000000000E+00 0. -1.
         21   -1    0    0  501  502 -0.00000000000E+00 -0.00000000000E+00 -0.73792614349E+03  0.73792614349E+03  0.00000000000E+00 0. -1.
      99926    2    1    2    0    0  0.00000000000E+00  0.00000000000E+00 -0.66591186210E+03  0.80994042489E+03  0.46104759385E+03 0.  0.
      99925    2    3    3    0    0  0.68151419492E+02  0.67654276194E+02 -0.53946723308E+03  0.60780811829E+03  0.26302869810E+03 0.  0.
         25    1    3    3    0    0 -0.68151419492E+02 -0.67654276194E+02 -0.12644462902E+03  0.20213230660E+03  0.12509000000E+03 0.  0.
         25    1    4    4    0    0  0.64972534508E+02  0.17006851809E+02 -0.23175190365E+03  0.27178505514E+03  0.12509000000E+03 0.  0.
         25    1    4    4    0    0  0.31788849840E+01  0.50647424385E+02 -0.30771532943E+03  0.33602306315E+03  0.12509000000E+03 0.  0.
<mgrwt>
<rscale>  2 0.46104759E+03</rscale>
<asrwt>0</asrwt>
<pdfrwt beam="1">  1       21 0.10590336E-01 0.46104759E+03</pdfrwt>
<pdfrwt beam="2">  1       21 0.10851854E+00 0.46104759E+03</pdfrwt>
<totfact> 0.45108645E+04</totfact>
</mgrwt>
</event>
<event>
 7    0  0.4737014E-002  0.4553123E+03  0.7546771E-02  0.1026150E+00
         21   -1    0    0  502  501  0.00000000000E+00  0.00000000000E+00  0.32784257146E+03  0.32784257146E+03  0.00000000000E+00 0. -1.
         21   -1    0    0  501  502 -0.00000000000E+00 -0.00000000000E+00 -0.15808602012E+03  0.15808602012E+03  0.00000000000E+00 0. -1.
      99926    2    1    2    0    0  0.00000000000E+00  0.00000000000E+00  0.16975655134E+03  0.48592859159E+03  0.45531232072E+03 0.  0.
      99925    2    3    3    0    0 -0.76497741468E+01  0.11249968834E+03  0.92705938731E+02  0.30072868898E+03  0.26292328611E+03 0.  0.
         25    1    4    4    0    0 -0.29092395749E+02  0.22840614319E+02  0.48563599852E+02  0.13919048992E+03  0.12509000000E+03 0.  0.
         25    1    3    3    0    0  0.76497741468E+01 -0.11249968834E+03  0.77050612611E+02  0.18519990260E+03  0.12509000000E+03 0.  0.
         25    1    4    4    0    0  0.21442621602E+02  0.89659074021E+02  0.44142338879E+02  0.16153819907E+03  0.12509000000E+03 0.  0.
<mgrwt>
<rscale>  2 0.45531232E+03</rscale>
<asrwt>0</asrwt>
<pdfrwt beam="1">  1       21 0.48212143E-01 0.45531232E+03</pdfrwt>
<pdfrwt beam="2">  1       21 0.23247944E-01 0.45531232E+03</pdfrwt>
<totfact> 0.66106959E+04</totfact>
</mgrwt>
</event>
<event>
 7    0  0.4737014E-002  0.4473926E+03  0.7546771E-02  0.1028502E+00
         21   -1    0    0  502  501  0.00000000000E+00  0.00000000000E+00  0.58061060438E+03  0.58061060438E+03  0.00000000000E+00 0. -1.
         21   -1    0    0  501  502 -0.00000000000E+00 -0.00000000000E+00 -0.86185183352E+02  0.86185183352E+02  0.00000000000E+00 0. -1.
      99926    2    1    2    0    0  0.35527136788E-14  0.00000000000E+00  0.49442542103E+03  0.66679578773E+03  0.44739258552E+03 0.  0.
      99925    2    3    3    0    0 -0.29914701342E+02  0.71127953705E+02  0.42145358100E+03  0.50270290948E+03  0.26293158637E+03 0.  0.
         25    1    4    4    0    0  0.77205346724E+01  0.31006835244E+02  0.26633280921E+03  0.29597585011E+03  0.12509000000E+03 0.  0.
         25    1    3    3    0    0  0.29914701342E+02 -0.71127953705E+02  0.72971840027E+02  0.16409287825E+03  0.12509000000E+03 0.  0.
         25    1    4    4    0    0 -0.37635236014E+02  0.40121118460E+02  0.15512077179E+03  0.20672705937E+03  0.12509000000E+03 0.  0.
<mgrwt>
<rscale>  2 0.44739259E+03</rscale>
<asrwt>0</asrwt>
<pdfrwt beam="1">  1       21 0.85383911E-01 0.44739259E+03</pdfrwt>
<pdfrwt beam="2">  1       21 0.12674292E-01 0.44739259E+03</pdfrwt>
<totfact> 0.58151470E+04</totfact>
</mgrwt>
</event>
<event>
 7    0  0.4737014E-002  0.4244656E+03  0.7546771E-02  0.1035623E+00
         21   -1    0    0  502  501  0.00000000000E+00  0.00000000000E+00  0.26035482360E+03  0.26035482360E+03  0.00000000000E+00 0.  1.
         21   -1    0    0  501  502 -0.00000000000E+00 -0.00000000000E+00 -0.17300525544E+03  0.17300525544E+03  0.00000000000E+00 0.  1.
      99926    2    1    2    0    0  0.14210854715E-13  0.00000000000E+00  0.87349568160E+02  0.43336007904E+03  0.42446555932E+03 0.  0.
      99925    2    3    3    0    0 -0.70315768356E+02  0.38370543718E+02  0.70852666848E+02  0.28390686978E+03  0.26299506536E+03 0.  0.
         25    1    4    4    0    0 -0.10981185148E+02  0.51568565058E+02  0.38815773659E+02  0.14118808630E+03  0.12509000000E+03 0.  0.
         25    1    4    4    0    0 -0.59334583208E+02 -0.13198021340E+02  0.32036893189E+02  0.14271878348E+03  0.12509000000E+03 0.  0.
         25    1    3    3    0    0  0.70315768356E+02 -0.38370543718E+02  0.16496901312E+02  0.14945320926E+03  0.12509000000E+03 0.  0.
<mgrwt>
<rscale>  2 0.42446556E+03</rscale>
<asrwt>0</asrwt>
<pdfrwt beam="1">  1       21 0.38287474E-01 0.42446556E+03</pdfrwt>
<pdfrwt beam="2">  1       21 0.25441949E-01 0.42446556E+03</pdfrwt>
<totfact> 0.90200172E+04</totfact>
</mgrwt>
</event>
<event>
 7    0  0.4737014E-002  0.4834157E+03  0.7546771E-02  0.1018201E+00
         21   -1    0    0  502  501  0.00000000000E+00  0.00000000000E+00  0.16892476166E+03  0.16892476166E+03  0.00000000000E+00 0. -1.
         21   -1    0    0  501  502 -0.00000000000E+00 -0.00000000000E+00 -0.34585033374E+03  0.34585033374E+03  0.00000000000E+00 0. -1.
      99926    2    1    2    0    0 -0.35527136788E-14  0.28421709430E-13 -0.17692557207E+03  0.51477509540E+03  0.48341570185E+03 0.  0.
      99925    2    3    3    0    0  0.24881453566E+02 -0.13152831507E+03 -0.14423340096E+03  0.32867009668E+03  0.26325268109E+03 0.  0.
         25    1    4    4    0    0  0.62595734420E+01 -0.57861881678E+02 -0.11457065244E+03  0.17933522273E+03  0.12509000000E+03 0.  0.
         25    1    4    4    0    0  0.18621880124E+02 -0.73666433393E+02 -0.29662748520E+02  0.14933487395E+03  0.12509000000E+03 0.  0.
         25    1    3    3    0    0 -0.24881453566E+02  0.13152831507E+03 -0.32692171113E+02  0.18610499872E+03  0.12509000000E+03 0.  0.
<mgrwt>
<rscale>  2 0.48341570E+03</rscale>
<asrwt>0</asrwt>
<pdfrwt beam="1">  1       21 0.24841877E-01 0.48341570E+03</pdfrwt>
<pdfrwt beam="2">  1       21 0.50860343E-01 0.48341570E+03</pdfrwt>
<totfact> 0.51588785E+04</totfact>
</mgrwt>
</event>
<event>
 7    0  0.4737014E-002  0.4642104E+03  0.7546771E-02  0.1023567E+00
         21   -1    0    0  502  501  0.00000000000E+00  0.00000000000E+00  0.35951490208E+03  0.35951490208E+03  0.00000000000E+00 0. -1.
         21   -1    0    0  501  502 -0.00000000000E+00 -0.00000000000E+00 -0.14984862111E+03  0.14984862111E+03  0.00000000000E+00 0. -1.
      99926    2    1    2    0    0  0.00000000000E+00  0.00000000000E+00  0.20966628097E+03  0.50936352319E+03  0.46421035036E+03 0.  0.
      99925    2    3    3    0    0  0.42776357594E+02 -0.11384911557E+03  0.13066664239E+03  0.31784357938E+03  0.26298161843E+03 0.  0.
         25    1    3    3    0    0 -0.42776357594E+02  0.11384911557E+03  0.78999638577E+02  0.19151994382E+03  0.12509000000E+03 0.  0.
         25    1    4    4    0    0  0.50736838759E+01 -0.72991461415E+02  0.30165296648E+02  0.14802347425E+03  0.12509000000E+03 0.  0.
         25    1    4    4    0    0  0.37702673718E+02 -0.40857654154E+02  0.10050134574E+03  0.16982010512E+03  0.12509000000E+03 0.  0.
<mgrwt>
<rscale>  2 0.46421035E+03</rscale>
<asrwt>0</asrwt>
<pdfrwt beam="1">  1       21 0.52869838E-01 0.46421035E+03</pdfrwt>
<pdfrwt beam="2">  1       21 0.22036562E-01 0.46421035E+03</pdfrwt>
<totfact> 0.60102217E+04</totfact>
</mgrwt>
</event>
<event>
 7    0  0.4737014E-002  0.4531966E+03  0.7546771E-02  0.1026773E+00
         21   -1    0    0  502  501  0.00000000000E+00  0.00000000000E+00  0.76348258430E+03  0.76348258430E+03  0.00000000000E+00 0.  1.
         21   -1    0    0  501  502 -0.00000000000E+00 -0.00000000000E+00 -0.67253387421E+02  0.67253387421E+02  0.00000000000E+00 0.  1.
      99926    2    1    2    0    0  0.00000000000E+00 -0.71054273576E-14  0.69622919687E+03  0.83073597172E+03  0.45319660207E+03 0.  0.
      99925    2    3    3    0    0 -0.77020644740E+02 -0.42579440785E+02  0.56532204437E+03  0.62941687384E+03  0.26235738741E+03 0.  0.
         25    1    3    3    0    0  0.77020644740E+02  0.42579440785E+02  0.13090715251E+03  0.20131909788E+03  0.12509000000E+03 0.  0.
         25    1    4    4    0    0 -0.46986607283E+02 -0.34472750403E+02  0.37469775389E+03  0.39930192418E+03  0.12509000000E+03 0.  0.
         25    1    4    4    0    0 -0.30034037457E+02 -0.81066903822E+01  0.19062429048E+03  0.23011494966E+03  0.12509000000E+03 0.  0.
<mgrwt>
<rscale>  2 0.45319660E+03</rscale>
<asrwt>0</asrwt>
<pdfrwt beam="1">  1       21 0.11227685E+00 0.45319660E+03</pdfrwt>
<pdfrwt beam="2">  1       21 0.98902045E-02 0.45319660E+03</pdfrwt>
<totfact> 0.46974957E+04</totfact>
</mgrwt>
</event>
<event>
 7    0  0.4737014E-002  0.4519632E+03  0.7546771E-02  0.1027138E+00
         21   -1    0    0  502  501  0.00000000000E+00  0.00000000000E+00  0.26810264193E+03  0.26810264193E+03  0.00000000000E+00 0. -1.
         21   -1    0    0  501  502 -0.00000000000E+00 -0.00000000000E+00 -0.19047809614E+03  0.19047809614E+03  0.00000000000E+00 0. -1.
      99926    2    1    2    0    0  0.17763568394E-14  0.00000000000E+00  0.77624545792E+02  0.45858073807E+03  0.45196318791E+03 0.  0.
      99925    2    3    3    0    0 -0.88510037314E+01  0.10477039045E+03  0.14768036937E+02  0.28349897493E+03  0.26286574309E+03 0.  0.
         25    1    4    4    0    0 -0.10136586074E+02  0.79246439270E+02  0.39184768022E+02  0.15351124603E+03  0.12509000000E+03 0.  0.
         25    1    3    3    0    0  0.88510037314E+01 -0.10477039045E+03  0.62856508854E+02  0.17508176315E+03  0.12509000000E+03 0.  0.
         25    1    4    4    0    0  0.12855823430E+01  0.25523951178E+02 -0.24416731084E+02  0.12998772889E+03  0.12509000000E+03 0.  0.
<mgrwt>
<rscale>  2 0.45196319E+03</rscale>
<asrwt>0</asrwt>
<pdfrwt beam="1">  1       21 0.39426859E-01 0.45196319E+03</pdfrwt>
<pdfrwt beam="2">  1       21 0.28011485E-01 0.45196319E+03</pdfrwt>
<totfact> 0.69962982E+04</totfact>
</mgrwt>
</event>
<event>
 7    0  0.4737014E-002  0.4545830E+03  0.7546771E-02  0.1026364E+00
         21   -1    0    0  502  501  0.00000000000E+00  0.00000000000E+00  0.13938871429E+03  0.13938871429E+03  0.00000000000E+00 0. -1.
         21   -1    0    0  501  502 -0.00000000000E+00 -0.00000000000E+00 -0.37062847553E+03  0.37062847553E+03  0.00000000000E+00 0. -1.
      99926    2    1    2    0    0  0.44408920985E-15  0.00000000000E+00 -0.23123976125E+03  0.51001718982E+03  0.45458300313E+03 0.  0.
      99925    2    3    3    0    0 -0.25085539040E+01 -0.11030588704E+03 -0.11971819307E+03  0.30937260398E+03  0.26306896583E+03 0.  0.
         25    1    4    4    0    0 -0.56210442892E+01 -0.16550766953E+02 -0.74366214716E+02  0.14657205060E+03  0.12509000000E+03 0.  0.
         25    1    3    3    0    0  0.25085539040E+01  0.11030588704E+03 -0.11152156818E+03  0.20064458584E+03  0.12509000000E+03 0.  0.
         25    1    4    4    0    0  0.31124903852E+01 -0.93755120091E+02 -0.45351978350E+02  0.16280055338E+03  0.12509000000E+03 0.  0.
<mgrwt>
<rscale>  2 0.45458300E+03</rscale>
<asrwt>0</asrwt>
<pdfrwt beam="1">  1       21 0.20498341E-01 0.45458300E+03</pdfrwt>
<pdfrwt beam="2">  1       21 0.54504186E-01 0.45458300E+03</pdfrwt>
<totfact> 0.64786636E+04</totfact>
</mgrwt>
</event>
<event>
 7    0  0.4737014E-002  0.4656547E+03  0.7546771E-02  0.1023154E+00
         21   -1    0    0  502  501  0.00000000000E+00  0.00000000000E+00  0.92911920086E+02  0.92911920086E+02  0.00000000000E+00 0. -1.
         21   -1    0    0  501  502 -0.00000000000E+00 -0.00000000000E+00 -0.58344042906E+03  0.58344042906E+03  0.00000000000E+00 0. -1.
      99926    2    1    2    0    0  0.00000000000E+00  0.00000000000E+00 -0.49052850897E+03  0.67635234914E+03  0.46565468115E+03 0.  0.
      99925    2    3    3    0    0 -0.42474589669E+01 -0.10807384503E+03 -0.22131077006E+03  0.36040346731E+03  0.26308592782E+03 0.  0.
         25    1    4    4    0    0  0.32113055429E+01 -0.86631383005E+02 -0.86311771199E+02  0.17496439338E+03  0.12509000000E+03 0.  0.
         25    1    4    4    0    0 -0.74587645098E+01 -0.21442462023E+02 -0.13499899886E+03  0.18543907393E+03  0.12509000000E+03 0.  0.
         25    1    3    3    0    0  0.42474589669E+01  0.10807384503E+03 -0.26921773891E+03  0.31594888183E+03  0.12509000000E+03 0.  0.
<mgrwt>
<rscale>  2 0.46565468E+03</rscale>
<asrwt>0</asrwt>
<pdfrwt beam="1">  1       21 0.13663517E-01 0.46565468E+03</pdfrwt>
<pdfrwt beam="2">  1       21 0.85800067E-01 0.46565468E+03</pdfrwt>
<totfact> 0.49883115E+04</totfact>
</mgrwt>
</event>
<event>
 7    0  0.4737014E-002  0.4635839E+03  0.7546771E-02  0.1023747E+00
         21   -1    0    0  502  501  0.00000000000E+00  0.00000000000E+00  0.60520301990E+02  0.60520301990E+02  0.00000000000E+00 0. -1.
         21   -1    0    0  501  502 -0.00000000000E+00 -0.00000000000E+00 -0.88776011925E+03  0.88776011925E+03  0.00000000000E+00 0. -1.
      99926    2    1    2    0    0  0.00000000000E+00  0.00000000000E+00 -0.82723981726E+03  0.94828042124E+03  0.46358391047E+03 0.  0.
      99925    2    3    3    0    0 -0.23113693607E+02 -0.30039562341E+02 -0.28135371398E+03  0.38696432135E+03  0.26295409389E+03 0.  0.
         25    1    4    4    0    0 -0.22627079687E+02 -0.21568887216E+02 -0.86519031882E+02  0.15527476488E+03  0.12509000000E+03 0.  0.
         25    1    4    4    0    0 -0.48661391921E+00 -0.84706751256E+01 -0.19483468210E+03  0.23168955647E+03  0.12509000000E+03 0.  0.
         25    1    3    3    0    0  0.23113693607E+02  0.30039562341E+02 -0.54588610328E+03  0.56131609989E+03  0.12509000000E+03 0.  0.
<mgrwt>
<rscale>  2 0.46358391E+03</rscale>
<asrwt>0</asrwt>
<pdfrwt beam="1">  1       21 0.89000451E-02 0.46358391E+03</pdfrwt>
<pdfrwt beam="2">  1       21 0.13055295E+00 0.46358391E+03</pdfrwt>
<totfact> 0.38556521E+04</totfact>
</mgrwt>
</event>
<event>
 7    0  0.4737014E-002  0.4259328E+03  0.7546771E-02  0.1035153E+00
         21   -1    0    0  502  501  0.00000000000E+00  0.00000000000E+00  0.12353005772E+03  0.12353005772E+03  0.00000000000E+00 0.  1.
         21   -1    0    0  501  502 -0.00000000000E+00 -0.00000000000E+00 -0.36715512305E+03  0.36715512305E+03  0.00000000000E+00 0.  1.
      99926    2    1    2    0    0  0.00000000000E+00  0.00000000000E+00 -0.24362506533E+03  0.49068518078E+03  0.42593282825E+03 0.  0.
      99925    2    3    3    0    0 -0.25336568932E+02  0.79002381558E+02 -0.16690983453E+03  0.32211456426E+03  0.26270816818E+03 0.  0.
         25    1    3    3    0    0  0.25336568932E+02 -0.79002381558E+02 -0.76715230797E+02  0.16857061652E+03  0.12509000000E+03 0.  0.
         25    1    4    4    0    0 -0.47958512257E+01  0.39707802966E+02 -0.37097435011E+02  0.13646771629E+03  0.12509000000E+03 0.  0.
         25    1    4    4    0    0 -0.20540717706E+02  0.39294578593E+02 -0.12981239952E+03  0.18564684797E+03  0.12509000000E+03 0.  0.
<mgrwt>
<rscale>  2 0.42593283E+03</rscale>
<asrwt>0</asrwt>
<pdfrwt beam="1">  1       21 0.18166185E-01 0.42593283E+03</pdfrwt>
<pdfrwt beam="2">  1       21 0.53993400E-01 0.42593283E+03</pdfrwt>
<totfact> 0.83614570E+04</totfact>
</mgrwt>
</event>
<event>
 7    0  0.4737014E-002  0.4153609E+03  0.7546771E-02  0.1038587E+00
         21   -1    0    0  502  501  0.00000000000E+00  0.00000000000E+00  0.36692141607E+02  0.36692141607E+02  0.00000000000E+00 0.  1.
         21   -1    0    0  501  502 -0.00000000000E+00 -0.00000000000E+00 -0.11754878720E+04  0.11754878720E+04  0.00000000000E+00 0.  1.
      99926    2    1    2    0    0  0.44408920985E-15  0.00000000000E+00 -0.11387957304E+04  0.12121800136E+04  0.41536089107E+03 0.  0.
      99925    2    3    3    0    0  0.35570980736E+01  0.59120004227E+02 -0.63018168348E+03  0.68507131072E+03  0.26207998536E+03 0.  0.
         25    1    4    4    0    0  0.10256262373E+02  0.60670863400E+02 -0.27256603718E+03  0.30614685578E+03  0.12509000000E+03 0.  0.
         25    1    4    4    0    0 -0.66991642995E+01 -0.15508591736E+01 -0.35761564630E+03  0.37892445493E+03  0.12509000000E+03 0.  0.
         25    1    3    3    0    0 -0.35570980736E+01 -0.59120004227E+02 -0.50861404695E+03  0.52710870292E+03  0.12509000000E+03 0.  0.
<mgrwt>
<rscale>  2 0.41536089E+03</rscale>
<asrwt>0</asrwt>
<pdfrwt beam="1">  1       21 0.53959035E-02 0.41536089E+03</pdfrwt>
<pdfrwt beam="2">  1       21 0.17286585E+00 0.41536089E+03</pdfrwt>
<totfact> 0.43812126E+04</totfact>
</mgrwt>
</event>
<event>
 7    0  0.4737014E-002  0.4750301E+03  0.7546771E-02  0.1020510E+00
         21   -1    0    0  502  501  0.00000000000E+00  0.00000000000E+00  0.70397043239E+02  0.70397043239E+02  0.00000000000E+00 0. -1.
         21   -1    0    0  501  502 -0.00000000000E+00 -0.00000000000E+00 -0.80136018329E+03  0.80136018329E+03  0.00000000000E+00 0. -1.
      99926    2    1    2    0    0 -0.88817841970E-15  0.14210854715E-13 -0.73096314005E+03  0.87175722653E+03  0.47503005157E+03 0.  0.
      99925    2    3    3    0    0 -0.45968158506E+01 -0.12120215569E+03 -0.36085422965E+03  0.46268607512E+03  0.26296679599E+03 0.  0.
         25    1    4    4    0    0 -0.15574429150E+02 -0.29378497867E+02 -0.20528358162E+03  0.24268192344E+03  0.12509000000E+03 0.  0.
         25    1    3    3    0    0  0.45968158506E+01  0.12120215569E+03 -0.37010891040E+03  0.40907115141E+03  0.12509000000E+03 0.  0.
         25    1    4    4    0    0  0.10977613299E+02 -0.91823657818E+02 -0.15557064803E+03  0.22000415168E+03  0.12509000000E+03 0.  0.
<mgrwt>
<rscale>  2 0.47503005E+03</rscale>
<asrwt>0</asrwt>
<pdfrwt beam="1">  1       21 0.10352507E-01 0.47503005E+03</pdfrwt>
<pdfrwt beam="2">  1       21 0.11784708E+00 0.47503005E+03</pdfrwt>
<totfact> 0.38128938E+04</totfact>
</mgrwt>
</event>
<event>
 7    0  0.4737014E-002  0.4513023E+03  0.7546771E-02  0.1027334E+00
         21   -1    0    0  502  501  0.00000000000E+00  0.00000000000E+00  0.67167210537E+03  0.67167210537E+03  0.00000000000E+00 0. -1.
         21   -1    0    0  501  502 -0.00000000000E+00 -0.00000000000E+00 -0.75808466830E+02  0.75808466830E+02  0.00000000000E+00 0. -1.
      99926    2    1    2    0    0  0.00000000000E+00  0.00000000000E+00  0.59586363854E+03  0.74748057220E+03  0.45130226022E+03 0.  0.
      99925    2    3    3    0    0  0.10831170886E+03 -0.15607001839E+02  0.38747824948E+03  0.48093417238E+03  0.26302714605E+03 0.  0.
         25    1    4    4    0    0  0.76768411536E+02 -0.33830782020E+02  0.24732251980E+03  0.28957528852E+03  0.12509000000E+03 0.  0.
         25    1    3    3    0    0 -0.10831170886E+03  0.15607001839E+02  0.20838538906E+03  0.26654639982E+03  0.12509000000E+03 0.  0.
         25    1    4    4    0    0  0.31543297326E+02  0.18223780181E+02  0.14015572968E+03  0.19135888386E+03  0.12509000000E+03 0.  0.
<mgrwt>
<rscale>  2 0.45130226E+03</rscale>
<asrwt>0</asrwt>
<pdfrwt beam="1">  1       21 0.98775306E-01 0.45130226E+03</pdfrwt>
<pdfrwt beam="2">  1       21 0.11148304E-01 0.45130226E+03</pdfrwt>
<totfact> 0.51891528E+04</totfact>
</mgrwt>
</event>
<event>
 7    0  0.4737014E-002  0.4630993E+03  0.7546771E-02  0.1023886E+00
         21   -1    0    0  502  501  0.00000000000E+00  0.00000000000E+00  0.77167501169E+03  0.77167501169E+03  0.00000000000E+00 0. -1.
         21   -1    0    0  501  502 -0.00000000000E+00 -0.00000000000E+00 -0.69479050737E+02  0.69479050737E+02  0.00000000000E+00 0. -1.
      99926    2    1    2    0    0  0.17763568394E-14  0.00000000000E+00  0.70219596095E+03  0.84115406243E+03  0.46309932969E+03 0.  0.
      99925    2    3    3    0    0  0.12945750585E+02  0.33945339273E+01  0.22061168906E+03  0.34340911332E+03  0.26283300106E+03 0.  0.
         25    1    3    3    0    0 -0.12945750585E+02 -0.33945339273E+01  0.48158427190E+03  0.49774494910E+03  0.12509000000E+03 0.  0.
         25    1    4    4    0    0  0.34909134190E+02  0.30212330635E+02  0.10911900320E+03  0.17229595913E+03  0.12509000000E+03 0.  0.
         25    1    4    4    0    0 -0.21963383605E+02 -0.26817796707E+02  0.11149268585E+03  0.17111315420E+03  0.12509000000E+03 0.  0.
<mgrwt>
<rscale>  2 0.46309933E+03</rscale>
<asrwt>0</asrwt>
<pdfrwt beam="1">  1       21 0.11348161E+00 0.46309933E+03</pdfrwt>
<pdfrwt beam="2">  1       21 0.10217508E-01 0.46309933E+03</pdfrwt>
<totfact> 0.43037156E+04</totfact>
</mgrwt>
</event>
<event>
 7    0  0.4737014E-002  0.4484541E+03  0.7546771E-02  0.1028184E+00
         21   -1    0    0  502  501  0.00000000000E+00  0.00000000000E+00  0.56902260569E+03  0.56902260569E+03  0.00000000000E+00 0. -1.
         21   -1    0    0  501  502 -0.00000000000E+00 -0.00000000000E+00 -0.88358129965E+02  0.88358129965E+02  0.00000000000E+00 0. -1.
      99926    2    1    2    0    0  0.00000000000E+00  0.00000000000E+00  0.48066447572E+03  0.65738073565E+03  0.44845411514E+03 0.  0.
      99925    2    3    3    0    0 -0.38590868616E+02 -0.96090762891E+02  0.34303289330E+03  0.44451305273E+03  0.26305436378E+03 0.  0.
         25    1    3    3    0    0  0.38590868616E+02  0.96090762891E+02  0.13763158242E+03  0.21286768292E+03  0.12509000000E+03 0.  0.
         25    1    4    4    0    0  0.42400213387E+01 -0.59056406678E+02  0.22130744320E+03  0.26101748881E+03  0.12509000000E+03 0.  0.
         25    1    4    4    0    0 -0.42830889955E+02 -0.37034356213E+02  0.12172545011E+03  0.18349556392E+03  0.12509000000E+03 0.  0.
<mgrwt>
<rscale>  2 0.44845412E+03</rscale>
<asrwt>0</asrwt>
<pdfrwt beam="1">  1       21 0.83679793E-01 0.44845412E+03</pdfrwt>
<pdfrwt beam="2">  1       21 0.12993843E-01 0.44845412E+03</pdfrwt>
<totfact> 0.58226028E+04</totfact>
</mgrwt>
</event>
<event>
 7    0  0.4737014E-002  0.4375492E+03  0.7546771E-02  0.1031501E+00
         21   -1    0    0  502  501  0.00000000000E+00  0.00000000000E+00  0.52395972768E+03  0.52395972768E+03  0.00000000000E+00 0. -1.
         21   -1    0    0  501  502 -0.00000000000E+00 -0.00000000000E+00 -0.91347354760E+02  0.91347354760E+02  0.00000000000E+00 0. -1.
      99926    2    1    2    0    0  0.00000000000E+00  0.00000000000E+00  0.43261237292E+03  0.61530708244E+03  0.43754924351E+03 0.  0.
      99925    2    3    3    0    0  0.90854553189E+02  0.28309361027E+02  0.29257229743E+03  0.40479651121E+03  0.26306975597E+03 0.  0.
         25    1    3    3    0    0 -0.90854553189E+02 -0.28309361027E+02  0.14004007549E+03  0.21051057123E+03  0.12509000000E+03 0.  0.
         25    1    4    4    0    0  0.77600632789E+02  0.35743330184E+02  0.13392644531E+03  0.20219605514E+03  0.12509000000E+03 0.  0.
         25    1    4    4    0    0  0.13253920401E+02 -0.74339691567E+01  0.15864585212E+03  0.20260045607E+03  0.12509000000E+03 0.  0.
<mgrwt>
<rscale>  2 0.43754924E+03</rscale>
<asrwt>0</asrwt>
<pdfrwt beam="1">  1       21 0.77052900E-01 0.43754924E+03</pdfrwt>
<pdfrwt beam="2">  1       21 0.13433435E-01 0.43754924E+03</pdfrwt>
<totfact> 0.66438949E+04</totfact>
</mgrwt>
</event>
<event>
 7    0  0.4737014E-002  0.4519904E+03  0.7546771E-02  0.1027130E+00
         21   -1    0    0  502  501  0.00000000000E+00  0.00000000000E+00  0.30477046847E+03  0.30477046847E+03  0.00000000000E+00 0.  1.
         21   -1    0    0  501  502 -0.00000000000E+00 -0.00000000000E+00 -0.16758127553E+03  0.16758127553E+03  0.00000000000E+00 0.  1.
      99926    2    1    2    0    0  0.00000000000E+00  0.00000000000E+00  0.13718919294E+03  0.47235174400E+03  0.45199037092E+03 0.  0.
      99925    2    3    3    0    0 -0.88011749266E+02  0.64105299950E+02  0.10554362530E+03  0.30351896418E+03  0.26292346279E+03 0.  0.
         25    1    4    4    0    0 -0.19166782640E+02  0.46251491617E+02  0.81950696892E+02  0.15770222210E+03  0.12509000000E+03 0.  0.
         25    1    3    3    0    0  0.88011749266E+02 -0.64105299950E+02  0.31645567644E+02  0.16883277982E+03  0.12509000000E+03 0.  0.
         25    1    4    4    0    0 -0.68844966626E+02  0.17853808333E+02  0.23592928407E+02  0.14581674209E+03  0.12509000000E+03 0.  0.
<mgrwt>
<rscale>  2 0.45199037E+03</rscale>
<asrwt>0</asrwt>
<pdfrwt beam="1">  1       21 0.44819187E-01 0.45199037E+03</pdfrwt>
<pdfrwt beam="2">  1       21 0.24644305E-01 0.45199037E+03</pdfrwt>
<totfact> 0.68891898E+04</totfact>
</mgrwt>
</event>
<event>
 7    0  0.4737014E-002  0.4669771E+03  0.7546771E-02  0.1022777E+00
         21   -1    0    0  502  501  0.00000000000E+00  0.00000000000E+00  0.87749800108E+02  0.87749800108E+02  0.00000000000E+00 0. -1.
         21   -1    0    0  501  502 -0.00000000000E+00 -0.00000000000E+00 -0.62127671500E+03  0.62127671500E+03  0.00000000000E+00 0. -1.
      99926    2    1    2    0    0  0.00000000000E+00  0.00000000000E+00 -0.53352691489E+03  0.70902651511E+03  0.46697711958E+03 0.  0.
      99925    2    3    3    0    0  0.46888352439E+01 -0.11592569446E+03 -0.39865428281E+03  0.49154344267E+03  0.26311398104E+03 0.  0.
         25    1    3    3    0    0 -0.46888352439E+01  0.11592569446E+03 -0.13487263208E+03  0.21748307244E+03  0.12509000000E+03 0.  0.
         25    1    4    4    0    0  0.22913055925E+02 -0.49027675817E+02 -0.13639141004E+03  0.19281816813E+03  0.12509000000E+03 0.  0.
         25    1    4    4    0    0 -0.18224220682E+02 -0.66898018640E+02 -0.26226287276E+03  0.29872527454E+03  0.12509000000E+03 0.  0.
<mgrwt>
<rscale>  2 0.46697712E+03</rscale>
<asrwt>0</asrwt>
<pdfrwt beam="1">  1       21 0.12904382E-01 0.46697712E+03</pdfrwt>
<pdfrwt beam="2">  1       21 0.91364225E-01 0.46697712E+03</pdfrwt>
<totfact> 0.47753731E+04</totfact>
</mgrwt>
</event>
<event>
 7    0  0.4737014E-002  0.4543156E+03  0.7546771E-02  0.1026443E+00
         21   -1    0    0  502  501  0.00000000000E+00  0.00000000000E+00  0.14231521617E+03  0.14231521617E+03  0.00000000000E+00 0.  1.
         21   -1    0    0  501  502 -0.00000000000E+00 -0.00000000000E+00 -0.36258004100E+03  0.36258004100E+03  0.00000000000E+00 0.  1.
      99926    2    1    2    0    0  0.00000000000E+00  0.35527136788E-14 -0.22026482483E+03  0.50489525718E+03  0.45431555957E+03 0.  0.
      99925    2    3    3    0    0  0.75896832376E+02 -0.27705605665E+02 -0.22588360691E+03  0.35587509558E+03  0.26286070462E+03 0.  0.
         25    1    3    3    0    0 -0.75896832376E+02  0.27705605665E+02  0.56187820840E+01  0.14902016160E+03  0.12509000000E+03 0.  0.
         25    1    4    4    0    0  0.20035002985E+02 -0.33271485403E+02 -0.15010891895E+03  0.19921995064E+03  0.12509000000E+03 0.  0.
         25    1    4    4    0    0  0.55861829391E+02  0.55658797373E+01 -0.75774687962E+02  0.15665514494E+03  0.12509000000E+03 0.  0.
<mgrwt>
<rscale>  2 0.45431556E+03</rscale>
<asrwt>0</asrwt>
<pdfrwt beam="1">  1       21 0.20928708E-01 0.45431556E+03</pdfrwt>
<pdfrwt beam="2">  1       21 0.53320594E-01 0.45431556E+03</pdfrwt>
<totfact> 0.65282035E+04</totfact>
</mgrwt>
</event>
<event>
 7    0  0.4737014E-002  0.4529817E+03  0.7546771E-02  0.1026837E+00
         21   -1    0    0  502  501  0.00000000000E+00  0.00000000000E+00  0.37537897348E+03  0.37537897348E+03  0.00000000000E+00 0. -1.
         21   -1    0    0  501  502 -0.00000000000E+00 -0.00000000000E+00 -0.13665685527E+03  0.13665685527E+03  0.00000000000E+00 0. -1.
      99926    2    1    2    0    0  0.00000000000E+00  0.00000000000E+00  0.23872211821E+03  0.51203582874E+03  0.45298172170E+03 0.  0.
      99925    2    3    3    0    0 -0.35390731522E+02  0.68133042548E+02  0.59521657551E+02  0.28040049343E+03  0.26303420620E+03 0.  0.
         25    1    4    4    0    0 -0.16080958050E+02  0.41738807070E+01  0.57251309271E+02  0.13856853541E+03  0.12509000000E+03 0.  0.
         25    1    4    4    0    0 -0.19309773473E+02  0.63959161841E+02  0.22703482794E+01  0.14183195802E+03  0.12509000000E+03 0.  0.
         25    1    3    3    0    0  0.35390731522E+02 -0.68133042548E+02  0.17920046066E+03  0.23163533531E+03  0.12509000000E+03 0.  0.
<mgrwt>
<rscale>  2 0.45298172E+03</rscale>
<asrwt>0</asrwt>
<pdfrwt beam="1">  1       21 0.55202790E-01 0.45298172E+03</pdfrwt>
<pdfrwt beam="2">  1       21 0.20096596E-01 0.45298172E+03</pdfrwt>
<totfact> 0.65475508E+04</totfact>
</mgrwt>
</event>
<event>
 7    0  0.4737014E-002  0.4552329E+03  0.7546771E-02  0.1026173E+00
         21   -1    0    0  502  501  0.00000000000E+00  0.00000000000E+00  0.54460249326E+03  0.54460249326E+03  0.00000000000E+00 0.  1.
         21   -1    0    0  501  502 -0.00000000000E+00 -0.00000000000E+00 -0.95132225831E+02  0.95132225831E+02  0.00000000000E+00 0.  1.
      99926    2    1    2    0    0 -0.14210854715E-13 -0.17763568394E-14  0.44947026743E+03  0.63973471909E+03  0.45523289590E+03 0.  0.
      99925    2    3    3    0    0 -0.98107278193E+02 -0.32394459448E+01  0.20303124420E+03  0.34645118339E+03  0.26300419066E+03 0.  0.
         25    1    4    4    0    0 -0.90939665456E+02 -0.11272330054E+02  0.11699973564E+03  0.19425121471E+03  0.12509000000E+03 0.  0.
         25    1    4    4    0    0 -0.71676127368E+01  0.80328841094E+01  0.86031508560E+02  0.15219996867E+03  0.12509000000E+03 0.  0.
         25    1    3    3    0    0  0.98107278193E+02  0.32394459448E+01  0.24643902323E+03  0.29328353571E+03  0.12509000000E+03 0.  0.
<mgrwt>
<rscale>  2 0.45523290E+03</rscale>
<asrwt>0</asrwt>
<pdfrwt beam="1">  1       21 0.80088600E-01 0.45523290E+03</pdfrwt>
<pdfrwt beam="2">  1       21 0.13990033E-01 0.45523290E+03</pdfrwt>
<totfact> 0.56193428E+04</totfact>
</mgrwt>
</event>
<event>
 7    0  0.4737014E-002  0.4198192E+03  0.7546771E-02  0.1037125E+00
         21   -1    0    0  502  501  0.00000000000E+00  0.00000000000E+00  0.10511741954E+04  0.10511741954E+04  0.00000000000E+00 0. -1.
         21   -1    0    0  501  502 -0.00000000000E+00 -0.00000000000E+00 -0.41916976390E+02  0.41916976390E+02  0.00000000000E+00 0. -1.
      99926    2    1    2    0    0  0.53290705182E-14  0.00000000000E+00  0.10092572190E+04  0.10930911718E+04  0.41981921790E+03 0.  0.
      99925    2    3    3    0    0  0.15914595936E+02  0.69780540042E+02  0.72065149890E+03  0.77050262904E+03  0.26308386564E+03 0.  0.
         25    1    4    4    0    0  0.41315657476E+02  0.16015603185E+02  0.39217258306E+03  0.41401730169E+03  0.12509000000E+03 0.  0.
         25    1    4    4    0    0 -0.25401061540E+02  0.53764936857E+02  0.32847891584E+03  0.35648532735E+03  0.12509000000E+03 0.  0.
         25    1    3    3    0    0 -0.15914595936E+02 -0.69780540042E+02  0.28860572011E+03  0.32258854274E+03  0.12509000000E+03 0.  0.
<mgrwt>
<rscale>  2 0.41981922E+03</rscale>
<asrwt>0</asrwt>
<pdfrwt beam="1">  1       21 0.15458442E+00 0.41981922E+03</pdfrwt>
<pdfrwt beam="2">  1       21 0.61642619E-02 0.41981922E+03</pdfrwt>
<totfact> 0.47490518E+04</totfact>
</mgrwt>
</event>
<event>
 7    0  0.4737014E-002  0.4114530E+03  0.7546771E-02  0.1039885E+00
         21   -1    0    0  502  501  0.00000000000E+00  0.00000000000E+00  0.19768613177E+02  0.19768613177E+02  0.00000000000E+00 0. -1.
         21   -1    0    0  501  502 -0.00000000000E+00 -0.00000000000E+00 -0.21409390887E+04  0.21409390887E+04  0.00000000000E+00 0. -1.
      99926    2    1    2    0    0 -0.35527136788E-14  0.71054273576E-14 -0.21211704755E+04  0.21607077019E+04  0.41145301885E+03 0.  0.
      99925    2    3    3    0    0 -0.29560024867E+02  0.36595195055E+02 -0.16268784630E+04  0.16486675618E+04  0.26297945238E+03 0.  0.
         25    1    4    4    0    0 -0.12922921316E+02 -0.74303610445E+00 -0.10174347685E+04  0.10251773360E+04  0.12509000000E+03 0.  0.
         25    1    4    4    0    0 -0.16637103551E+02  0.37338231160E+02 -0.60944369455E+03  0.62349022578E+03  0.12509000000E+03 0.  0.
         25    1    3    3    0    0  0.29560024867E+02 -0.36595195055E+02 -0.49429201246E+03  0.51204014008E+03  0.12509000000E+03 0.  0.
<mgrwt>
<rscale>  2 0.41145302E+03</rscale>
<asrwt>0</asrwt>
<pdfrwt beam="1">  1       21 0.29071507E-02 0.41145302E+03</pdfrwt>
<pdfrwt beam="2">  1       21 0.31484380E+00 0.41145302E+03</pdfrwt>
<totfact> 0.16034961E+04</totfact>
</mgrwt>
</event>
<event>
 7    0  0.4737014E-002  0.4680475E+03  0.7546771E-02  0.1022473E+00
         21   -1    0    0  502  501  0.00000000000E+00  0.00000000000E+00  0.17513900205E+04  0.17513900205E+04  0.00000000000E+00 0.  1.
         21   -1    0    0  501  502 -0.00000000000E+00 -0.00000000000E+00 -0.31270654018E+02  0.31270654018E+02  0.00000000000E+00 0.  1.
      99926    2    1    2    0    0  0.00000000000E+00  0.00000000000E+00  0.17201193665E+04  0.17826606745E+04  0.46804748213E+03 0.  0.
      99925    2    3    3    0    0  0.83517777659E+02  0.83573611549E+02  0.12266432845E+04  0.12600461710E+04  0.26287418631E+03 0.  0.
         25    1    3    3    0    0 -0.83517777659E+02 -0.83573611549E+02  0.49347608196E+03  0.52261450353E+03  0.12509000000E+03 0.  0.
         25    1    4    4    0    0  0.44777210297E+02  0.26226592912E+02  0.43482692858E+03  0.45542814873E+03  0.12509000000E+03 0.  0.
         25    1    4    4    0    0  0.38740567362E+02  0.57347018637E+02  0.79181635593E+03  0.80461802224E+03  0.12509000000E+03 0.  0.
<mgrwt>
<rscale>  2 0.46804748E+03</rscale>
<asrwt>0</asrwt>
<pdfrwt beam="1">  1       21 0.25755729E+00 0.46804748E+03</pdfrwt>
<pdfrwt beam="2">  1       21 0.45986268E-02 0.46804748E+03</pdfrwt>
<totfact> 0.15920308E+04</totfact>
</mgrwt>
</event>
<event>
 7    0  0.4737014E-002  0.4515428E+03  0.7546771E-02  0.1027263E+00
         21   -1    0    0  502  501  0.00000000000E+00  0.00000000000E+00  0.25644933483E+03  0.25644933483E+03  0.00000000000E+00 0. -1.
         21   -1    0    0  501  502 -0.00000000000E+00 -0.00000000000E+00 -0.19876337246E+03  0.19876337246E+03  0.00000000000E+00 0. -1.
      99926    2    1    2    0    0  0.00000000000E+00 -0.35527136788E-14  0.57685962371E+02  0.45521270729E+03  0.45154284251E+03 0.  0.
      99925    2    3    3    0    0 -0.93926191876E+02 -0.20045409797E+02  0.90174431504E+02  0.29419420928E+03  0.26304915264E+03 0.  0.
         25    1    4    4    0    0 -0.36120205868E+02 -0.65899010494E+00  0.83904356887E+02  0.15489529607E+03  0.12509000000E+03 0.  0.
         25    1    4    4    0    0 -0.57805986008E+02 -0.19386419692E+02  0.62700746170E+01  0.13929891321E+03  0.12509000000E+03 0.  0.
         25    1    3    3    0    0  0.93926191876E+02  0.20045409797E+02 -0.32488469133E+02  0.16101849801E+03  0.12509000000E+03 0.  0.
<mgrwt>
<rscale>  2 0.45154284E+03</rscale>
<asrwt>0</asrwt>
<pdfrwt beam="1">  1       21 0.37713138E-01 0.45154284E+03</pdfrwt>
<pdfrwt beam="2">  1       21 0.29229908E-01 0.45154284E+03</pdfrwt>
<totfact> 0.70453327E+04</totfact>
</mgrwt>
</event>
<event>
 7    0  0.4737014E-002  0.4645440E+03  0.7546771E-02  0.1023472E+00
         21   -1    0    0  502  501  0.00000000000E+00  0.00000000000E+00  0.10148720586E+04  0.10148720586E+04  0.00000000000E+00 0.  1.
         21   -1    0    0  501  502 -0.00000000000E+00 -0.00000000000E+00 -0.53159688715E+02  0.53159688715E+02  0.00000000000E+00 0.  1.
      99926    2    1    2    0    0  0.14210854715E-13  0.88817841970E-15  0.96171236989E+03  0.10680317473E+04  0.46454400317E+03 0.  0.
      99925    2    3    3    0    0  0.12106214317E+03  0.74493167828E+01  0.62775750346E+03  0.69135563215E+03  0.26302393831E+03 0.  0.
         25    1    4    4    0    0  0.21870000906E+02  0.69013312775E+01  0.32686742265E+03  0.35073600528E+03  0.12509000000E+03 0.  0.
         25    1    4    4    0    0  0.99192142263E+02  0.54798550531E+00  0.30089008081E+03  0.34061962686E+03  0.12509000000E+03 0.  0.
         25    1    3    3    0    0 -0.12106214317E+03 -0.74493167828E+01  0.33395486643E+03  0.37667611518E+03  0.12509000000E+03 0.  0.
<mgrwt>
<rscale>  2 0.46454400E+03</rscale>
<asrwt>0</asrwt>
<pdfrwt beam="1">  1       21 0.14924588E+00 0.46454400E+03</pdfrwt>
<pdfrwt beam="2">  1       21 0.78176019E-02 0.46454400E+03</pdfrwt>
<totfact> 0.34017496E+04</totfact>
</mgrwt>
</event>
<event>
 7    0  0.4737014E-002  0.4560681E+03  0.7546771E-02  0.1025928E+00
         21   -1    0    0  502  501  0.00000000000E+00  0.00000000000E+00  0.46898704183E+03  0.46898704183E+03  0.00000000000E+00 0.  1.
         21   -1    0    0  501  502 -0.00000000000E+00 -0.00000000000E+00 -0.11087623326E+03  0.11087623326E+03  0.00000000000E+00 0.  1.
      99926    2    1    2    0    0  0.00000000000E+00  0.00000000000E+00  0.35811080857E+03  0.57986327508E+03  0.45606805038E+03 0.  0.
      99925    2    3    3    0    0 -0.44920446279E+02  0.91043016177E+02  0.15862935159E+03  0.32345142460E+03  0.26296554071E+03 0.  0.
         25    1    4    4    0    0 -0.53014341769E+01  0.22399548200E+02  0.10828781753E+03  0.16704372029E+03  0.12509000000E+03 0.  0.
         25    1    3    3    0    0  0.44920446279E+02 -0.91043016177E+02  0.19948145698E+03  0.25641185048E+03  0.12509000000E+03 0.  0.
         25    1    4    4    0    0 -0.39619012102E+02  0.68643467977E+02  0.50341534063E+02  0.15640770431E+03  0.12509000000E+03 0.  0.
<mgrwt>
<rscale>  2 0.45606805E+03</rscale>
<asrwt>0</asrwt>
<pdfrwt beam="1">  1       21 0.68968682E-01 0.45606805E+03</pdfrwt>
<pdfrwt beam="2">  1       21 0.16305329E-01 0.45606805E+03</pdfrwt>
<totfact> 0.59431757E+04</totfact>
</mgrwt>
</event>
<event>
 7    0  0.4737014E-002  0.4552331E+03  0.7546771E-02  0.1026173E+00
         21   -1    0    0  502  501  0.00000000000E+00  0.00000000000E+00  0.17213027634E+03  0.17213027634E+03  0.00000000000E+00 0.  1.
         21   -1    0    0  501  502 -0.00000000000E+00 -0.00000000000E+00 -0.30098881746E+03  0.30098881746E+03  0.00000000000E+00 0.  1.
      99926    2    1    2    0    0  0.35527136788E-14  0.00000000000E+00 -0.12885854113E+03  0.47311909380E+03  0.45523307579E+03 0.  0.
      99925    2    3    3    0    0 -0.28717901336E+02 -0.10518891137E+03 -0.11324773009E+03  0.30644386932E+03  0.26304633003E+03 0.  0.
         25    1    3    3    0    0  0.28717901336E+02  0.10518891137E+03 -0.15610811038E+02  0.16667522447E+03  0.12509000000E+03 0.  0.
         25    1    4    4    0    0 -0.45851118794E+02 -0.51843439596E+02 -0.85568837936E+02  0.16661212876E+03  0.12509000000E+03 0.  0.
         25    1    4    4    0    0  0.17133217458E+02 -0.53345471771E+02 -0.27678892154E+02  0.13983174057E+03  0.12509000000E+03 0.  0.
<mgrwt>
<rscale>  2 0.45523308E+03</rscale>
<asrwt>0</asrwt>
<pdfrwt beam="1">  1       21 0.25313276E-01 0.45523308E+03</pdfrwt>
<pdfrwt beam="2">  1       21 0.44263061E-01 0.45523308E+03</pdfrwt>
<totfact> 0.67080386E+04</totfact>
</mgrwt>
</event>
<event>
 7    0  0.4737014E-002  0.4288830E+03  0.7546771E-02  0.1034213E+00
         21   -1    0    0  502  501  0.00000000000E+00  0.00000000000E+00  0.46761489010E+03  0.46761489010E+03  0.00000000000E+00 0. -1.
         21   -1    0    0  501  502 -0.00000000000E+00 -0.00000000000E+00 -0.98339782269E+02  0.98339782269E+02  0.00000000000E+00 0. -1.
      99926    2    1    2    0    0  0.00000000000E+00 -0.71054273576E-14  0.36927510783E+03  0.56595467236E+03  0.42888295129E+03 0.  0.
      99925    2    3    3    0    0  0.41887280377E+02  0.56805336782E+02  0.30406208565E+03  0.40821553040E+03  0.26306800792E+03 0.  0.
         25    1    4    4    0    0  0.19540253591E+02  0.61211329750E+02  0.19672380363E+03  0.24181896413E+03  0.12509000000E+03 0.  0.
         25    1    3    3    0    0 -0.41887280377E+02 -0.56805336782E+02  0.65213022180E+02  0.15773914196E+03  0.12509000000E+03 0.  0.
         25    1    4    4    0    0  0.22347026786E+02 -0.44059929678E+01  0.10733828202E+03  0.16639656627E+03  0.12509000000E+03 0.  0.
<mgrwt>
<rscale>  2 0.42888295E+03</rscale>
<asrwt>0</asrwt>
<pdfrwt beam="1">  1       21 0.68766895E-01 0.42888295E+03</pdfrwt>
<pdfrwt beam="2">  1       21 0.14461733E-01 0.42888295E+03</pdfrwt>
<totfact> 0.75192307E+04</totfact>
</mgrwt>
</event>
<event>
 7    0  0.4737014E-002  0.4580287E+03  0.7546771E-02  0.1025355E+00
         21   -1    0    0  502  501  0.00000000000E+00  0.00000000000E+00  0.23741307407E+03  0.23741307407E+03  0.00000000000E+00 0.  1.
         21   -1    0    0  501  502 -0.00000000000E+00 -0.00000000000E+00 -0.22091271580E+03  0.22091271580E+03  0.00000000000E+00 0.  1.
      99926    2    1    2    0    0  0.00000000000E+00  0.00000000000E+00  0.16500358277E+02  0.45832578987E+03  0.45802867578E+03 0.  0.
      99925    2    3    3    0    0  0.25286922827E+02 -0.10466075720E+03 -0.32948619138E+02  0.28602949847E+03  0.26293337546E+03 0.  0.
         25    1    3    3    0    0 -0.25286922827E+02  0.10466075720E+03  0.49448977414E+02  0.17229629140E+03  0.12509000000E+03 0.  0.
         25    1    4    4    0    0 -0.11634931037E+02 -0.73945467304E+02  0.77773986893E+01  0.14598390249E+03  0.12509000000E+03 0.  0.
         25    1    4    4    0    0  0.36921853864E+02 -0.30715289897E+02 -0.40726017827E+02  0.14004559598E+03  0.12509000000E+03 0.  0.
<mgrwt>
<rscale>  2 0.45802868E+03</rscale>
<asrwt>0</asrwt>
<pdfrwt beam="1">  1       21 0.34913688E-01 0.45802868E+03</pdfrwt>
<pdfrwt beam="2">  1       21 0.32487164E-01 0.45802868E+03</pdfrwt>
<totfact> 0.66676937E+04</totfact>
</mgrwt>
</event>
<event>
 7    0  0.4737014E-002  0.4570676E+03  0.7546771E-02  0.1025635E+00
         21   -1    0    0  502  501  0.00000000000E+00  0.00000000000E+00  0.43239031494E+03  0.43239031494E+03  0.00000000000E+00 0.  1.
         21   -1    0    0  501  502 -0.00000000000E+00 -0.00000000000E+00 -0.12078830378E+03  0.12078830378E+03  0.00000000000E+00 0.  1.
      99926    2    1    2    0    0  0.00000000000E+00  0.00000000000E+00  0.31160201116E+03  0.55317861872E+03  0.45706757800E+03 0.  0.
      99925    2    3    3    0    0  0.82998310786E+02 -0.71343168553E+02  0.15262072111E+03  0.32317617096E+03  0.26300415524E+03 0.  0.
         25    1    4    4    0    0  0.47292071676E+02 -0.70173518864E+02  0.55775042140E+02  0.16099449127E+03  0.12509000000E+03 0.  0.
         25    1    4    4    0    0  0.35706239110E+02 -0.11696496890E+01  0.96845678973E+02  0.16218167969E+03  0.12509000000E+03 0.  0.
         25    1    3    3    0    0 -0.82998310786E+02  0.71343168553E+02  0.15898129005E+03  0.23000244776E+03  0.12509000000E+03 0.  0.
<mgrwt>
<rscale>  2 0.45706758E+03</rscale>
<asrwt>0</asrwt>
<pdfrwt beam="1">  1       21 0.63586811E-01 0.45706758E+03</pdfrwt>
<pdfrwt beam="2">  1       21 0.17762986E-01 0.45706758E+03</pdfrwt>
<totfact> 0.60658641E+04</totfact>
</mgrwt>
</event>
<event>
 7    0  0.4737014E-002  0.4530377E+03  0.7546771E-02  0.1026820E+00
         21   -1    0    0  502  501  0.00000000000E+00  0.00000000000E+00  0.83191312947E+02  0.83191312947E+02  0.00000000000E+00 0.  1.
         21   -1    0    0  501  502 -0.00000000000E+00 -0.00000000000E+00 -0.61678050215E+03  0.61678050215E+03  0.00000000000E+00 0.  1.
      99926    2    1    2    0    0  0.00000000000E+00  0.00000000000E+00 -0.53358918920E+03  0.69997181509E+03  0.45303765748E+03 0.  0.
      99925    2    3    3    0    0  0.87536367654E+02  0.62899655425E+02 -0.37982342015E+03  0.47433847946E+03  0.26289195555E+03 0.  0.
         25    1    4    4    0    0  0.62435826511E+01  0.13851933437E+02 -0.18980863323E+03  0.22782818907E+03  0.12509000000E+03 0.  0.
         25    1    4    4    0    0  0.81292785003E+02  0.49047721987E+02 -0.19001478691E+03  0.24651029040E+03  0.12509000000E+03 0.  0.
         25    1    3    3    0    0 -0.87536367654E+02 -0.62899655425E+02 -0.15376576905E+03  0.22563333563E+03  0.12509000000E+03 0.  0.
<mgrwt>
<rscale>  2 0.45303766E+03</rscale>
<asrwt>0</asrwt>
<pdfrwt beam="1">  1       21 0.12234017E-01 0.45303766E+03</pdfrwt>
<pdfrwt beam="2">  1       21 0.90703011E-01 0.45303766E+03</pdfrwt>
<totfact> 0.53729445E+04</totfact>
</mgrwt>
</event>
<event>
 7    0  0.4737014E-002  0.4541041E+03  0.7546771E-02  0.1026505E+00
         21   -1    0    0  502  501  0.00000000000E+00  0.00000000000E+00  0.19058267614E+03  0.19058267614E+03  0.00000000000E+00 0. -1.
         21   -1    0    0  501  502 -0.00000000000E+00 -0.00000000000E+00 -0.27050005920E+03  0.27050005920E+03  0.00000000000E+00 0. -1.
      99926    2    1    2    0    0 -0.71054273576E-14  0.71054273576E-14 -0.79917383056E+02  0.46108273534E+03  0.45410406375E+03 0.  0.
      99925    2    3    3    0    0 -0.62436846606E+02 -0.63430369822E+02 -0.11996735968E+03  0.30242183796E+03  0.26295442392E+03 0.  0.
         25    1    4    4    0    0 -0.15894743100E+02 -0.68339686881E+02 -0.72260244116E+02  0.16059889987E+03  0.12509000000E+03 0.  0.
         25    1    4    4    0    0 -0.46542103506E+02  0.49093170585E+01 -0.47707115562E+02  0.14182293809E+03  0.12509000000E+03 0.  0.
         25    1    3    3    0    0  0.62436846606E+02  0.63430369822E+02  0.40049976622E+02  0.15866089738E+03  0.12509000000E+03 0.  0.
<mgrwt>
<rscale>  2 0.45410406E+03</rscale>
<asrwt>0</asrwt>
<pdfrwt beam="1">  1       21 0.28026864E-01 0.45410406E+03</pdfrwt>
<pdfrwt beam="2">  1       21 0.39779420E-01 0.45410406E+03</pdfrwt>
<totfact> 0.68589080E+04</totfact>
</mgrwt>
</event>
<event>
 7    0  0.4737014E-002  0.4548908E+03  0.7546771E-02  0.1026274E+00
         21   -1    0    0  502  501  0.00000000000E+00  0.00000000000E+00  0.25302189868E+03  0.25302189868E+03  0.00000000000E+00 0. -1.
         21   -1    0    0  501  502 -0.00000000000E+00 -0.00000000000E+00 -0.20445426531E+03  0.20445426531E+03  0.00000000000E+00 0. -1.
      99926    2    1    2    0    0  0.71054273576E-14 -0.14210854715E-13  0.48567633376E+02  0.45747616399E+03  0.45489078426E+03 0.  0.
      99925    2    3    3    0    0 -0.51716627317E+02  0.76914469924E+02  0.95782558169E+02  0.29478872610E+03  0.26293658810E+03 0.  0.
         25    1    4    4    0    0 -0.52617891103E+02  0.25183127755E+02  0.77215073075E+02  0.15815343182E+03  0.12509000000E+03 0.  0.
         25    1    3    3    0    0  0.51716627317E+02 -0.76914469924E+02 -0.47214924793E+02  0.16268743789E+03  0.12509000000E+03 0.  0.
         25    1    4    4    0    0  0.90126378539E+00  0.51731342169E+02  0.18567485094E+02  0.13663529428E+03  0.12509000000E+03 0.  0.
<mgrwt>
<rscale>  2 0.45489078E+03</rscale>
<asrwt>0</asrwt>
<pdfrwt beam="1">  1       21 0.37209103E-01 0.45489078E+03</pdfrwt>
<pdfrwt beam="2">  1       21 0.30066804E-01 0.45489078E+03</pdfrwt>
<totfact> 0.68424337E+04</totfact>
</mgrwt>
</event>
<event>
 7    0  0.4737014E-002  0.4498478E+03  0.7546771E-02  0.1027767E+00
         21   -1    0    0  502  501  0.00000000000E+00  0.00000000000E+00  0.34173436142E+02  0.34173436142E+02  0.00000000000E+00 0. -1.
         21   -1    0    0  501  502 -0.00000000000E+00 -0.00000000000E+00 -0.14804117140E+04  0.14804117140E+04  0.00000000000E+00 0. -1.
      99926    2    1    2    0    0 -0.14210854715E-13  0.00000000000E+00 -0.14462382779E+04  0.15145851502E+04  0.44984777503E+03 0.  0.
      99925    2    3    3    0    0  0.68084449530E+02  0.23499008940E+02 -0.11870741294E+04  0.12179350876E+04  0.26274168515E+03 0.  0.
         25    1    4    4    0    0 -0.50344923397E+01  0.17945870265E+02 -0.60440781255E+03  0.61749794521E+03  0.12509000000E+03 0.  0.
         25    1    3    3    0    0 -0.68084449530E+02 -0.23499008940E+02 -0.25916414847E+03  0.29665006260E+03  0.12509000000E+03 0.  0.
         25    1    4    4    0    0  0.73118941870E+02  0.55531386749E+01 -0.58266631689E+03  0.60043714238E+03  0.12509000000E+03 0.  0.
<mgrwt>
<rscale>  2 0.44984778E+03</rscale>
<asrwt>0</asrwt>
<pdfrwt beam="1">  1       21 0.50255043E-02 0.44984778E+03</pdfrwt>
<pdfrwt beam="2">  1       21 0.21770765E+00 0.44984778E+03</pdfrwt>
<totfact> 0.24385248E+04</totfact>
</mgrwt>
</event>
<event>
 7    0  0.4737014E-002  0.4540575E+03  0.7546771E-02  0.1026519E+00
         21   -1    0    0  502  501  0.00000000000E+00  0.00000000000E+00  0.41727134462E+03  0.41727134462E+03  0.00000000000E+00 0. -1.
         21   -1    0    0  501  502 -0.00000000000E+00 -0.00000000000E+00 -0.12352166532E+03  0.12352166532E+03  0.00000000000E+00 0. -1.
      99926    2    1    2    0    0  0.00000000000E+00 -0.14210854715E-13  0.29374967930E+03  0.54079300994E+03  0.45405749141E+03 0.  0.
      99925    2    3    3    0    0  0.36456484612E+02  0.87693511706E+02  0.25645183581E+03  0.37936852452E+03  0.26293289265E+03 0.  0.
         25    1    4    4    0    0  0.29517548836E+02  0.15124058926E+02  0.84388787451E+02  0.15449594945E+03  0.12509000000E+03 0.  0.
         25    1    4    4    0    0  0.69389357762E+01  0.72569452780E+02  0.17206304836E+03  0.22487257507E+03  0.12509000000E+03 0.  0.
         25    1    3    3    0    0 -0.36456484612E+02 -0.87693511706E+02  0.37297843489E+02  0.16142448542E+03  0.12509000000E+03 0.  0.
<mgrwt>
<rscale>  2 0.45405749E+03</rscale>
<asrwt>0</asrwt>
<pdfrwt beam="1">  1       21 0.61363433E-01 0.45405749E+03</pdfrwt>
<pdfrwt beam="2">  1       21 0.18164951E-01 0.45405749E+03</pdfrwt>
<totfact> 0.62947246E+04</totfact>
</mgrwt>
</event>
<event>
 7    0  0.4737014E-002  0.4569597E+03  0.7546771E-02  0.1025667E+00
         21   -1    0    0  502  501  0.00000000000E+00  0.00000000000E+00  0.30082215184E+02  0.30082215184E+02  0.00000000000E+00 0.  1.
         21   -1    0    0  501  502 -0.00000000000E+00 -0.00000000000E+00 -0.17353452956E+04  0.17353452956E+04  0.00000000000E+00 0.  1.
      99926    2    1    2    0    0  0.00000000000E+00  0.00000000000E+00 -0.17052630804E+04  0.17654275108E+04  0.45695965074E+03 0.  0.
      99925    2    3    3    0    0 -0.27292414770E+02 -0.10421863260E+03 -0.12260528636E+04  0.12585780861E+04  0.26307180623E+03 0.  0.
         25    1    4    4    0    0 -0.45804911139E+02 -0.69340925281E+02 -0.56377548007E+03  0.58343513249E+03  0.12509000000E+03 0.  0.
         25    1    3    3    0    0  0.27292414770E+02  0.10421863260E+03 -0.47921021682E+03  0.50684942467E+03  0.12509000000E+03 0.  0.
         25    1    4    4    0    0  0.18512496369E+02 -0.34877707316E+02 -0.66227738356E+03  0.67514295365E+03  0.12509000000E+03 0.  0.
<mgrwt>
<rscale>  2 0.45695965E+03</rscale>
<asrwt>0</asrwt>
<pdfrwt beam="1">  1       21 0.44238561E-02 0.45695965E+03</pdfrwt>
<pdfrwt beam="2">  1       21 0.25519779E+00 0.45695965E+03</pdfrwt>
<totfact> 0.17663065E+04</totfact>
</mgrwt>
</event>
<event>
 7    0  0.4737014E-002  0.4570264E+03  0.7546771E-02  0.1025647E+00
         21   -1    0    0  502  501  0.00000000000E+00  0.00000000000E+00  0.33088404576E+03  0.33088404576E+03  0.00000000000E+00 0. -1.
         21   -1    0    0  501  502 -0.00000000000E+00 -0.00000000000E+00 -0.15781444219E+03  0.15781444219E+03  0.00000000000E+00 0. -1.
      99926    2    1    2    0    0  0.00000000000E+00  0.00000000000E+00  0.17306960358E+03  0.48869848795E+03  0.45702639359E+03 0.  0.
      99925    2    3    3    0    0 -0.77101196263E+02  0.82308594320E+01  0.17584839347E+02  0.27460654153E+03  0.26284441133E+03 0.  0.
         25    1    4    4    0    0 -0.54852849188E+02 -0.38875277203E+00 -0.27849484983E+02  0.13939902477E+03  0.12509000000E+03 0.  0.
         25    1    4    4    0    0 -0.22248347074E+02  0.86196122041E+01  0.45434324330E+02  0.13520751676E+03  0.12509000000E+03 0.  0.
         25    1    3    3    0    0  0.77101196263E+02 -0.82308594320E+01  0.15548476423E+03  0.21409194641E+03  0.12509000000E+03 0.  0.
<mgrwt>
<rscale>  2 0.45702639E+03</rscale>
<asrwt>0</asrwt>
<pdfrwt beam="1">  1       21 0.48659418E-01 0.45702639E+03</pdfrwt>
<pdfrwt beam="2">  1       21 0.23208006E-01 0.45702639E+03</pdfrwt>
<totfact> 0.65019892E+04</totfact>
</mgrwt>
</event>
<event>
 7    0  0.4737014E-002  0.4584308E+03  0.7546771E-02  0.1025237E+00
         21   -1    0    0  502  501  0.00000000000E+00  0.00000000000E+00  0.18440979755E+03  0.18440979755E+03  0.00000000000E+00 0.  1.
         21   -1    0    0  501  502 -0.00000000000E+00 -0.00000000000E+00 -0.28490725123E+03  0.28490725123E+03  0.00000000000E+00 0.  1.
      99926    2    1    2    0    0  0.00000000000E+00  0.00000000000E+00 -0.10049745367E+03  0.46931704878E+03  0.45843075168E+03 0.  0.
      99925    2    3    3    0    0  0.88561443903E+02 -0.66267147371E+02 -0.26350502854E+02  0.28661581019E+03  0.26309657824E+03 0.  0.
         25    1    4    4    0    0  0.67038910114E+02 -0.29303262545E+02 -0.47992085285E+02  0.15265531440E+03  0.12509000000E+03 0.  0.
         25    1    4    4    0    0  0.21522533789E+02 -0.36963884826E+02  0.21641582431E+02  0.13396049579E+03  0.12509000000E+03 0.  0.
         25    1    3    3    0    0 -0.88561443903E+02  0.66267147371E+02 -0.74146950820E+02  0.18270123859E+03  0.12509000000E+03 0.  0.
<mgrwt>
<rscale>  2 0.45843075E+03</rscale>
<asrwt>0</asrwt>
<pdfrwt beam="1">  1       21 0.27119088E-01 0.45843075E+03</pdfrwt>
<pdfrwt beam="2">  1       21 0.41898125E-01 0.45843075E+03</pdfrwt>
<totfact> 0.65681264E+04</totfact>
</mgrwt>
</event>
<event>
 7    0  0.4737014E-002  0.4570533E+03  0.7546771E-02  0.1025639E+00
         21   -1    0    0  502  501  0.00000000000E+00  0.00000000000E+00  0.98997878704E+02  0.98997878704E+02  0.00000000000E+00 0.  1.
         21   -1    0    0  501  502 -0.00000000000E+00 -0.00000000000E+00 -0.52753069909E+03  0.52753069909E+03  0.00000000000E+00 0.  1.
      99926    2    1    2    0    0  0.00000000000E+00 -0.14210854715E-13 -0.42853282039E+03  0.62652857779E+03  0.45705325799E+03 0.  0.
      99925    2    3    3    0    0  0.27970327787E+02 -0.91917756514E+02 -0.35608218036E+03  0.45295491465E+03  0.26294946725E+03 0.  0.
         25    1    4    4    0    0 -0.14720098301E+02 -0.20647468409E+02 -0.19177179670E+03  0.23036260407E+03  0.12509000000E+03 0.  0.
         25    1    3    3    0    0 -0.27970327787E+02  0.91917756514E+02 -0.72450640022E+02  0.17357366315E+03  0.12509000000E+03 0.  0.
         25    1    4    4    0    0  0.42690426087E+02 -0.71270288105E+02 -0.16431038367E+03  0.22259231058E+03  0.12509000000E+03 0.  0.
<mgrwt>
<rscale>  2 0.45705326E+03</rscale>
<asrwt>0</asrwt>
<pdfrwt beam="1">  1       21 0.14558512E-01 0.45705326E+03</pdfrwt>
<pdfrwt beam="2">  1       21 0.77578041E-01 0.45705326E+03</pdfrwt>
<totfact> 0.56158458E+04</totfact>
</mgrwt>
</event>
<event>
 7    0  0.4737014E-002  0.4548371E+03  0.7546771E-02  0.1026289E+00
         21   -1    0    0  502  501  0.00000000000E+00  0.00000000000E+00  0.73296703609E+02  0.73296703609E+02  0.00000000000E+00 0.  1.
         21   -1    0    0  501  502 -0.00000000000E+00 -0.00000000000E+00 -0.70561415962E+03  0.70561415962E+03  0.00000000000E+00 0.  1.
      99926    2    1    2    0    0  0.00000000000E+00  0.00000000000E+00 -0.63231745601E+03  0.77891086322E+03  0.45483707817E+03 0.  0.
      99925    2    3    3    0    0  0.98472971479E+02  0.24310717609E+02 -0.48337166865E+03  0.55954748257E+03  0.26297771405E+03 0.  0.
         25    1    3    3    0    0 -0.98472971479E+02 -0.24310717609E+02 -0.14894578736E+03  0.21936338066E+03  0.12509000000E+03 0.  0.
         25    1    4    4    0    0  0.86159467405E+02 -0.69191434426E+01 -0.24822372090E+03  0.29109079698E+03  0.12509000000E+03 0.  0.
         25    1    4    4    0    0  0.12313504073E+02  0.31229861052E+02 -0.23514794776E+03  0.26845668559E+03  0.12509000000E+03 0.  0.
<mgrwt>
<rscale>  2 0.45483708E+03</rscale>
<asrwt>0</asrwt>
<pdfrwt beam="1">  1       21 0.10778927E-01 0.45483708E+03</pdfrwt>
<pdfrwt beam="2">  1       21 0.10376678E+00 0.45483708E+03</pdfrwt>
<totfact> 0.48864278E+04</totfact>
</mgrwt>
</event>
<event>
 7    0  0.4737014E-002  0.4540824E+03  0.7546771E-02  0.1026512E+00
         21   -1    0    0  502  501  0.00000000000E+00  0.00000000000E+00  0.30843546500E+03  0.30843546500E+03  0.00000000000E+00 0.  1.
         21   -1    0    0  501  502 -0.00000000000E+00 -0.00000000000E+00 -0.16712640919E+03  0.16712640919E+03  0.00000000000E+00 0.  1.
      99926    2    1    2    0    0  0.00000000000E+00  0.53290705182E-14  0.14130905581E+03  0.47556187419E+03  0.45408242305E+03 0.  0.
      99925    2    3    3    0    0  0.49640496134E+02  0.82772522054E+01  0.19416382220E+03  0.33073844311E+03  0.26297459219E+03 0.  0.
         25    1    4    4    0    0  0.22632903413E+02 -0.32658847585E+02  0.75111258495E+02  0.15122188299E+03  0.12509000000E+03 0.  0.
         25    1    4    4    0    0  0.27007592720E+02  0.40936099791E+02  0.11905256371E+03  0.17951656011E+03  0.12509000000E+03 0.  0.
         25    1    3    3    0    0 -0.49640496134E+02 -0.82772522054E+01 -0.52854766386E+02  0.14482343108E+03  0.12509000000E+03 0.  0.
<mgrwt>
<rscale>  2 0.45408242E+03</rscale>
<asrwt>0</asrwt>
<pdfrwt beam="1">  1       21 0.45358157E-01 0.45408242E+03</pdfrwt>
<pdfrwt beam="2">  1       21 0.24577413E-01 0.45408242E+03</pdfrwt>
<totfact> 0.67514921E+04</totfact>
</mgrwt>
</event>
<event>
 7    0  0.4737014E-002  0.4747287E+03  0.7546771E-02  0.1020594E+00
         21   -1    0    0  502  501  0.00000000000E+00  0.00000000000E+00  0.41915629939E+04  0.41915629939E+04  0.00000000000E+00 0. -1.
         21   -1    0    0  501  502 -0.00000000000E+00 -0.00000000000E+00 -0.13441726970E+02  0.13441726970E+02  0.00000000000E+00 0. -1.
      99926    2    1    2    0    0  0.00000000000E+00 -0.14210854715E-13  0.41781212670E+04  0.42050047209E+04  0.47472874504E+03 0.  0.
      99925    2    3    3    0    0  0.69191298868E+02 -0.11101754211E+03  0.26241187617E+04  0.26404972505E+04  0.26289565206E+03 0.  0.
         25    1    4    4    0    0  0.46459755466E+02 -0.42640388284E+02  0.16213732560E+04  0.16274137320E+04  0.12509000000E+03 0.  0.
         25    1    3    3    0    0 -0.69191298868E+02  0.11101754211E+03  0.15540025053E+04  0.15645074704E+04  0.12509000000E+03 0.  0.
         25    1    4    4    0    0  0.22731543402E+02 -0.68377153829E+02  0.10027455056E+04  0.10130835185E+04  0.12509000000E+03 0.  0.
<mgrwt>
<rscale>  2 0.47472875E+03</rscale>
<asrwt>0</asrwt>
<pdfrwt beam="1">  1       21 0.61640541E+00 0.47472875E+03</pdfrwt>
<pdfrwt beam="2">  1       21 0.19767275E-02 0.47472875E+03</pdfrwt>
<totfact> 0.24385260E+02</totfact>
</mgrwt>
</event>
<event>
 7    0  0.4737014E-002  0.4699470E+03  0.7546771E-02  0.1021935E+00
         21   -1    0    0  502  501  0.00000000000E+00  0.00000000000E+00  0.10110345965E+03  0.10110345965E+03  0.00000000000E+00 0.  1.
         21   -1    0    0  501  502 -0.00000000000E+00 -0.00000000000E+00 -0.54609954523E+03  0.54609954523E+03  0.00000000000E+00 0.  1.
      99926    2    1    2    0    0  0.00000000000E+00  0.00000000000E+00 -0.44499608558E+03  0.64720300488E+03  0.46994703248E+03 0.  0.
      99925    2    3    3    0    0 -0.50129598679E+02 -0.39044280694E+02 -0.12549845667E+03  0.29825648247E+03  0.26300120568E+03 0.  0.
         25    1    3    3    0    0  0.50129598679E+02  0.39044280694E+02 -0.31949762892E+03  0.34894652241E+03  0.12509000000E+03 0.  0.
         25    1    4    4    0    0 -0.31360670188E+02 -0.38555060836E+02 -0.10366714317E+03  0.16989517069E+03  0.12509000000E+03 0.  0.
         25    1    4    4    0    0 -0.18768928491E+02 -0.48921985851E+00 -0.21831313497E+02  0.12836131178E+03  0.12509000000E+03 0.  0.
<mgrwt>
<rscale>  2 0.46994703E+03</rscale>
<asrwt>0</asrwt>
<pdfrwt beam="1">  1       21 0.14868156E-01 0.46994703E+03</pdfrwt>
<pdfrwt beam="2">  1       21 0.80308756E-01 0.46994703E+03</pdfrwt>
<totfact> 0.49732619E+04</totfact>
</mgrwt>
</event>
<event>
 7    0  0.4737014E-002  0.4600842E+03  0.7546771E-02  0.1024757E+00
         21   -1    0    0  502  501  0.00000000000E+00  0.00000000000E+00  0.34472984096E+03  0.34472984096E+03  0.00000000000E+00 0.  1.
         21   -1    0    0  501  502 -0.00000000000E+00 -0.00000000000E+00 -0.15350966390E+03  0.15350966390E+03  0.00000000000E+00 0.  1.
      99926    2    1    2    0    0  0.00000000000E+00  0.35527136788E-14  0.19122017706E+03  0.49823950486E+03  0.46008417500E+03 0.  0.
      99925    2    3    3    0    0 -0.66664453559E+02  0.17364696920E+02  0.16227537080E+02  0.27237314123E+03  0.26301732460E+03 0.  0.
         25    1    3    3    0    0  0.66664453559E+02 -0.17364696920E+02  0.17499263998E+03  0.22586636362E+03  0.12509000000E+03 0.  0.
         25    1    4    4    0    0 -0.66095911102E+02  0.34512350570E+02  0.83269477124E+01  0.14586506766E+03  0.12509000000E+03 0.  0.
         25    1    4    4    0    0 -0.56854245703E+00 -0.17147653650E+02  0.79005893679E+01  0.12650807357E+03  0.12509000000E+03 0.  0.
<mgrwt>
<rscale>  2 0.46008417E+03</rscale>
<asrwt>0</asrwt>
<pdfrwt beam="1">  1       21 0.50695565E-01 0.46008417E+03</pdfrwt>
<pdfrwt beam="2">  1       21 0.22574951E-01 0.46008417E+03</pdfrwt>
<totfact> 0.62820494E+04</totfact>
</mgrwt>
</event>
<event>
 7    0  0.4737014E-002  0.4338700E+03  0.7546771E-02  0.1032644E+00
         21   -1    0    0  502  501  0.00000000000E+00  0.00000000000E+00  0.93967383908E+03  0.93967383908E+03  0.00000000000E+00 0.  1.
         21   -1    0    0  501  502 -0.00000000000E+00 -0.00000000000E+00 -0.50082042011E+02  0.50082042011E+02  0.00000000000E+00 0.  1.
      99926    2    1    2    0    0 -0.14210854715E-13  0.17763568394E-14  0.88959179707E+03  0.98975588109E+03  0.43386995603E+03 0.  0.
      99925    2    3    3    0    0 -0.85965804557E+02  0.14389820232E+01  0.49881416058E+03  0.57053415038E+03  0.26325170414E+03 0.  0.
         25    1    4    4    0    0 -0.38441843983E+02  0.31812376492E+02  0.30135456562E+03  0.33007860425E+03  0.12509000000E+03 0.  0.
         25    1    3    3    0    0  0.85965804557E+02 -0.14389820232E+01  0.39077763649E+03  0.41922173071E+03  0.12509000000E+03 0.  0.
         25    1    4    4    0    0 -0.47523960573E+02 -0.30373394469E+02  0.19745959496E+03  0.24045554613E+03  0.12509000000E+03 0.  0.
<mgrwt>
<rscale>  2 0.43386996E+03</rscale>
<asrwt>0</asrwt>
<pdfrwt beam="1">  1       21 0.13818732E+00 0.43386996E+03</pdfrwt>
<pdfrwt beam="2">  1       21 0.73650068E-02 0.43386996E+03</pdfrwt>
<totfact> 0.46832485E+04</totfact>
</mgrwt>
</event>
<event>
 7    0  0.4737014E-002  0.4584421E+03  0.7546771E-02  0.1025234E+00
         21   -1    0    0  502  501  0.00000000000E+00  0.00000000000E+00  0.20976800266E+02  0.20976800266E+02  0.00000000000E+00 0.  1.
         21   -1    0    0  501  502 -0.00000000000E+00 -0.00000000000E+00 -0.25047813855E+04  0.25047813855E+04  0.00000000000E+00 0.  1.
      99926    2    1    2    0    0  0.00000000000E+00  0.00000000000E+00 -0.24838045852E+04  0.25257581858E+04  0.45844213958E+03 0.  0.
      99925    2    3    3    0    0 -0.45853096667E+02 -0.10950187736E+02 -0.97207193341E+03  0.10081266324E+04  0.26300769978E+03 0.  0.
         25    1    4    4    0    0 -0.81796165416E+01  0.10899030476E+02 -0.34531056168E+03  0.36752222668E+03  0.12509000000E+03 0.  0.
         25    1    4    4    0    0 -0.37673480125E+02 -0.21849218212E+02 -0.62676137173E+03  0.64060440572E+03  0.12509000000E+03 0.  0.
         25    1    3    3    0    0  0.45853096667E+02  0.10950187736E+02 -0.15117326518E+04  0.15176315534E+04  0.12509000000E+03 0.  0.
<mgrwt>
<rscale>  2 0.45844214E+03</rscale>
<asrwt>0</asrwt>
<pdfrwt beam="1">  1       21 0.30848232E-02 0.45844214E+03</pdfrwt>
<pdfrwt beam="2">  1       21 0.36835025E+00 0.45844214E+03</pdfrwt>
<totfact> 0.66909452E+03</totfact>
</mgrwt>
</event>
<event>
 7    0  0.4737014E-002  0.4513875E+03  0.7546771E-02  0.1027309E+00
         21   -1    0    0  502  501  0.00000000000E+00  0.00000000000E+00  0.13363218907E+03  0.13363218907E+03  0.00000000000E+00 0. -1.
         21   -1    0    0  501  502 -0.00000000000E+00 -0.00000000000E+00 -0.38117805279E+03  0.38117805279E+03  0.00000000000E+00 0. -1.
      99926    2    1    2    0    0 -0.14210854715E-13 -0.14210854715E-13 -0.24754586372E+03  0.51481024186E+03  0.45138745051E+03 0.  0.
      99925    2    3    3    0    0  0.78049892874E+02  0.76023160707E+02 -0.14142049511E+03  0.31788028298E+03  0.26301484963E+03 0.  0.
         25    1    4    4    0    0  0.18959848092E+02  0.30957358306E+02 -0.10650109561E+03  0.16824929521E+03  0.12509000000E+03 0.  0.
         25    1    3    3    0    0 -0.78049892874E+02 -0.76023160707E+02 -0.10612536862E+03  0.19692995888E+03  0.12509000000E+03 0.  0.
         25    1    4    4    0    0  0.59090044782E+02  0.45065802400E+02 -0.34919399500E+02  0.14963098777E+03  0.12509000000E+03 0.  0.
<mgrwt>
<rscale>  2 0.45138745E+03</rscale>
<asrwt>0</asrwt>
<pdfrwt beam="1">  1       21 0.19651793E-01 0.45138745E+03</pdfrwt>
<pdfrwt beam="2">  1       21 0.56055596E-01 0.45138745E+03</pdfrwt>
<totfact> 0.66117189E+04</totfact>
</mgrwt>
</event>
<event>
 7    0  0.4737014E-002  0.4507893E+03  0.7546771E-02  0.1027487E+00
         21   -1    0    0  502  501  0.00000000000E+00  0.00000000000E+00  0.60070093925E+03  0.60070093925E+03  0.00000000000E+00 0. -1.
         21   -1    0    0  501  502 -0.00000000000E+00 -0.00000000000E+00 -0.84572453025E+02  0.84572453025E+02  0.00000000000E+00 0. -1.
      99926    2    1    2    0    0  0.14210854715E-13  0.00000000000E+00  0.51612848623E+03  0.68527339228E+03  0.45078931650E+03 0.  0.
      99925    2    3    3    0    0  0.10131441668E+03  0.21406052247E+02  0.37855775342E+03  0.47244471769E+03  0.26301180296E+03 0.  0.
         25    1    3    3    0    0 -0.10131441668E+03 -0.21406052247E+02  0.13757073281E+03  0.21282867459E+03  0.12509000000E+03 0.  0.
         25    1    4    4    0    0  0.83936566087E+02 -0.11840494661E+02  0.22239029026E+03  0.26886891554E+03  0.12509000000E+03 0.  0.
         25    1    4    4    0    0  0.17377850597E+02  0.33246546908E+02  0.15616746316E+03  0.20357580215E+03  0.12509000000E+03 0.  0.
<mgrwt>
<rscale>  2 0.45078932E+03</rscale>
<asrwt>0</asrwt>
<pdfrwt beam="1">  1       21 0.88338371E-01 0.45078932E+03</pdfrwt>
<pdfrwt beam="2">  1       21 0.12437126E-01 0.45078932E+03</pdfrwt>
<totfact> 0.55528058E+04</totfact>
</mgrwt>
</event>
<event>
 7    0  0.4737014E-002  0.4551945E+03  0.7546771E-02  0.1026184E+00
         21   -1    0    0  502  501  0.00000000000E+00  0.00000000000E+00  0.27266959350E+03  0.27266959350E+03  0.00000000000E+00 0.  1.
         21   -1    0    0  501  502 -0.00000000000E+00 -0.00000000000E+00 -0.18997540956E+03  0.18997540956E+03  0.00000000000E+00 0.  1.
      99926    2    1    2    0    0  0.00000000000E+00  0.00000000000E+00  0.82694183946E+02  0.46264500306E+03  0.45519454171E+03 0.  0.
      99925    2    3    3    0    0  0.33809062263E+02  0.10305180495E+03  0.85410728390E+02  0.29706235026E+03  0.26303672790E+03 0.  0.
         25    1    3    3    0    0 -0.33809062263E+02 -0.10305180495E+03 -0.27165444443E+01  0.16558265280E+03  0.12509000000E+03 0.  0.
         25    1    4    4    0    0  0.41162499735E+02  0.75224590992E+02  0.19920955000E+02  0.15296222744E+03  0.12509000000E+03 0.  0.
         25    1    4    4    0    0 -0.73534374723E+01  0.27827213960E+02  0.65489773390E+02  0.14410012282E+03  0.12509000000E+03 0.  0.
<mgrwt>
<rscale>  2 0.45519454E+03</rscale>
<asrwt>0</asrwt>
<pdfrwt beam="1">  1       21 0.40098470E-01 0.45519454E+03</pdfrwt>
<pdfrwt beam="2">  1       21 0.27937560E-01 0.45519454E+03</pdfrwt>
<totfact> 0.67880267E+04</totfact>
</mgrwt>
</event>
<event>
 7    0  0.4737014E-002  0.4564790E+03  0.7546771E-02  0.1025807E+00
         21   -1    0    0  502  501  0.00000000000E+00  0.00000000000E+00  0.68023485612E+03  0.68023485612E+03  0.00000000000E+00 0.  1.
         21   -1    0    0  501  502 -0.00000000000E+00 -0.00000000000E+00 -0.76581283116E+02  0.76581283116E+02  0.00000000000E+00 0.  1.
      99926    2    1    2    0    0  0.14210854715E-13 -0.17763568394E-14  0.60365357301E+03  0.75681613924E+03  0.45647895067E+03 0.  0.
      99925    2    3    3    0    0  0.10913100553E+03  0.98568298021E+01  0.32429441062E+03  0.43170726029E+03  0.26305429167E+03 0.  0.
         25    1    3    3    0    0 -0.10913100553E+03 -0.98568298021E+01  0.27935916238E+03  0.32510887895E+03  0.12509000000E+03 0.  0.
         25    1    4    4    0    0  0.88935720650E+02 -0.19785565233E+02  0.17106794490E+03  0.23067895628E+03  0.12509000000E+03 0.  0.
         25    1    4    4    0    0  0.20195284884E+02  0.29642395036E+02  0.15322646572E+03  0.20102830401E+03  0.12509000000E+03 0.  0.
<mgrwt>
<rscale>  2 0.45647895E+03</rscale>
<asrwt>0</asrwt>
<pdfrwt beam="1">  1       21 0.10003453E+00 0.45647895E+03</pdfrwt>
<pdfrwt beam="2">  1       21 0.11261954E-01 0.45647895E+03</pdfrwt>
<totfact> 0.49348245E+04</totfact>
</mgrwt>
</event>
<event>
 7    0  0.4737014E-002  0.4535884E+03  0.7546771E-02  0.1026657E+00
         21   -1    0    0  502  501  0.00000000000E+00  0.00000000000E+00  0.28273630259E+03  0.28273630259E+03  0.00000000000E+00 0. -1.
         21   -1    0    0  501  502 -0.00000000000E+00 -0.00000000000E+00 -0.18192075894E+03  0.18192075894E+03  0.00000000000E+00 0. -1.
      99926    2    1    2    0    0  0.14210854715E-13  0.00000000000E+00  0.10081554365E+03  0.46465706153E+03  0.45358837175E+03 0.  0.
      99925    2    3    3    0    0 -0.70862166221E+02 -0.86706686952E+02  0.60477672097E+02  0.29198932238E+03  0.26279406271E+03 0.  0.
         25    1    4    4    0    0 -0.74002669415E+02 -0.49740681028E+02  0.17461602287E+02  0.15460577636E+03  0.12509000000E+03 0.  0.
         25    1    4    4    0    0  0.31405031933E+01 -0.36966005924E+02  0.43016069810E+02  0.13738354602E+03  0.12509000000E+03 0.  0.
         25    1    3    3    0    0  0.70862166221E+02  0.86706686952E+02  0.40337871556E+02  0.17266773916E+03  0.12509000000E+03 0.  0.
<mgrwt>
<rscale>  2 0.45358837E+03</rscale>
<asrwt>0</asrwt>
<pdfrwt beam="1">  1       21 0.41578868E-01 0.45358837E+03</pdfrwt>
<pdfrwt beam="2">  1       21 0.26753052E-01 0.45358837E+03</pdfrwt>
<totfact> 0.68600521E+04</totfact>
</mgrwt>
</event>
<event>
 7    0  0.4737014E-002  0.4296535E+03  0.7546771E-02  0.1033969E+00
         21   -1    0    0  502  501  0.00000000000E+00  0.00000000000E+00  0.47818335266E+02  0.47818335266E+02  0.00000000000E+00 0. -1.
         21   -1    0    0  501  502 -0.00000000000E+00 -0.00000000000E+00 -0.96512226001E+03  0.96512226001E+03  0.00000000000E+00 0. -1.
      99926    2    1    2    0    0  0.00000000000E+00  0.00000000000E+00 -0.91730392475E+03  0.10129405953E+04  0.42965353392E+03 0.  0.
      99925    2    3    3    0    0 -0.33148213679E+02 -0.44720803421E+02 -0.43392626280E+03  0.51054610238E+03  0.26318542280E+03 0.  0.
         25    1    3    3    0    0  0.33148213679E+02  0.44720803421E+02 -0.48337766194E+03  0.50239449290E+03  0.12509000000E+03 0.  0.
         25    1    4    4    0    0 -0.53288457180E+02 -0.32131365472E+02 -0.25768996343E+03  0.29312746318E+03  0.12509000000E+03 0.  0.
         25    1    4    4    0    0  0.20140243501E+02 -0.12589437948E+02 -0.17623629937E+03  0.21741863920E+03  0.12509000000E+03 0.  0.
<mgrwt>
<rscale>  2 0.42965353E+03</rscale>
<asrwt>0</asrwt>
<pdfrwt beam="1">  1       21 0.70321086E-02 0.42965353E+03</pdfrwt>
<pdfrwt beam="2">  1       21 0.14192973E+00 0.42965353E+03</pdfrwt>
<totfact> 0.47370860E+04</totfact>
</mgrwt>
</event>
<event>
 7    0  0.4737014E-002  0.4579123E+03  0.7546771E-02  0.1025388E+00
         21   -1    0    0  502  501  0.00000000000E+00  0.00000000000E+00  0.63012991205E+03  0.63012991205E+03  0.00000000000E+00 0.  1.
         21   -1    0    0  501  502 -0.00000000000E+00 -0.00000000000E+00 -0.83190663107E+02  0.83190663107E+02  0.00000000000E+00 0.  1.
      99926    2    1    2    0    0  0.14210854715E-13  0.71054273576E-14  0.54693924894E+03  0.71332057516E+03  0.45791232884E+03 0.  0.
      99925    2    3    3    0    0  0.10311480541E+03  0.40513346078E+02  0.29051535988E+03  0.40725732468E+03  0.26303110059E+03 0.  0.
         25    1    4    4    0    0  0.94419326487E+02  0.17139617990E+02  0.15298398859E+03  0.21968246308E+03  0.12509000000E+03 0.  0.
         25    1    3    3    0    0 -0.10311480541E+03 -0.40513346078E+02  0.25642388906E+03  0.30606325047E+03  0.12509000000E+03 0.  0.
         25    1    4    4    0    0  0.86954789274E+01  0.23373728088E+02  0.13753137129E+03  0.18757486161E+03  0.12509000000E+03 0.  0.
<mgrwt>
<rscale>  2 0.45791233E+03</rscale>
<asrwt>0</asrwt>
<pdfrwt beam="1">  1       21 0.92666161E-01 0.45791233E+03</pdfrwt>
<pdfrwt beam="2">  1       21 0.12233921E-01 0.45791233E+03</pdfrwt>
<totfact> 0.51006995E+04</totfact>
</mgrwt>
</event>
<event>
 7    0  0.4737014E-002  0.4584266E+03  0.7546771E-02  0.1025239E+00
         21   -1    0    0  502  501  0.00000000000E+00  0.00000000000E+00  0.15105133677E+04  0.15105133677E+04  0.00000000000E+00 0.  1.
         21   -1    0    0  501  502 -0.00000000000E+00 -0.00000000000E+00 -0.34782039768E+02  0.34782039768E+02  0.00000000000E+00 0.  1.
      99926    2    1    2    0    0  0.00000000000E+00  0.14210854715E-13  0.14757313279E+04  0.15452954075E+04  0.45842659620E+03 0.  0.
      99925    2    3    3    0    0 -0.72070740309E+02  0.81885949309E+02  0.78897476287E+03  0.83876756792E+03  0.26296455321E+03 0.  0.
         25    1    4    4    0    0 -0.36359257468E+02  0.75701023635E+02  0.35437326074E+03  0.38507214468E+03  0.12509000000E+03 0.  0.
         25    1    4    4    0    0 -0.35711482840E+02  0.61849256746E+01  0.43460150213E+03  0.45369542324E+03  0.12509000000E+03 0.  0.
         25    1    3    3    0    0  0.72070740309E+02 -0.81885949309E+02  0.68675656506E+03  0.70652783955E+03  0.12509000000E+03 0.  0.
<mgrwt>
<rscale>  2 0.45842660E+03</rscale>
<asrwt>0</asrwt>
<pdfrwt beam="1">  1       21 0.22213427E+00 0.45842660E+03</pdfrwt>
<pdfrwt beam="2">  1       21 0.51150069E-02 0.45842660E+03</pdfrwt>
<totfact> 0.22096630E+04</totfact>
</mgrwt>
</event>
<event>
 7    0  0.4737014E-002  0.4479004E+03  0.7546771E-02  0.1028350E+00
         21   -1    0    0  502  501  0.00000000000E+00  0.00000000000E+00  0.10190677982E+03  0.10190677982E+03  0.00000000000E+00 0. -1.
         21   -1    0    0  501  502 -0.00000000000E+00 -0.00000000000E+00 -0.49215264029E+03  0.49215264029E+03  0.00000000000E+00 0. -1.
      99926    2    1    2    0    0  0.71054273576E-14  0.00000000000E+00 -0.39024586047E+03  0.59405942011E+03  0.44790039407E+03 0.  0.
      99925    2    3    3    0    0 -0.63891658934E+02  0.77897095237E+02 -0.20187429011E+03  0.34650849980E+03  0.26299203390E+03 0.  0.
         25    1    4    4    0    0 -0.25737848746E+02  0.60372224927E+02 -0.62151410111E+02  0.15432935003E+03  0.12509000000E+03 0.  0.
         25    1    3    3    0    0  0.63891658934E+02 -0.77897095237E+02 -0.18837157036E+03  0.24755092031E+03  0.12509000000E+03 0.  0.
         25    1    4    4    0    0 -0.38153810188E+02  0.17524870309E+02 -0.13972288000E+03  0.19217914977E+03  0.12509000000E+03 0.  0.
<mgrwt>
<rscale>  2 0.44790039E+03</rscale>
<asrwt>0</asrwt>
<pdfrwt beam="1">  1       21 0.14986291E-01 0.44790039E+03</pdfrwt>
<pdfrwt beam="2">  1       21 0.72375391E-01 0.44790039E+03</pdfrwt>
<totfact> 0.62477553E+04</totfact>
</mgrwt>
</event>
<event>
 7    0  0.4737014E-002  0.4518234E+03  0.7546771E-02  0.1027180E+00
         21   -1    0    0  502  501  0.00000000000E+00  0.00000000000E+00  0.27255401309E+03  0.27255401309E+03  0.00000000000E+00 0.  1.
         21   -1    0    0  501  502 -0.00000000000E+00 -0.00000000000E+00 -0.18725132841E+03  0.18725132841E+03  0.00000000000E+00 0.  1.
      99926    2    1    2    0    0  0.00000000000E+00  0.00000000000E+00  0.85302684683E+02  0.45980534150E+03  0.45182342133E+03 0.  0.
      99925    2    3    3    0    0 -0.63163354277E+02 -0.30309155649E+02  0.14035429524E+03  0.30622655988E+03  0.26299643257E+03 0.  0.
         25    1    3    3    0    0  0.63163354277E+02  0.30309155649E+02 -0.55051610557E+02  0.15357878162E+03  0.12509000000E+03 0.  0.
         25    1    4    4    0    0 -0.52323158969E+02 -0.46758079225E+02  0.93459631406E+02  0.17119065903E+03  0.12509000000E+03 0.  0.
         25    1    4    4    0    0 -0.10840195308E+02  0.16448923576E+02  0.46894663835E+02  0.13503590085E+03  0.12509000000E+03 0.  0.
<mgrwt>
<rscale>  2 0.45182342E+03</rscale>
<asrwt>0</asrwt>
<pdfrwt beam="1">  1       21 0.40081473E-01 0.45182342E+03</pdfrwt>
<pdfrwt beam="2">  1       21 0.27536960E-01 0.45182342E+03</pdfrwt>
<totfact> 0.69947181E+04</totfact>
</mgrwt>
</event>
<event>
 7    0  0.4737014E-002  0.4146635E+03  0.7546771E-02  0.1038817E+00
         21   -1    0    0  502  501  0.00000000000E+00  0.00000000000E+00  0.58390513592E+03  0.58390513592E+03  0.00000000000E+00 0.  1.
         21   -1    0    0  501  502 -0.00000000000E+00 -0.00000000000E+00 -0.73618895432E+02  0.73618895432E+02  0.00000000000E+00 0.  1.
      99926    2    1    2    0    0  0.00000000000E+00  0.26645352591E-14  0.51028624049E+03  0.65752403135E+03  0.41466348353E+03 0.  0.
      99925    2    3    3    0    0  0.45557075762E+02 -0.65249553959E+01  0.25385120167E+03  0.36851804624E+03  0.26314842888E+03 0.  0.
         25    1    4    4    0    0  0.24794560553E+02  0.36241417269E+02  0.11253857643E+03  0.17389838942E+03  0.12509000000E+03 0.  0.
         25    1    4    4    0    0  0.20762515209E+02 -0.42766372665E+02  0.14131262524E+03  0.19461965682E+03  0.12509000000E+03 0.  0.
         25    1    3    3    0    0 -0.45557075762E+02  0.65249553959E+01  0.25643503882E+03  0.28900598511E+03  0.12509000000E+03 0.  0.
<mgrwt>
<rscale>  2 0.41466348E+03</rscale>
<asrwt>0</asrwt>
<pdfrwt beam="1">  1       21 0.85868400E-01 0.41466348E+03</pdfrwt>
<pdfrwt beam="2">  1       21 0.10826308E-01 0.41466348E+03</pdfrwt>
<totfact> 0.76969868E+04</totfact>
</mgrwt>
</event>
<event>
 7    0  0.4737014E-002  0.4585280E+03  0.7546771E-02  0.1025209E+00
         21   -1    0    0  502  501  0.00000000000E+00  0.00000000000E+00  0.36861567341E+03  0.36861567341E+03  0.00000000000E+00 0. -1.
         21   -1    0    0  501  502 -0.00000000000E+00 -0.00000000000E+00 -0.14259294011E+03  0.14259294011E+03  0.00000000000E+00 0. -1.
      99926    2    1    2    0    0  0.00000000000E+00 -0.17763568394E-14  0.22602273329E+03  0.51120861352E+03  0.45852804775E+03 0.  0.
      99925    2    3    3    0    0  0.10016513518E+03 -0.13594426992E+02  0.77283443045E+02  0.29214527265E+03  0.26297959429E+03 0.  0.
         25    1    4    4    0    0  0.33046948026E+02  0.24840505049E+02  0.57517167400E+02  0.14375285775E+03  0.12509000000E+03 0.  0.
         25    1    4    4    0    0  0.67118187149E+02 -0.38434932042E+02  0.19766275646E+02  0.14839241490E+03  0.12509000000E+03 0.  0.
         25    1    3    3    0    0 -0.10016513518E+03  0.13594426992E+02  0.14873929025E+03  0.21906334087E+03  0.12509000000E+03 0.  0.
<mgrwt>
<rscale>  2 0.45852805E+03</rscale>
<asrwt>0</asrwt>
<pdfrwt beam="1">  1       21 0.54208187E-01 0.45852805E+03</pdfrwt>
<pdfrwt beam="2">  1       21 0.20969550E-01 0.45852805E+03</pdfrwt>
<totfact> 0.62715644E+04</totfact>
</mgrwt>
</event>
<event>
 7    0  0.4737014E-002  0.4625004E+03  0.7546771E-02  0.1024059E+00
         21   -1    0    0  502  501  0.00000000000E+00  0.00000000000E+00  0.78544021135E+03  0.78544021135E+03  0.00000000000E+00 0. -1.
         21   -1    0    0  501  502 -0.00000000000E+00 -0.00000000000E+00 -0.68084950178E+02  0.68084950178E+02  0.00000000000E+00 0. -1.
      99926    2    1    2    0    0  0.00000000000E+00 -0.14210854715E-13  0.71735526117E+03  0.85352516153E+03  0.46250041149E+03 0.  0.
      99925    2    3    3    0    0 -0.34014092705E+02 -0.99411878026E+02  0.34023348498E+03  0.44254094994E+03  0.26276222727E+03 0.  0.
         25    1    4    4    0    0 -0.14706131561E+02 -0.40871327265E+02  0.10465371208E+03  0.16877986625E+03  0.12509000000E+03 0.  0.
         25    1    3    3    0    0  0.34014092705E+02  0.99411878026E+02  0.37712177619E+03  0.41098421158E+03  0.12509000000E+03 0.  0.
         25    1    4    4    0    0 -0.19307961145E+02 -0.58540550761E+02  0.23557977290E+03  0.27376108370E+03  0.12509000000E+03 0.  0.
<mgrwt>
<rscale>  2 0.46250041E+03</rscale>
<asrwt>0</asrwt>
<pdfrwt beam="1">  1       21 0.11550591E+00 0.46250041E+03</pdfrwt>
<pdfrwt beam="2">  1       21 0.10012493E-01 0.46250041E+03</pdfrwt>
<totfact> 0.42713016E+04</totfact>
</mgrwt>
</event>
<event>
 7    0  0.4737014E-002  0.4518135E+03  0.7546771E-02  0.1027183E+00
         21   -1    0    0  502  501  0.00000000000E+00  0.00000000000E+00  0.12516580387E+03  0.12516580387E+03  0.00000000000E+00 0.  1.
         21   -1    0    0  501  502 -0.00000000000E+00 -0.00000000000E+00 -0.40772998293E+03  0.40772998293E+03  0.00000000000E+00 0.  1.
      99926    2    1    2    0    0 -0.14210854715E-13 -0.71054273576E-14 -0.28256417906E+03  0.53289578680E+03  0.45181346185E+03 0.  0.
      99925    2    3    3    0    0  0.85283167994E+02  0.59914534504E+02 -0.21945454595E+03  0.35827246626E+03  0.26331709430E+03 0.  0.
         25    1    4    4    0    0  0.44842675808E+02 -0.11776947635E+02 -0.10664163244E+03  0.17079083096E+03  0.12509000000E+03 0.  0.
         25    1    3    3    0    0 -0.85283167994E+02 -0.59914534504E+02 -0.63109633108E+02  0.17462332055E+03  0.12509000000E+03 0.  0.
         25    1    4    4    0    0  0.40440492187E+02  0.71691482140E+02 -0.11281291351E+03  0.18748163530E+03  0.12509000000E+03 0.  0.
<mgrwt>
<rscale>  2 0.45181346E+03</rscale>
<asrwt>0</asrwt>
<pdfrwt beam="1">  1       21 0.18406736E-01 0.45181346E+03</pdfrwt>
<pdfrwt beam="2">  1       21 0.59960291E-01 0.45181346E+03</pdfrwt>
<totfact> 0.64625778E+04</totfact>
</mgrwt>
</event>
<event>
 7    0  0.4737014E-002  0.4300780E+03  0.7546771E-02  0.1033835E+00
         21   -1    0    0  502  501  0.00000000000E+00  0.00000000000E+00  0.38641921718E+03  0.38641921718E+03  0.00000000000E+00 0. -1.
         21   -1    0    0  501  502 -0.00000000000E+00 -0.00000000000E+00 -0.11966737640E+03  0.11966737640E+03  0.00000000000E+00 0. -1.
      99926    2    1    2    0    0  0.00000000000E+00  0.00000000000E+00  0.26675184078E+03  0.50608659359E+03  0.43007801112E+03 0.  0.
      99925    2    3    3    0    0 -0.71341478322E+02  0.38239420329E+02  0.13224862361E+03  0.30536169895E+03  0.26306692864E+03 0.  0.
         25    1    4    4    0    0 -0.66425175169E+02 -0.66607919265E+01  0.59473518519E+02  0.15375720325E+03  0.12509000000E+03 0.  0.
         25    1    4    4    0    0 -0.49163031533E+01  0.44900212255E+02  0.72775105086E+02  0.15160449570E+03  0.12509000000E+03 0.  0.
         25    1    3    3    0    0  0.71341478322E+02 -0.38239420329E+02  0.13450321717E+03  0.20072489463E+03  0.12509000000E+03 0.  0.
<mgrwt>
<rscale>  2 0.43007801E+03</rscale>
<asrwt>0</asrwt>
<pdfrwt beam="1">  1       21 0.56826355E-01 0.43007801E+03</pdfrwt>
<pdfrwt beam="2">  1       21 0.17598144E-01 0.43007801E+03</pdfrwt>
<totfact> 0.79417907E+04</totfact>
</mgrwt>
</event>
<event>
 7    0  0.4737014E-002  0.4430438E+03  0.7546771E-02  0.1029817E+00
         21   -1    0    0  502  501  0.00000000000E+00  0.00000000000E+00  0.63235927089E+03  0.63235927089E+03  0.00000000000E+00 0. -1.
         21   -1    0    0  501  502 -0.00000000000E+00 -0.00000000000E+00 -0.77601390022E+02  0.77601390022E+02  0.00000000000E+00 0. -1.
      99926    2    1    2    0    0  0.00000000000E+00  0.00000000000E+00  0.55475788087E+03  0.70996066091E+03  0.44304382814E+03 0.  0.
      99925    2    3    3    0    0 -0.16096149833E+02  0.44260291979E+02  0.49713362091E+03  0.56440612501E+03  0.26304824162E+03 0.  0.
         25    1    4    4    0    0  0.13205975233E+02  0.82776484490E+01  0.17445567198E+03  0.21523291298E+03  0.12509000000E+03 0.  0.
         25    1    4    4    0    0 -0.29302125066E+02  0.35982643530E+02  0.32267794894E+03  0.34917321203E+03  0.12509000000E+03 0.  0.
         25    1    3    3    0    0  0.16096149833E+02 -0.44260291979E+02  0.57624259951E+02  0.14555453590E+03  0.12509000000E+03 0.  0.
<mgrwt>
<rscale>  2 0.44304383E+03</rscale>
<asrwt>0</asrwt>
<pdfrwt beam="1">  1       21 0.92994008E-01 0.44304383E+03</pdfrwt>
<pdfrwt beam="2">  1       21 0.11411969E-01 0.44304383E+03</pdfrwt>
<totfact> 0.57595007E+04</totfact>
</mgrwt>
</event>
<event>
 7    0  0.4737014E-002  0.4578026E+03  0.7546771E-02  0.1025420E+00
         21   -1    0    0  502  501  0.00000000000E+00  0.00000000000E+00  0.84412877865E+02  0.84412877865E+02  0.00000000000E+00 0.  1.
         21   -1    0    0  501  502 -0.00000000000E+00 -0.00000000000E+00 -0.62070873338E+03  0.62070873338E+03  0.00000000000E+00 0.  1.
      99926    2    1    2    0    0  0.00000000000E+00  0.00000000000E+00 -0.53629585552E+03  0.70512161125E+03  0.45780262341E+03 0.  0.
      99925    2    3    3    0    0 -0.64853909178E+02 -0.21105761086E+02 -0.48071841648E+03  0.55219076898E+03  0.26300754118E+03 0.  0.
         25    1    4    4    0    0 -0.22979219960E+02 -0.81006225369E+01 -0.31621038802E+03  0.34092547900E+03  0.12509000000E+03 0.  0.
         25    1    4    4    0    0 -0.41874689218E+02 -0.13005138550E+02 -0.16450802845E+03  0.21126528998E+03  0.12509000000E+03 0.  0.
         25    1    3    3    0    0  0.64853909178E+02  0.21105761086E+02 -0.55577439042E+02  0.15293084227E+03  0.12509000000E+03 0.  0.
<mgrwt>
<rscale>  2 0.45780262E+03</rscale>
<asrwt>0</asrwt>
<pdfrwt beam="1">  1       21 0.12413659E-01 0.45780262E+03</pdfrwt>
<pdfrwt beam="2">  1       21 0.91280696E-01 0.45780262E+03</pdfrwt>
<totfact> 0.51481018E+04</totfact>
</mgrwt>
</event>
<event>
 7    0  0.4737014E-002  0.4480476E+03  0.7546771E-02  0.1028306E+00
         21   -1    0    0  502  501  0.00000000000E+00  0.00000000000E+00  0.22867030635E+03  0.22867030635E+03  0.00000000000E+00 0. -1.
         21   -1    0    0  501  502 -0.00000000000E+00 -0.00000000000E+00 -0.21947174168E+03  0.21947174168E+03  0.00000000000E+00 0. -1.
      99926    2    1    2    0    0  0.00000000000E+00  0.71054273576E-14  0.91985646709E+01  0.44814204802E+03  0.44804763320E+03 0.  0.
      99925    2    3    3    0    0  0.75636767721E+02 -0.51798939952E+02 -0.47899629707E+02  0.28287933985E+03  0.26329127516E+03 0.  0.
         25    1    4    4    0    0  0.22942437842E+02 -0.61163694610E+02 -0.91779853132E+01  0.14141816187E+03  0.12509000000E+03 0.  0.
         25    1    3    3    0    0 -0.75636767721E+02  0.51798939952E+02  0.57098194378E+02  0.16526270817E+03  0.12509000000E+03 0.  0.
         25    1    4    4    0    0  0.52694329879E+02  0.93647546577E+01 -0.38721644394E+02  0.14146117798E+03  0.12509000000E+03 0.  0.
<mgrwt>
<rscale>  2 0.44804763E+03</rscale>
<asrwt>0</asrwt>
<pdfrwt beam="1">  1       21 0.33627986E-01 0.44804763E+03</pdfrwt>
<pdfrwt beam="2">  1       21 0.32275256E-01 0.44804763E+03</pdfrwt>
<totfact> 0.73018378E+04</totfact>
</mgrwt>
</event>
<event>
 7    0  0.4737014E-002  0.4468370E+03  0.7546771E-02  0.1028670E+00
         21   -1    0    0  502  501  0.00000000000E+00  0.00000000000E+00  0.31007799258E+02  0.31007799258E+02  0.00000000000E+00 0. -1.
         21   -1    0    0  501  502 -0.00000000000E+00 -0.00000000000E+00 -0.16097826903E+04  0.16097826903E+04  0.00000000000E+00 0. -1.
      99926    2    1    2    0    0  0.00000000000E+00 -0.88817841970E-15 -0.15787748910E+04  0.16407904896E+04  0.44683696584E+03 0.  0.
      99925    2    3    3    0    0  0.63253830723E+02 -0.78560263733E+01 -0.13088721167E+04  0.13365573883E+04  0.26301458111E+03 0.  0.
         25    1    3    3    0    0 -0.63253830723E+02  0.78560263733E+01 -0.26990277431E+03  0.30423310131E+03  0.12509000000E+03 0.  0.
         25    1    4    4    0    0  0.19773824347E+02 -0.38848748608E+02 -0.56186652203E+03  0.57727092953E+03  0.12509000000E+03 0.  0.
         25    1    4    4    0    0  0.43480006376E+02  0.30992722235E+02 -0.74700559471E+03  0.75928645873E+03  0.12509000000E+03 0.  0.
<mgrwt>
<rscale>  2 0.44683697E+03</rscale>
<asrwt>0</asrwt>
<pdfrwt beam="1">  1       21 0.45599695E-02 0.44683697E+03</pdfrwt>
<pdfrwt beam="2">  1       21 0.23673280E+00 0.44683697E+03</pdfrwt>
<totfact> 0.21877659E+04</totfact>
</mgrwt>
</event>
<event>
 7    0  0.4737014E-002  0.4545893E+03  0.7546771E-02  0.1026362E+00
         21   -1    0    0  502  501  0.00000000000E+00  0.00000000000E+00  0.69302223474E+03  0.69302223474E+03  0.00000000000E+00 0. -1.
         21   -1    0    0  501  502 -0.00000000000E+00 -0.00000000000E+00 -0.74547175645E+02  0.74547175645E+02  0.00000000000E+00 0. -1.
      99926    2    1    2    0    0 -0.14210854715E-13  0.00000000000E+00  0.61847505909E+03  0.76756941038E+03  0.45458926630E+03 0.  0.
      99925    2    3    3    0    0  0.10063032930E+03  0.17133548782E+02  0.47084131660E+03  0.54879269386E+03  0.26279622095E+03 0.  0.
         25    1    3    3    0    0 -0.10063032930E+03 -0.17133548782E+02  0.14763374249E+03  0.21877671652E+03  0.12509000000E+03 0.  0.
         25    1    4    4    0    0  0.66858484848E+02  0.21967113459E+02  0.31435072895E+03  0.34556692544E+03  0.12509000000E+03 0.  0.
         25    1    4    4    0    0  0.33771844456E+02 -0.48335646763E+01  0.15649058766E+03  0.20322576842E+03  0.12509000000E+03 0.  0.
<mgrwt>
<rscale>  2 0.45458927E+03</rscale>
<asrwt>0</asrwt>
<pdfrwt beam="1">  1       21 0.10191503E+00 0.45458927E+03</pdfrwt>
<pdfrwt beam="2">  1       21 0.10962820E-01 0.45458927E+03</pdfrwt>
<totfact> 0.49532849E+04</totfact>
</mgrwt>
</event>
<event>
 7    0  0.4737014E-002  0.4559068E+03  0.7546771E-02  0.1025975E+00
         21   -1    0    0  502  501  0.00000000000E+00  0.00000000000E+00  0.56667619447E+03  0.56667619447E+03  0.00000000000E+00 0. -1.
         21   -1    0    0  501  502 -0.00000000000E+00 -0.00000000000E+00 -0.91697424438E+02  0.91697424438E+02  0.00000000000E+00 0. -1.
      99926    2    1    2    0    0  0.00000000000E+00  0.00000000000E+00  0.47497877003E+03  0.65837361891E+03  0.45590677785E+03 0.  0.
      99925    2    3    3    0    0  0.10165564654E+03  0.33429110602E+02  0.35533777047E+03  0.45487213787E+03  0.26304439698E+03 0.  0.
         25    1    3    3    0    0 -0.10165564654E+03 -0.33429110602E+02  0.11964099957E+03  0.20350148104E+03  0.12509000000E+03 0.  0.
         25    1    4    4    0    0  0.78853674767E+01  0.21446433102E+02  0.15608265414E+03  0.20132419511E+03  0.12509000000E+03 0.  0.
         25    1    4    4    0    0  0.93770279058E+02  0.11982677500E+02  0.19925511632E+03  0.25354794275E+03  0.12509000000E+03 0.  0.
<mgrwt>
<rscale>  2 0.45590678E+03</rscale>
<asrwt>0</asrwt>
<pdfrwt beam="1">  1       21 0.83334733E-01 0.45590678E+03</pdfrwt>
<pdfrwt beam="2">  1       21 0.13484916E-01 0.45590678E+03</pdfrwt>
<totfact> 0.54828286E+04</totfact>
</mgrwt>
</event>
<event>
 6    0  0.4737014E-002  0.3981106E+03  0.7546771E-02  0.1044436E+00
         21   -1    0    0  502  501  0.00000000000E+00  0.00000000000E+00  0.58807521700E+02  0.58807521700E+02  0.00000000000E+00 0. -1.
         21   -1    0    0  501  502 -0.00000000000E+00 -0.00000000000E+00 -0.67377446964E+03  0.67377446964E+03  0.00000000000E+00 0. -1.
      99926    2    1    2    0    0 -0.35527136788E-14 -0.17763568394E-14 -0.61496694794E+03  0.73258199134E+03  0.39811057129E+03 0.  0.
         25    1    3    3    0    0  0.18896528231E+02  0.33719604970E+02 -0.17926176076E+03  0.22198283156E+03  0.12509000000E+03 0.  0.
         25    1    3    3    0    0  0.28216394809E+02 -0.93235976240E+01 -0.24130630192E+03  0.27342153144E+03  0.12509000000E+03 0.  0.
         25    1    3    3    0    0 -0.47112923041E+02 -0.24396007346E+02 -0.19439888526E+03  0.23717762833E+03  0.12509000000E+03 0.  0.
<mgrwt>
<rscale>  2 0.39811057E+03</rscale>
<asrwt>0</asrwt>
<pdfrwt beam="1">  1       21 0.86481640E-02 0.39811057E+03</pdfrwt>
<pdfrwt beam="2">  1       21 0.99084492E-01 0.39811057E+03</pdfrwt>
<totfact> 0.82232685E+04</totfact>
</mgrwt>
</event>
<event>
 7    0  0.4737014E-002  0.4312012E+03  0.7546771E-02  0.1033481E+00
         21   -1    0    0  502  501  0.00000000000E+00  0.00000000000E+00  0.29834000072E+03  0.29834000072E+03  0.00000000000E+00 0. -1.
         21   -1    0    0  501  502 -0.00000000000E+00 -0.00000000000E+00 -0.15580754854E+03  0.15580754854E+03  0.00000000000E+00 0. -1.
      99926    2    1    2    0    0  0.00000000000E+00  0.00000000000E+00  0.14253245219E+03  0.45414754926E+03  0.43120122515E+03 0.  0.
      99925    2    3    3    0    0 -0.77177839748E+02 -0.44156292843E+02  0.86606649365E+02  0.29080312582E+03  0.26298203195E+03 0.  0.
         25    1    4    4    0    0  0.14078800833E+00 -0.14159513374E+02  0.55240809346E+02  0.13747569515E+03  0.12509000000E+03 0.  0.
         25    1    4    4    0    0 -0.77318627756E+02 -0.29996779469E+02  0.31365840020E+02  0.15332743067E+03  0.12509000000E+03 0.  0.
         25    1    3    3    0    0  0.77177839748E+02  0.44156292843E+02  0.55925802822E+02  0.16334442343E+03  0.12509000000E+03 0.  0.
<mgrwt>
<rscale>  2 0.43120123E+03</rscale>
<asrwt>0</asrwt>
<pdfrwt beam="1">  1       21 0.43873530E-01 0.43120123E+03</pdfrwt>
<pdfrwt beam="2">  1       21 0.22912875E-01 0.43120123E+03</pdfrwt>
<totfact> 0.83281755E+04</totfact>
</mgrwt>
</event>
<event>
 7    0  0.4737014E-002  0.4632933E+03  0.7546771E-02  0.1023830E+00
         21   -1    0    0  502  501  0.00000000000E+00  0.00000000000E+00  0.39444718750E+03  0.39444718750E+03  0.00000000000E+00 0.  1.
         21   -1    0    0  501  502 -0.00000000000E+00 -0.00000000000E+00 -0.13603893199E+03  0.13603893199E+03  0.00000000000E+00 0.  1.
      99926    2    1    2    0    0  0.00000000000E+00  0.00000000000E+00  0.25840825551E+03  0.53048611950E+03  0.46329331580E+03 0.  0.
      99925    2    3    3    0    0 -0.70124741518E+02  0.83755285906E+02  0.10340155278E+03  0.30331434906E+03  0.26339188662E+03 0.  0.
         25    1    4    4    0    0 -0.25843055138E+02  0.55133842419E+02  0.11949989236E+02  0.13963493267E+03  0.12509000000E+03 0.  0.
         25    1    3    3    0    0  0.70124741518E+02 -0.83755285906E+02  0.15500670274E+03  0.22717177044E+03  0.12509000000E+03 0.  0.
         25    1    4    4    0    0 -0.44281686379E+02  0.28621443487E+02  0.91451563539E+02  0.16367941639E+03  0.12509000000E+03 0.  0.
<mgrwt>
<rscale>  2 0.46329332E+03</rscale>
<asrwt>0</asrwt>
<pdfrwt beam="1">  1       21 0.58006939E-01 0.46329332E+03</pdfrwt>
<pdfrwt beam="2">  1       21 0.20005725E-01 0.46329332E+03</pdfrwt>
<totfact> 0.59185883E+04</totfact>
</mgrwt>
</event>
<event>
 7    0  0.4737014E-002  0.4527400E+03  0.7546771E-02  0.1026908E+00
         21   -1    0    0  502  501  0.00000000000E+00  0.00000000000E+00  0.10988126177E+04  0.10988126177E+04  0.00000000000E+00 0.  1.
         21   -1    0    0  501  502 -0.00000000000E+00 -0.00000000000E+00 -0.46635228487E+02  0.46635228487E+02  0.00000000000E+00 0.  1.
      99926    2    1    2    0    0  0.71054273576E-14 -0.14210854715E-13  0.10521773892E+04  0.11454478462E+04  0.45274000262E+03 0.  0.
      99925    2    3    3    0    0 -0.63137212087E+02  0.82797922729E+02  0.76121145685E+03  0.81205545657E+03  0.26296269499E+03 0.  0.
         25    1    4    4    0    0  0.96860358298E+01  0.40230859654E+02  0.33977140629E+03  0.36442345972E+03  0.12509000000E+03 0.  0.
         25    1    3    3    0    0  0.63137212087E+02 -0.82797922729E+02  0.29096593239E+03  0.33339238964E+03  0.12509000000E+03 0.  0.
         25    1    4    4    0    0 -0.72823247917E+02  0.42567063075E+02  0.42144005055E+03  0.44763199685E+03  0.12509000000E+03 0.  0.
<mgrwt>
<rscale>  2 0.45274000E+03</rscale>
<asrwt>0</asrwt>
<pdfrwt beam="1">  1       21 0.16159007E+00 0.45274000E+03</pdfrwt>
<pdfrwt beam="2">  1       21 0.68581225E-02 0.45274000E+03</pdfrwt>
<totfact> 0.34539109E+04</totfact>
</mgrwt>
</event>
<event>
 7    0  0.4737014E-002  0.4551949E+03  0.7546771E-02  0.1026184E+00
         21   -1    0    0  502  501  0.00000000000E+00  0.00000000000E+00  0.98785957027E+03  0.98785957027E+03  0.00000000000E+00 0. -1.
         21   -1    0    0  501  502 -0.00000000000E+00 -0.00000000000E+00 -0.52437201871E+02  0.52437201871E+02  0.00000000000E+00 0. -1.
      99926    2    1    2    0    0 -0.12073675393E-14  0.00000000000E+00  0.93542236840E+03  0.10402967721E+04  0.45519486687E+03 0.  0.
      99925    2    3    3    0    0  0.10988662416E+00 -0.11180024183E+03  0.54684476266E+03  0.61704818096E+03  0.26307785356E+03 0.  0.
         25    1    4    4    0    0 -0.27141060503E+02 -0.69819543826E+02  0.22465545539E+03  0.26782267940E+03  0.12509000000E+03 0.  0.
         25    1    3    3    0    0 -0.10988662416E+00  0.11180024183E+03  0.38857760574E+03  0.42324859118E+03  0.12509000000E+03 0.  0.
         25    1    4    4    0    0  0.27250947127E+02 -0.41980698009E+02  0.32218930726E+03  0.34922550156E+03  0.12509000000E+03 0.  0.
<mgrwt>
<rscale>  2 0.45519487E+03</rscale>
<asrwt>0</asrwt>
<pdfrwt beam="1">  1       21 0.14527346E+00 0.45519487E+03</pdfrwt>
<pdfrwt beam="2">  1       21 0.77113538E-02 0.45519487E+03</pdfrwt>
<totfact> 0.37578267E+04</totfact>
</mgrwt>
</event>
<event>
 7    0  0.4737014E-002  0.4559066E+03  0.7546771E-02  0.1025975E+00
         21   -1    0    0  502  501  0.00000000000E+00  0.00000000000E+00  0.32940684914E+02  0.32940684914E+02  0.00000000000E+00 0.  1.
         21   -1    0    0  501  502 -0.00000000000E+00 -0.00000000000E+00 -0.15774628068E+04  0.15774628068E+04  0.00000000000E+00 0.  1.
      99926    2    1    2    0    0  0.00000000000E+00  0.14210854715E-13 -0.15445221219E+04  0.16104034918E+04  0.45590659256E+03 0.  0.
      99925    2    3    3    0    0 -0.32828824312E+02 -0.93774319789E+02 -0.77363826079E+03  0.82314191501E+03  0.26301159467E+03 0.  0.
         25    1    4    4    0    0 -0.24565351017E+02 -0.12433436220E+02 -0.42353547632E+03  0.44247921376E+03  0.12509000000E+03 0.  0.
         25    1    4    4    0    0 -0.82634732959E+01 -0.81340883569E+02 -0.35010278447E+03  0.38066270125E+03  0.12509000000E+03 0.  0.
         25    1    3    3    0    0  0.32828824312E+02  0.93774319789E+02 -0.77088386113E+03  0.78726157674E+03  0.12509000000E+03 0.  0.
<mgrwt>
<rscale>  2 0.45590659E+03</rscale>
<asrwt>0</asrwt>
<pdfrwt beam="1">  1       21 0.48442172E-02 0.45590659E+03</pdfrwt>
<pdfrwt beam="2">  1       21 0.23197988E+00 0.45590659E+03</pdfrwt>
<totfact> 0.21047151E+04</totfact>
</mgrwt>
</event>
<event>
 7    0  0.4737014E-002  0.4431244E+03  0.7546771E-02  0.1029792E+00
         21   -1    0    0  502  501  0.00000000000E+00  0.00000000000E+00  0.13871461907E+03  0.13871461907E+03  0.00000000000E+00 0. -1.
         21   -1    0    0  501  502 -0.00000000000E+00 -0.00000000000E+00 -0.35389064470E+03  0.35389064470E+03  0.00000000000E+00 0. -1.
      99926    2    1    2    0    0  0.35527136788E-14  0.00000000000E+00 -0.21517602562E+03  0.49260526377E+03  0.44312438873E+03 0.  0.
      99925    2    3    3    0    0 -0.25940934177E+02 -0.37766283014E+02 -0.36136206545E+02  0.26944167105E+03  0.26304707654E+03 0.  0.
         25    1    3    3    0    0  0.25940934177E+02  0.37766283014E+02 -0.17903981908E+03  0.22316359272E+03  0.12509000000E+03 0.  0.
         25    1    4    4    0    0  0.19755092097E+02 -0.40455578857E+02 -0.28854300429E+02  0.13604042148E+03  0.12509000000E+03 0.  0.
         25    1    4    4    0    0 -0.45696026274E+02  0.26892958433E+01 -0.72819061161E+01  0.13340124957E+03  0.12509000000E+03 0.  0.
<mgrwt>
<rscale>  2 0.44312439E+03</rscale>
<asrwt>0</asrwt>
<pdfrwt beam="1">  1       21 0.20399209E-01 0.44312439E+03</pdfrwt>
<pdfrwt beam="2">  1       21 0.52042742E-01 0.44312439E+03</pdfrwt>
<totfact> 0.72379643E+04</totfact>
</mgrwt>
</event>
<event>
 7    0  0.4737014E-002  0.4533009E+03  0.7546771E-02  0.1026742E+00
         21   -1    0    0  502  501  0.00000000000E+00  0.00000000000E+00  0.77747789383E+02  0.77747789383E+02  0.00000000000E+00 0.  1.
         21   -1    0    0  501  502 -0.00000000000E+00 -0.00000000000E+00 -0.66073167458E+03  0.66073167458E+03  0.00000000000E+00 0.  1.
      99926    2    1    2    0    0  0.00000000000E+00  0.00000000000E+00 -0.58298388520E+03  0.73847946396E+03  0.45330090260E+03 0.  0.
      99925    2    3    3    0    0  0.13791163020E+02 -0.70867626761E+02 -0.22884273050E+03  0.35601916243E+03  0.26299853994E+03 0.  0.
         25    1    4    4    0    0 -0.27074352317E+02 -0.12495580843E+02 -0.11429144825E+03  0.17204419007E+03  0.12509000000E+03 0.  0.
         25    1    3    3    0    0 -0.13791163020E+02  0.70867626761E+02 -0.35414115470E+03  0.38246030154E+03  0.12509000000E+03 0.  0.
         25    1    4    4    0    0  0.40865515337E+02 -0.58372045917E+02 -0.11455128225E+03  0.18397497235E+03  0.12509000000E+03 0.  0.
<mgrwt>
<rscale>  2 0.45330090E+03</rscale>
<asrwt>0</asrwt>
<pdfrwt beam="1">  1       21 0.11433499E-01 0.45330090E+03</pdfrwt>
<pdfrwt beam="2">  1       21 0.97166421E-01 0.45330090E+03</pdfrwt>
<totfact> 0.51548208E+04</totfact>
</mgrwt>
</event>
<event>
 7    0  0.4737014E-002  0.4514162E+03  0.7546771E-02  0.1027301E+00
         21   -1    0    0  502  501  0.00000000000E+00  0.00000000000E+00  0.72463313632E+02  0.72463313632E+02  0.00000000000E+00 0.  1.
         21   -1    0    0  501  502 -0.00000000000E+00 -0.00000000000E+00 -0.70303368942E+03  0.70303368942E+03  0.00000000000E+00 0.  1.
      99926    2    1    2    0    0  0.00000000000E+00  0.00000000000E+00 -0.63057037579E+03  0.77549700305E+03  0.45141621916E+03 0.  0.
      99925    2    3    3    0    0  0.34352029129E+02 -0.95670974850E+02 -0.32661802365E+03  0.43145116628E+03  0.26294063621E+03 0.  0.
         25    1    4    4    0    0  0.18335775497E+02 -0.60792417351E+02 -0.10952360926E+03  0.17797428959E+03  0.12509000000E+03 0.  0.
         25    1    3    3    0    0 -0.34352029129E+02  0.95670974850E+02 -0.30395235213E+03  0.34404583677E+03  0.12509000000E+03 0.  0.
         25    1    4    4    0    0  0.16016253632E+02 -0.34878557499E+02 -0.21709441439E+03  0.25347687668E+03  0.12509000000E+03 0.  0.
<mgrwt>
<rscale>  2 0.45141622E+03</rscale>
<asrwt>0</asrwt>
<pdfrwt beam="1">  1       21 0.10656370E-01 0.45141622E+03</pdfrwt>
<pdfrwt beam="2">  1       21 0.10338731E+00 0.45141622E+03</pdfrwt>
<totfact> 0.50375088E+04</totfact>
</mgrwt>
</event>
<event>
 7    0  0.4737014E-002  0.4548727E+03  0.7546771E-02  0.1026279E+00
         21   -1    0    0  502  501  0.00000000000E+00  0.00000000000E+00  0.45106975372E+02  0.45106975372E+02  0.00000000000E+00 0.  1.
         21   -1    0    0  501  502 -0.00000000000E+00 -0.00000000000E+00 -0.11467693948E+04  0.11467693948E+04  0.00000000000E+00 0.  1.
      99926    2    1    2    0    0  0.71054273576E-14 -0.83266726847E-15 -0.11016624195E+04  0.11918763702E+04  0.45487272440E+03 0.  0.
      99925    2    3    3    0    0  0.52403581700E+02 -0.32552798674E+00 -0.95650700271E+03  0.99322128103E+03  0.26236734841E+03 0.  0.
         25    1    3    3    0    0 -0.52403581700E+02  0.32552798674E+00 -0.14515541675E+03  0.19865508918E+03  0.12509000000E+03 0.  0.
         25    1    4    4    0    0  0.19811984354E+00  0.16305581495E+02 -0.36603003775E+03  0.38715811741E+03  0.12509000000E+03 0.  0.
         25    1    4    4    0    0  0.52205461856E+02 -0.16631109482E+02 -0.59047696496E+03  0.60606316363E+03  0.12509000000E+03 0.  0.
<mgrwt>
<rscale>  2 0.45487272E+03</rscale>
<asrwt>0</asrwt>
<pdfrwt beam="1">  1       21 0.66333790E-02 0.45487272E+03</pdfrwt>
<pdfrwt beam="2">  1       21 0.16864255E+00 0.45487272E+03</pdfrwt>
<totfact> 0.32446642E+04</totfact>
</mgrwt>
</event>
<event>
 7    0  0.4737014E-002  0.4499860E+03  0.7546771E-02  0.1027726E+00
         21   -1    0    0  502  501  0.00000000000E+00  0.00000000000E+00  0.16857728516E+04  0.16857728516E+04  0.00000000000E+00 0. -1.
         21   -1    0    0  501  502 -0.00000000000E+00 -0.00000000000E+00 -0.30028874052E+02  0.30028874052E+02  0.00000000000E+00 0. -1.
      99926    2    1    2    0    0  0.00000000000E+00  0.00000000000E+00  0.16557439776E+04  0.17158017257E+04  0.44998604708E+03 0.  0.
      99925    2    3    3    0    0 -0.17061508306E+02 -0.87974857631E+02  0.12792859659E+04  0.13091091965E+04  0.26298980046E+03 0.  0.
         25    1    3    3    0    0  0.17061508306E+02  0.87974857631E+02  0.37645801163E+03  0.40669252914E+03  0.12509000000E+03 0.  0.
         25    1    4    4    0    0  0.16791507794E+02 -0.11344213994E+02  0.54327709634E+03  0.55786033864E+03  0.12509000000E+03 0.  0.
         25    1    4    4    0    0 -0.33853016101E+02 -0.76630643637E+02  0.73600886959E+03  0.75124885788E+03  0.12509000000E+03 0.  0.
<mgrwt>
<rscale>  2 0.44998605E+03</rscale>
<asrwt>0</asrwt>
<pdfrwt beam="1">  1       21 0.24790771E+00 0.44998605E+03</pdfrwt>
<pdfrwt beam="2">  1       21 0.44160120E-02 0.44998605E+03</pdfrwt>
<totfact> 0.19690202E+04</totfact>
</mgrwt>
</event>
<event>
 7    0  0.4737014E-002  0.4525300E+03  0.7546771E-02  0.1026970E+00
         21   -1    0    0  502  501  0.00000000000E+00  0.00000000000E+00  0.16833209343E+03  0.16833209343E+03  0.00000000000E+00 0.  1.
         21   -1    0    0  501  502 -0.00000000000E+00 -0.00000000000E+00 -0.30413598219E+03  0.30413598219E+03  0.00000000000E+00 0.  1.
      99926    2    1    2    0    0  0.00000000000E+00  0.00000000000E+00 -0.13580388876E+03  0.47246807562E+03  0.45252998385E+03 0.  0.
      99925    2    3    3    0    0  0.36166581792E+02 -0.10003437905E+03 -0.52952837664E+02  0.28854770319E+03  0.26294652568E+03 0.  0.
         25    1    4    4    0    0  0.35596555087E+02 -0.77351869028E+02 -0.56079914226E+02  0.16137810030E+03  0.12509000000E+03 0.  0.
         25    1    3    3    0    0 -0.36166581792E+02  0.10003437905E+03 -0.82851051096E+02  0.18392037244E+03  0.12509000000E+03 0.  0.
         25    1    4    4    0    0  0.57002670452E+00 -0.22682510017E+02  0.31270765614E+01  0.12716960289E+03  0.12509000000E+03 0.  0.
<mgrwt>
<rscale>  2 0.45252998E+03</rscale>
<asrwt>0</asrwt>
<pdfrwt beam="1">  1       21 0.24754720E-01 0.45252998E+03</pdfrwt>
<pdfrwt beam="2">  1       21 0.44725879E-01 0.45252998E+03</pdfrwt>
<totfact> 0.68587127E+04</totfact>
</mgrwt>
</event>
<event>
 7    0  0.4737014E-002  0.4611362E+03  0.7546771E-02  0.1024452E+00
         21   -1    0    0  502  501  0.00000000000E+00  0.00000000000E+00  0.10860025838E+03  0.10860025838E+03  0.00000000000E+00 0. -1.
         21   -1    0    0  501  502 -0.00000000000E+00 -0.00000000000E+00 -0.48951685068E+03  0.48951685068E+03  0.00000000000E+00 0. -1.
      99926    2    1    2    0    0  0.00000000000E+00  0.00000000000E+00 -0.38091659230E+03  0.59811710907E+03  0.46113623353E+03 0.  0.
      99925    2    3    3    0    0 -0.65682143596E+02  0.89148197423E+02 -0.18235197503E+03  0.33862344744E+03  0.26296777611E+03 0.  0.
         25    1    4    4    0    0 -0.52115066903E+02  0.17386395358E+02 -0.60843909586E+02  0.14955853829E+03  0.12509000000E+03 0.  0.
         25    1    3    3    0    0  0.65682143596E+02 -0.89148197423E+02 -0.19856461727E+03  0.25949366163E+03  0.12509000000E+03 0.  0.
         25    1    4    4    0    0 -0.13567076693E+02  0.71761802065E+02 -0.12150806544E+03  0.18906490915E+03  0.12509000000E+03 0.  0.
<mgrwt>
<rscale>  2 0.46113623E+03</rscale>
<asrwt>0</asrwt>
<pdfrwt beam="1">  1       21 0.15970626E-01 0.46113623E+03</pdfrwt>
<pdfrwt beam="2">  1       21 0.71987773E-01 0.46113623E+03</pdfrwt>
<totfact> 0.56027812E+04</totfact>
</mgrwt>
</event>
<event>
 7    0  0.4737014E-002  0.4589849E+03  0.7546771E-02  0.1025076E+00
         21   -1    0    0  502  501  0.00000000000E+00  0.00000000000E+00  0.29579422955E+03  0.29579422955E+03  0.00000000000E+00 0. -1.
         21   -1    0    0  501  502 -0.00000000000E+00 -0.00000000000E+00 -0.17805213558E+03  0.17805213558E+03  0.00000000000E+00 0. -1.
      99926    2    1    2    0    0  0.00000000000E+00  0.00000000000E+00  0.11774209396E+03  0.47384636513E+03  0.45898494208E+03 0.  0.
      99925    2    3    3    0    0 -0.61305728273E+02 -0.81845248509E+02  0.15543700786E+02  0.28266828926E+03  0.26306409504E+03 0.  0.
         25    1    4    4    0    0 -0.13970063058E+02 -0.97747414530E+01  0.30877249628E+02  0.12996776861E+03  0.12509000000E+03 0.  0.
         25    1    4    4    0    0 -0.47335665215E+02 -0.72070507056E+02 -0.15333548842E+02  0.15270052066E+03  0.12509000000E+03 0.  0.
         25    1    3    3    0    0  0.61305728273E+02  0.81845248509E+02  0.10219839318E+03  0.19117807586E+03  0.12509000000E+03 0.  0.
<mgrwt>
<rscale>  2 0.45898494E+03</rscale>
<asrwt>0</asrwt>
<pdfrwt beam="1">  1       21 0.43499152E-01 0.45898494E+03</pdfrwt>
<pdfrwt beam="2">  1       21 0.26184137E-01 0.45898494E+03</pdfrwt>
<totfact> 0.65069167E+04</totfact>
</mgrwt>
</event>
<event>
 7    0  0.4737014E-002  0.4573633E+03  0.7546771E-02  0.1025549E+00
         21   -1    0    0  502  501  0.00000000000E+00  0.00000000000E+00  0.20800066360E+03  0.20800066360E+03  0.00000000000E+00 0.  1.
         21   -1    0    0  501  502 -0.00000000000E+00 -0.00000000000E+00 -0.25141890304E+03  0.25141890304E+03  0.00000000000E+00 0.  1.
      99926    2    1    2    0    0  0.00000000000E+00 -0.71054273576E-14 -0.43418239434E+02  0.45941956664E+03  0.45736330712E+03 0.  0.
      99925    2    3    3    0    0 -0.82405875754E+02 -0.62642329406E+02 -0.78191093117E+02  0.29337303929E+03  0.26313324258E+03 0.  0.
         25    1    3    3    0    0  0.82405875754E+02  0.62642329406E+02  0.34772853683E+02  0.16604652735E+03  0.12509000000E+03 0.  0.
         25    1    4    4    0    0 -0.46853659413E+02 -0.64113266110E+02 -0.15426637283E+02  0.14896733041E+03  0.12509000000E+03 0.  0.
         25    1    4    4    0    0 -0.35552216341E+02  0.14709367048E+01 -0.62764455834E+02  0.14440570888E+03  0.12509000000E+03 0.  0.
<mgrwt>
<rscale>  2 0.45736331E+03</rscale>
<asrwt>0</asrwt>
<pdfrwt beam="1">  1       21 0.30588333E-01 0.45736331E+03</pdfrwt>
<pdfrwt beam="2">  1       21 0.36973368E-01 0.45736331E+03</pdfrwt>
<totfact> 0.66951860E+04</totfact>
</mgrwt>
</event>
<event>
 7    0  0.4737014E-002  0.4532464E+03  0.7546771E-02  0.1026758E+00
         21   -1    0    0  502  501  0.00000000000E+00  0.00000000000E+00  0.76537222570E+02  0.76537222570E+02  0.00000000000E+00 0.  1.
         21   -1    0    0  501  502 -0.00000000000E+00 -0.00000000000E+00 -0.67102089637E+03  0.67102089637E+03  0.00000000000E+00 0.  1.
      99926    2    1    2    0    0  0.00000000000E+00  0.00000000000E+00 -0.59448367380E+03  0.74755811894E+03  0.45324640404E+03 0.  0.
      99925    2    3    3    0    0  0.26597768388E+02 -0.10316869110E+03 -0.32060388393E+03  0.42816984817E+03  0.26304248399E+03 0.  0.
         25    1    4    4    0    0  0.34558601861E+02 -0.18139684984E+02 -0.12840064053E+03  0.18346001668E+03  0.12509000000E+03 0.  0.
         25    1    3    3    0    0 -0.26597768388E+02  0.10316869110E+03 -0.27387978987E+03  0.31938827077E+03  0.12509000000E+03 0.  0.
         25    1    4    4    0    0 -0.79608334727E+01 -0.85029006117E+02 -0.19220324340E+03  0.24470983148E+03  0.12509000000E+03 0.  0.
<mgrwt>
<rscale>  2 0.45324640E+03</rscale>
<asrwt>0</asrwt>
<pdfrwt beam="1">  1       21 0.11255474E-01 0.45324640E+03</pdfrwt>
<pdfrwt beam="2">  1       21 0.98679545E-01 0.45324640E+03</pdfrwt>
<totfact> 0.51096382E+04</totfact>
</mgrwt>
</event>
<event>
 7    0  0.4737014E-002  0.4529932E+03  0.7546771E-02  0.1026833E+00
         21   -1    0    0  502  501  0.00000000000E+00  0.00000000000E+00  0.61169456628E+02  0.61169456628E+02  0.00000000000E+00 0.  1.
         21   -1    0    0  501  502 -0.00000000000E+00 -0.00000000000E+00 -0.83866553911E+03  0.83866553911E+03  0.00000000000E+00 0.  1.
      99926    2    1    2    0    0  0.14210854715E-13  0.00000000000E+00 -0.77749608248E+03  0.89983499574E+03  0.45299322432E+03 0.  0.
      99925    2    3    3    0    0  0.10901559899E+03  0.17562159682E+02 -0.51858897594E+03  0.59182001527E+03  0.26291362503E+03 0.  0.
         25    1    4    4    0    0  0.24045861382E+02 -0.92046461524E+01 -0.28453508777E+03  0.31188243496E+03  0.12509000000E+03 0.  0.
         25    1    3    3    0    0 -0.10901559899E+03 -0.17562159682E+02 -0.25890710654E+03  0.30801498047E+03  0.12509000000E+03 0.  0.
         25    1    4    4    0    0  0.84969737612E+02  0.26766805834E+02 -0.23405388817E+03  0.27993758031E+03  0.12509000000E+03 0.  0.
<mgrwt>
<rscale>  2 0.45299322E+03</rscale>
<asrwt>0</asrwt>
<pdfrwt beam="1">  1       21 0.89955088E-02 0.45299322E+03</pdfrwt>
<pdfrwt beam="2">  1       21 0.12333316E+00 0.45299322E+03</pdfrwt>
<totfact> 0.43926947E+04</totfact>
</mgrwt>
</event>
<event>
 7    0  0.4737014E-002  0.4505258E+03  0.7546771E-02  0.1027565E+00
         21   -1    0    0  502  501  0.00000000000E+00  0.00000000000E+00  0.14483574412E+03  0.14483574412E+03  0.00000000000E+00 0.  1.
         21   -1    0    0  501  502 -0.00000000000E+00 -0.00000000000E+00 -0.35035119361E+03  0.35035119361E+03  0.00000000000E+00 0.  1.
      99926    2    1    2    0    0  0.00000000000E+00  0.00000000000E+00 -0.20551544950E+03  0.49518693773E+03  0.45052580760E+03 0.  0.
      99925    2    3    3    0    0  0.84434290502E+02 -0.48406559042E+02 -0.76226936211E+02  0.29064996763E+03  0.26304850030E+03 0.  0.
         25    1    4    4    0    0  0.47867281113E+02 -0.36110238415E+02  0.88695422681E+00  0.13872101754E+03  0.12509000000E+03 0.  0.
         25    1    3    3    0    0 -0.84434290502E+02  0.48406559042E+02 -0.12928851329E+03  0.20453697010E+03  0.12509000000E+03 0.  0.
         25    1    4    4    0    0  0.36567009389E+02 -0.12296320627E+02 -0.77113890438E+02  0.15192895009E+03  0.12509000000E+03 0.  0.
<mgrwt>
<rscale>  2 0.45052581E+03</rscale>
<asrwt>0</asrwt>
<pdfrwt beam="1">  1       21 0.21299374E-01 0.45052581E+03</pdfrwt>
<pdfrwt beam="2">  1       21 0.51522235E-01 0.45052581E+03</pdfrwt>
<totfact> 0.67993175E+04</totfact>
</mgrwt>
</event>
<event>
 7    0  0.4737014E-002  0.4504308E+03  0.7546771E-02  0.1027594E+00
         21   -1    0    0  502  501  0.00000000000E+00  0.00000000000E+00  0.59822300926E+02  0.59822300926E+02  0.00000000000E+00 0. -1.
         21   -1    0    0  501  502 -0.00000000000E+00 -0.00000000000E+00 -0.84787726633E+03  0.84787726633E+03  0.00000000000E+00 0. -1.
      99926    2    1    2    0    0  0.00000000000E+00  0.00000000000E+00 -0.78805496541E+03  0.90769956726E+03  0.45043076704E+03 0.  0.
      99925    2    3    3    0    0  0.71443494164E+02 -0.45162875919E+02 -0.63664449459E+03  0.69388540264E+03  0.26271064174E+03 0.  0.
         25    1    4    4    0    0  0.41198780250E+02  0.15866992645E+02 -0.33487122336E+03  0.36018793051E+03  0.12509000000E+03 0.  0.
         25    1    3    3    0    0 -0.71443494164E+02  0.45162875919E+02 -0.15141047082E+03  0.21381416462E+03  0.12509000000E+03 0.  0.
         25    1    4    4    0    0  0.30244713914E+02 -0.61029868565E+02 -0.30177327123E+03  0.33369747213E+03  0.12509000000E+03 0.  0.
<mgrwt>
<rscale>  2 0.45043077E+03</rscale>
<asrwt>0</asrwt>
<pdfrwt beam="1">  1       21 0.87973984E-02 0.45043077E+03</pdfrwt>
<pdfrwt beam="2">  1       21 0.12468782E+00 0.45043077E+03</pdfrwt>
<totfact> 0.44471527E+04</totfact>
</mgrwt>
</event>
<event>
 7    0  0.4737014E-002  0.4249424E+03  0.7546771E-02  0.1035470E+00
         21   -1    0    0  502  501  0.00000000000E+00  0.00000000000E+00  0.13610224081E+03  0.13610224081E+03  0.00000000000E+00 0. -1.
         21   -1    0    0  501  502 -0.00000000000E+00 -0.00000000000E+00 -0.33169190364E+03  0.33169190364E+03  0.00000000000E+00 0. -1.
      99926    2    1    2    0    0  0.00000000000E+00  0.00000000000E+00 -0.19558966283E+03  0.46779414445E+03  0.42494240242E+03 0.  0.
      99925    2    3    3    0    0 -0.71540755316E+02 -0.31681806202E+02 -0.15363261230E+03  0.31440014618E+03  0.26291187847E+03 0.  0.
         25    1    3    3    0    0  0.71540755316E+02  0.31681806202E+02 -0.41957050527E+02  0.15339399827E+03  0.12509000000E+03 0.  0.
         25    1    4    4    0    0 -0.93106108639E+01 -0.28014898238E+02 -0.41017531585E+02  0.13491281628E+03  0.12509000000E+03 0.  0.
         25    1    4    4    0    0 -0.62230144452E+02 -0.36669079636E+01 -0.11261508071E+03  0.17948732991E+03  0.12509000000E+03 0.  0.
<mgrwt>
<rscale>  2 0.42494240E+03</rscale>
<asrwt>0</asrwt>
<pdfrwt beam="1">  1       21 0.20015036E-01 0.42494240E+03</pdfrwt>
<pdfrwt beam="2">  1       21 0.48778220E-01 0.42494240E+03</pdfrwt>
<totfact> 0.86458674E+04</totfact>
</mgrwt>
</event>
<event>
 7    0  0.4737014E-002  0.4614736E+03  0.7546771E-02  0.1024355E+00
         21   -1    0    0  502  501  0.00000000000E+00  0.00000000000E+00  0.18066256113E+03  0.18066256113E+03  0.00000000000E+00 0. -1.
         21   -1    0    0  501  502 -0.00000000000E+00 -0.00000000000E+00 -0.29469005530E+03  0.29469005530E+03  0.00000000000E+00 0. -1.
      99926    2    1    2    0    0  0.00000000000E+00  0.00000000000E+00 -0.11402749417E+03  0.47535261643E+03  0.46147355343E+03 0.  0.
      99925    2    3    3    0    0 -0.96817654295E+02 -0.68427820050E+02 -0.58693314577E+02  0.29434045034E+03  0.26293605837E+03 0.  0.
         25    1    3    3    0    0  0.96817654295E+02  0.68427820050E+02 -0.55334179594E+02  0.18101216609E+03  0.12509000000E+03 0.  0.
         25    1    4    4    0    0 -0.82224439502E+02 -0.56568312328E+02 -0.15952114440E+02  0.16081918563E+03  0.12509000000E+03 0.  0.
         25    1    4    4    0    0 -0.14593214793E+02 -0.11859507722E+02 -0.42741200137E+02  0.13352126471E+03  0.12509000000E+03 0.  0.
<mgrwt>
<rscale>  2 0.46147355E+03</rscale>
<asrwt>0</asrwt>
<pdfrwt beam="1">  1       21 0.26568024E-01 0.46147355E+03</pdfrwt>
<pdfrwt beam="2">  1       21 0.43336772E-01 0.46147355E+03</pdfrwt>
<totfact> 0.63704662E+04</totfact>
</mgrwt>
</event>
<event>
 7    0  0.4737014E-002  0.4537746E+03  0.7546771E-02  0.1026602E+00
         21   -1    0    0  502  501  0.00000000000E+00  0.00000000000E+00  0.39047142579E+03  0.39047142579E+03  0.00000000000E+00 0.  1.
         21   -1    0    0  501  502 -0.00000000000E+00 -0.00000000000E+00 -0.13183511994E+03  0.13183511994E+03  0.00000000000E+00 0.  1.
      99926    2    1    2    0    0  0.00000000000E+00  0.00000000000E+00  0.25863630585E+03  0.52230654573E+03  0.45377460155E+03 0.  0.
      99925    2    3    3    0    0 -0.51241145352E+02 -0.26611793937E+02  0.50639180930E+02  0.27281876121E+03  0.26178599517E+03 0.  0.
         25    1    4    4    0    0  0.85610397454E+01 -0.25870991205E+02  0.38243201165E+02  0.13361380963E+03  0.12509000000E+03 0.  0.
         25    1    4    4    0    0 -0.59802185097E+02 -0.74080273180E+00  0.12395979765E+02  0.13920495158E+03  0.12509000000E+03 0.  0.
         25    1    3    3    0    0  0.51241145352E+02  0.26611793937E+02  0.20799712492E+03  0.24948778452E+03  0.12509000000E+03 0.  0.
<mgrwt>
<rscale>  2 0.45377460E+03</rscale>
<asrwt>0</asrwt>
<pdfrwt beam="1">  1       21 0.57422268E-01 0.45377460E+03</pdfrwt>
<pdfrwt beam="2">  1       21 0.19387518E-01 0.45377460E+03</pdfrwt>
<totfact> 0.64353184E+04</totfact>
</mgrwt>
</event>
<event>
 7    0  0.4737014E-002  0.4479551E+03  0.7546771E-02  0.1028334E+00
         21   -1    0    0  502  501  0.00000000000E+00  0.00000000000E+00  0.42302984184E+03  0.42302984184E+03  0.00000000000E+00 0. -1.
         21   -1    0    0  501  502 -0.00000000000E+00 -0.00000000000E+00 -0.11858722457E+03  0.11858722457E+03  0.00000000000E+00 0. -1.
      99926    2    1    2    0    0  0.00000000000E+00 -0.17763568394E-14  0.30444261727E+03  0.54161706641E+03  0.44795506406E+03 0.  0.
      99925    2    3    3    0    0  0.70811985172E+02 -0.11152478832E+02  0.28789101273E+03  0.39649581110E+03  0.26303797822E+03 0.  0.
         25    1    4    4    0    0 -0.46450808337E+01 -0.13385469883E+02  0.14681107471E+03  0.19339531364E+03  0.12509000000E+03 0.  0.
         25    1    4    4    0    0  0.75457066006E+02  0.22329910509E+01  0.14107993802E+03  0.20310049747E+03  0.12509000000E+03 0.  0.
         25    1    3    3    0    0 -0.70811985172E+02  0.11152478832E+02  0.16551604538E+02  0.14512125530E+03  0.12509000000E+03 0.  0.
<mgrwt>
<rscale>  2 0.44795506E+03</rscale>
<asrwt>0</asrwt>
<pdfrwt beam="1">  1       21 0.62210271E-01 0.44795506E+03</pdfrwt>
<pdfrwt beam="2">  1       21 0.17439298E-01 0.44795506E+03</pdfrwt>
<totfact> 0.66028714E+04</totfact>
</mgrwt>
</event>
<event>
 7    0  0.4737014E-002  0.4526102E+03  0.7546771E-02  0.1026947E+00
         21   -1    0    0  502  501  0.00000000000E+00  0.00000000000E+00  0.11961203899E+03  0.11961203899E+03  0.00000000000E+00 0. -1.
         21   -1    0    0  501  502 -0.00000000000E+00 -0.00000000000E+00 -0.42816754170E+03  0.42816754170E+03  0.00000000000E+00 0. -1.
      99926    2    1    2    0    0 -0.71054273576E-14  0.17763568394E-14 -0.30855550271E+03  0.54777958069E+03  0.45261017528E+03 0.  0.
      99925    2    3    3    0    0  0.62399177195E+02 -0.10346234250E+02 -0.30489513747E+03  0.40755972386E+03  0.26295091134E+03 0.  0.
         25    1    4    4    0    0  0.46146150649E+01 -0.24375679736E+02 -0.18302487345E+03  0.22307191853E+03  0.12509000000E+03 0.  0.
         25    1    3    3    0    0 -0.62399177195E+02  0.10346234250E+02 -0.36603652402E+01  0.14021985684E+03  0.12509000000E+03 0.  0.
         25    1    4    4    0    0  0.57784562130E+02  0.14029445486E+02 -0.12187026402E+03  0.18448780533E+03  0.12509000000E+03 0.  0.
<mgrwt>
<rscale>  2 0.45261018E+03</rscale>
<asrwt>0</asrwt>
<pdfrwt beam="1">  1       21 0.17590006E-01 0.45261018E+03</pdfrwt>
<pdfrwt beam="2">  1       21 0.62965815E-01 0.45261018E+03</pdfrwt>
<totfact> 0.63200080E+04</totfact>
</mgrwt>
</event>
<event>
 7    0  0.4737014E-002  0.4538762E+03  0.7546771E-02  0.1026572E+00
         21   -1    0    0  502  501  0.00000000000E+00  0.00000000000E+00  0.67695807213E+03  0.67695807213E+03  0.00000000000E+00 0.  1.
         21   -1    0    0  501  502 -0.00000000000E+00 -0.00000000000E+00 -0.76076947732E+02  0.76076947732E+02  0.00000000000E+00 0.  1.
      99926    2    1    2    0    0  0.14210854715E-13  0.71054273576E-14  0.60088112440E+03  0.75303501986E+03  0.45387621163E+03 0.  0.
      99925    2    3    3    0    0  0.86990596199E+02 -0.52847614880E+02  0.45645999754E+03  0.53655129251E+03  0.26300442185E+03 0.  0.
         25    1    4    4    0    0  0.29030812207E+01 -0.35546751899E+02  0.20009357073E+03  0.23865654108E+03  0.12509000000E+03 0.  0.
         25    1    4    4    0    0  0.84087514978E+02 -0.17300862981E+02  0.25636642681E+03  0.29789475143E+03  0.12509000000E+03 0.  0.
         25    1    3    3    0    0 -0.86990596199E+02  0.52847614880E+02  0.14442112685E+03  0.21648372735E+03  0.12509000000E+03 0.  0.
<mgrwt>
<rscale>  2 0.45387621E+03</rscale>
<asrwt>0</asrwt>
<pdfrwt beam="1">  1       21 0.99552655E-01 0.45387621E+03</pdfrwt>
<pdfrwt beam="2">  1       21 0.11187787E-01 0.45387621E+03</pdfrwt>
<totfact> 0.50561371E+04</totfact>
</mgrwt>
</event>
<event>
 7    0  0.4737014E-002  0.4485715E+03  0.7546771E-02  0.1028149E+00
         21   -1    0    0  502  501  0.00000000000E+00  0.00000000000E+00  0.18648962648E+03  0.18648962648E+03  0.00000000000E+00 0.  1.
         21   -1    0    0  501  502 -0.00000000000E+00 -0.00000000000E+00 -0.26974202427E+03  0.26974202427E+03  0.00000000000E+00 0.  1.
      99926    2    1    2    0    0  0.00000000000E+00  0.00000000000E+00 -0.83252397793E+02  0.45623165075E+03  0.44857146299E+03 0.  0.
      99925    2    3    3    0    0 -0.22964421521E+02  0.93771652847E+02 -0.99699620991E+02  0.29736533341E+03  0.26299361125E+03 0.  0.
         25    1    3    3    0    0  0.22964421521E+02 -0.93771652847E+02  0.16447223198E+02  0.15886631734E+03  0.12509000000E+03 0.  0.
         25    1    4    4    0    0 -0.41460451729E+02  0.20045320983E+02 -0.56240669133E+02  0.14467655275E+03  0.12509000000E+03 0.  0.
         25    1    4    4    0    0  0.18496030208E+02  0.73726331864E+02 -0.43458951858E+02  0.15268878066E+03  0.12509000000E+03 0.  0.
<mgrwt>
<rscale>  2 0.44857146E+03</rscale>
<asrwt>0</asrwt>
<pdfrwt beam="1">  1       21 0.27424945E-01 0.44857146E+03</pdfrwt>
<pdfrwt beam="2">  1       21 0.39667944E-01 0.44857146E+03</pdfrwt>
<totfact> 0.72079674E+04</totfact>
</mgrwt>
</event>
<event>
 7    0  0.4737014E-002  0.4458935E+03  0.7546771E-02  0.1028954E+00
         21   -1    0    0  502  501  0.00000000000E+00  0.00000000000E+00  0.51554535205E+03  0.51554535205E+03  0.00000000000E+00 0.  1.
         21   -1    0    0  501  502 -0.00000000000E+00 -0.00000000000E+00 -0.96412940370E+02  0.96412940370E+02  0.00000000000E+00 0.  1.
      99926    2    1    2    0    0  0.00000000000E+00  0.00000000000E+00  0.41913241168E+03  0.61195829242E+03  0.44589345492E+03 0.  0.
      99925    2    3    3    0    0 -0.66690362716E+02  0.78299506349E+02  0.29034186168E+03  0.40504543385E+03  0.26303039684E+03 0.  0.
         25    1    4    4    0    0 -0.62077086573E+02  0.22254614163E+02  0.18072493516E+03  0.22947296751E+03  0.12509000000E+03 0.  0.
         25    1    3    3    0    0  0.66690362716E+02 -0.78299506349E+02  0.12879055000E+03  0.20691285858E+03  0.12509000000E+03 0.  0.
         25    1    4    4    0    0 -0.46132761431E+01  0.56044892186E+02  0.10961692652E+03  0.17557246634E+03  0.12509000000E+03 0.  0.
<mgrwt>
<rscale>  2 0.44589345E+03</rscale>
<asrwt>0</asrwt>
<pdfrwt beam="1">  1       21 0.75815492E-01 0.44589345E+03</pdfrwt>
<pdfrwt beam="2">  1       21 0.14178374E-01 0.44589345E+03</pdfrwt>
<totfact> 0.62310295E+04</totfact>
</mgrwt>
</event>
<event>
 7    0  0.4737014E-002  0.4660134E+03  0.7546771E-02  0.1023051E+00
         21   -1    0    0  502  501  0.00000000000E+00  0.00000000000E+00  0.57979712700E+02  0.57979712700E+02  0.00000000000E+00 0. -1.
         21   -1    0    0  501  502 -0.00000000000E+00 -0.00000000000E+00 -0.93639845892E+03  0.93639845892E+03  0.00000000000E+00 0. -1.
      99926    2    1    2    0    0  0.14210854715E-13  0.88817841970E-15 -0.87841874622E+03  0.99437817162E+03  0.46601336299E+03 0.  0.
      99925    2    3    3    0    0  0.11445064687E+03 -0.39796719721E+01 -0.64443841949E+03  0.70539877832E+03  0.26300526911E+03 0.  0.
         25    1    3    3    0    0 -0.11445064687E+03  0.39796719721E+01 -0.23398032673E+03  0.28897939330E+03  0.12509000000E+03 0.  0.
         25    1    4    4    0    0  0.24464779612E+02 -0.28412828503E+02 -0.30831054688E+03  0.33482639633E+03  0.12509000000E+03 0.  0.
         25    1    4    4    0    0  0.89985867253E+02  0.24433156531E+02 -0.33612787262E+03  0.37057238199E+03  0.12509000000E+03 0.  0.
<mgrwt>
<rscale>  2 0.46601336E+03</rscale>
<asrwt>0</asrwt>
<pdfrwt beam="1">  1       21 0.85264291E-02 0.46601336E+03</pdfrwt>
<pdfrwt beam="2">  1       21 0.13770564E+00 0.46601336E+03</pdfrwt>
<totfact> 0.36172908E+04</totfact>
</mgrwt>
</event>
<event>
 7    0  0.4737014E-002  0.4466517E+03  0.7546771E-02  0.1028725E+00
         21   -1    0    0  502  501  0.00000000000E+00  0.00000000000E+00  0.26644066234E+03  0.26644066234E+03  0.00000000000E+00 0.  1.
         21   -1    0    0  501  502 -0.00000000000E+00 -0.00000000000E+00 -0.18718775484E+03  0.18718775484E+03  0.00000000000E+00 0.  1.
      99926    2    1    2    0    0  0.00000000000E+00  0.00000000000E+00  0.79252907502E+02  0.45362841718E+03  0.44665167359E+03 0.  0.
      99925    2    3    3    0    0  0.79902358734E+02 -0.58926007361E+02  0.15003031538E+02  0.28148831163E+03  0.26297132421E+03 0.  0.
         25    1    4    4    0    0  0.32845387938E+02 -0.22415092264E+02 -0.32149850384E+02  0.13513836187E+03  0.12509000000E+03 0.  0.
         25    1    4    4    0    0  0.47056970796E+02 -0.36510915097E+02  0.47152881922E+02  0.14634994976E+03  0.12509000000E+03 0.  0.
         25    1    3    3    0    0 -0.79902358734E+02  0.58926007361E+02  0.64249875963E+02  0.17214010554E+03  0.12509000000E+03 0.  0.
<mgrwt>
<rscale>  2 0.44665167E+03</rscale>
<asrwt>0</asrwt>
<pdfrwt beam="1">  1       21 0.39182451E-01 0.44665167E+03</pdfrwt>
<pdfrwt beam="2">  1       21 0.27527611E-01 0.44665167E+03</pdfrwt>
<totfact> 0.73414189E+04</totfact>
</mgrwt>
</event>
<event>
 7    0  0.4737014E-002  0.4728346E+03  0.7546771E-02  0.1021123E+00
         21   -1    0    0  502  501  0.00000000000E+00  0.00000000000E+00  0.24566894639E+03  0.24566894639E+03  0.00000000000E+00 0.  1.
         21   -1    0    0  501  502 -0.00000000000E+00 -0.00000000000E+00 -0.22751403469E+03  0.22751403469E+03  0.00000000000E+00 0.  1.
      99926    2    1    2    0    0  0.00000000000E+00  0.00000000000E+00  0.18154911694E+02  0.47318298108E+03  0.47283457231E+03 0.  0.
      99925    2    3    3    0    0  0.12053557792E+03  0.39963998884E+02 -0.12352822069E+02  0.29234001973E+03  0.26302879722E+03 0.  0.
         25    1    4    4    0    0  0.10114449944E+03  0.38409759090E+02 -0.10745651274E+02  0.16573622561E+03  0.12509000000E+03 0.  0.
         25    1    3    3    0    0 -0.12053557792E+03 -0.39963998884E+02  0.30507733763E+02  0.18084296136E+03  0.12509000000E+03 0.  0.
         25    1    4    4    0    0  0.19391078488E+02  0.15542397945E+01 -0.16071707949E+01  0.12660379411E+03  0.12509000000E+03 0.  0.
<mgrwt>
<rscale>  2 0.47283457E+03</rscale>
<asrwt>0</asrwt>
<pdfrwt beam="1">  1       21 0.36127786E-01 0.47283457E+03</pdfrwt>
<pdfrwt beam="2">  1       21 0.33457946E-01 0.47283457E+03</pdfrwt>
<totfact> 0.58461202E+04</totfact>
</mgrwt>
</event>
<event>
 7    0  0.4737014E-002  0.4542533E+03  0.7546771E-02  0.1026461E+00
         21   -1    0    0  502  501  0.00000000000E+00  0.00000000000E+00  0.19142622612E+03  0.19142622612E+03  0.00000000000E+00 0. -1.
         21   -1    0    0  501  502 -0.00000000000E+00 -0.00000000000E+00 -0.26948507338E+03  0.26948507338E+03  0.00000000000E+00 0. -1.
      99926    2    1    2    0    0  0.00000000000E+00  0.00000000000E+00 -0.78058847258E+02  0.46091129950E+03  0.45425327998E+03 0.  0.
      99925    2    3    3    0    0 -0.35957484018E+02  0.93431295196E+02  0.25993689762E+01  0.28153570605E+03  0.26312211896E+03 0.  0.
         25    1    4    4    0    0 -0.31176253179E+02  0.33093338183E+02  0.37456555795E+02  0.13826651607E+03  0.12509000000E+03 0.  0.
         25    1    3    3    0    0  0.35957484018E+02 -0.93431295196E+02 -0.80658216235E+02  0.17937559345E+03  0.12509000000E+03 0.  0.
         25    1    4    4    0    0 -0.47812308385E+01  0.60337957013E+02 -0.34857186819E+02  0.14326918998E+03  0.12509000000E+03 0.  0.
<mgrwt>
<rscale>  2 0.45425328E+03</rscale>
<asrwt>0</asrwt>
<pdfrwt beam="1">  1       21 0.28150916E-01 0.45425328E+03</pdfrwt>
<pdfrwt beam="2">  1       21 0.39630158E-01 0.45425328E+03</pdfrwt>
<totfact> 0.68520513E+04</totfact>
</mgrwt>
</event>
<event>
 7    0  0.4737014E-002  0.4541117E+03  0.7546771E-02  0.1026503E+00
         21   -1    0    0  502  501  0.00000000000E+00  0.00000000000E+00  0.28243240303E+03  0.28243240303E+03  0.00000000000E+00 0. -1.
         21   -1    0    0  501  502 -0.00000000000E+00 -0.00000000000E+00 -0.18253699284E+03  0.18253699284E+03  0.00000000000E+00 0. -1.
      99926    2    1    2    0    0  0.00000000000E+00  0.00000000000E+00  0.99895410192E+02  0.46496939588E+03  0.45411171106E+03 0.  0.
      99925    2    3    3    0    0  0.50209945402E+02  0.50861613887E+02 -0.25946130481E+02  0.27368023297E+03  0.26290630622E+03 0.  0.
         25    1    4    4    0    0  0.46374020552E+02  0.11053101681E+02  0.18273265358E+02  0.13510788713E+03  0.12509000000E+03 0.  0.
         25    1    3    3    0    0 -0.50209945402E+02 -0.50861613887E+02  0.12584154067E+03  0.19128916290E+03  0.12509000000E+03 0.  0.
         25    1    4    4    0    0  0.38359248492E+01  0.39808512205E+02 -0.44219395839E+02  0.13857234584E+03  0.12509000000E+03 0.  0.
<mgrwt>
<rscale>  2 0.45411171E+03</rscale>
<asrwt>0</asrwt>
<pdfrwt beam="1">  1       21 0.41534177E-01 0.45411171E+03</pdfrwt>
<pdfrwt beam="2">  1       21 0.26843675E-01 0.45411171E+03</pdfrwt>
<totfact> 0.68292099E+04</totfact>
</mgrwt>
</event>
<event>
 7    0  0.4737014E-002  0.5137935E+03  0.7546771E-02  0.1010240E+00
         21   -1    0    0  502  501  0.00000000000E+00  0.00000000000E+00  0.14113533905E+04  0.14113533905E+04  0.00000000000E+00 0. -1.
         21   -1    0    0  501  502 -0.00000000000E+00 -0.00000000000E+00 -0.46760751014E+02  0.46760751014E+02  0.00000000000E+00 0. -1.
      99926    2    1    2    0    0  0.28421709430E-13  0.00000000000E+00  0.13645926395E+04  0.14581141415E+04  0.51379351684E+03 0.  0.
      99925    2    3    3    0    0 -0.10327020247E+03 -0.36399380197E+02  0.48155397886E+03  0.55956284423E+03  0.26310965867E+03 0.  0.
         25    1    3    3    0    0  0.10327020247E+03  0.36399380197E+02  0.88303866062E+03  0.89855129728E+03  0.12509000000E+03 0.  0.
         25    1    4    4    0    0 -0.36018213916E+02 -0.35873637055E+02  0.30057753807E+03  0.32951266146E+03  0.12509000000E+03 0.  0.
         25    1    4    4    0    0 -0.67251988556E+02 -0.52574314238E+00  0.18097644079E+03  0.23005018277E+03  0.12509000000E+03 0.  0.
<mgrwt>
<rscale>  2 0.51379352E+03</rscale>
<asrwt>0</asrwt>
<pdfrwt beam="1">  1       21 0.20755194E+00 0.51379352E+03</pdfrwt>
<pdfrwt beam="2">  1       21 0.68765820E-02 0.51379352E+03</pdfrwt>
<totfact> 0.16111650E+04</totfact>
</mgrwt>
</event>
<event>
 7    0  0.4737014E-002  0.4556855E+03  0.7546771E-02  0.1026040E+00
         21   -1    0    0  502  501  0.00000000000E+00  0.00000000000E+00  0.10723435428E+03  0.10723435428E+03  0.00000000000E+00 0.  1.
         21   -1    0    0  501  502 -0.00000000000E+00 -0.00000000000E+00 -0.48410164940E+03  0.48410164940E+03  0.00000000000E+00 0.  1.
      99926    2    1    2    0    0  0.71054273576E-14 -0.14210854715E-13 -0.37686729511E+03  0.59133600368E+03  0.45568553973E+03 0.  0.
      99925    2    3    3    0    0  0.47537563344E+02 -0.10261534625E+03 -0.22040618846E+03  0.36129836500E+03  0.26299789243E+03 0.  0.
         25    1    4    4    0    0  0.28319409477E+02 -0.93702726361E+02 -0.11113468363E+03  0.19385720488E+03  0.12509000000E+03 0.  0.
         25    1    3    3    0    0 -0.47537563344E+02  0.10261534625E+03 -0.15646110665E+03  0.23003763868E+03  0.12509000000E+03 0.  0.
         25    1    4    4    0    0  0.19218153867E+02 -0.89126198908E+01 -0.10927150483E+03  0.16744116011E+03  0.12509000000E+03 0.  0.
<mgrwt>
<rscale>  2 0.45568554E+03</rscale>
<asrwt>0</asrwt>
<pdfrwt beam="1">  1       21 0.15769758E-01 0.45568554E+03</pdfrwt>
<pdfrwt beam="2">  1       21 0.71191417E-01 0.45568554E+03</pdfrwt>
<totfact> 0.58895010E+04</totfact>
</mgrwt>
</event>
<event>
 7    0  0.4737014E-002  0.4476831E+03  0.7546771E-02  0.1028415E+00
         21   -1    0    0  502  501  0.00000000000E+00  0.00000000000E+00  0.22329689795E+03  0.22329689795E+03  0.00000000000E+00 0.  1.
         21   -1    0    0  501  502 -0.00000000000E+00 -0.00000000000E+00 -0.22438748854E+03  0.22438748854E+03  0.00000000000E+00 0.  1.
      99926    2    1    2    0    0  0.14210854715E-13  0.35527136788E-14 -0.10905905926E+01  0.44768438650E+03  0.44768305812E+03 0.  0.
      99925    2    3    3    0    0 -0.10451429472E+03  0.94408933075E+00  0.18877165968E+02  0.28345787065E+03  0.26280770143E+03 0.  0.
         25    1    3    3    0    0  0.10451429472E+03 -0.94408933075E+00 -0.19967756560E+02  0.16422651585E+03  0.12509000000E+03 0.  0.
         25    1    4    4    0    0 -0.73661058321E+02 -0.34417569560E+02  0.77671364440E+01  0.14939329676E+03  0.12509000000E+03 0.  0.
         25    1    4    4    0    0 -0.30853236403E+02  0.35361658891E+02  0.11110029524E+02  0.13406457389E+03  0.12509000000E+03 0.  0.
<mgrwt>
<rscale>  2 0.44768306E+03</rscale>
<asrwt>0</asrwt>
<pdfrwt beam="1">  1       21 0.32837779E-01 0.44768306E+03</pdfrwt>
<pdfrwt beam="2">  1       21 0.32998160E-01 0.44768306E+03</pdfrwt>
<totfact> 0.73270186E+04</totfact>
</mgrwt>
</event>
<event>
 7    0  0.4737014E-002  0.4599453E+03  0.7546771E-02  0.1024797E+00
         21   -1    0    0  502  501  0.00000000000E+00  0.00000000000E+00  0.11179926832E+04  0.11179926832E+04  0.00000000000E+00 0.  1.
         21   -1    0    0  501  502 -0.00000000000E+00 -0.00000000000E+00 -0.47305699565E+02  0.47305699565E+02  0.00000000000E+00 0.  1.
      99926    2    1    2    0    0  0.00000000000E+00  0.00000000000E+00  0.10706869836E+04  0.11652983827E+04  0.45994532712E+03 0.  0.
      99925    2    3    3    0    0  0.11615198142E+03 -0.19454090589E+02  0.67209259345E+03  0.73125375324E+03  0.26297120190E+03 0.  0.
         25    1    4    4    0    0  0.69742437234E+02  0.21528862273E+02  0.40077463662E+03  0.42614002032E+03  0.12509000000E+03 0.  0.
         25    1    4    4    0    0  0.46409544190E+02 -0.40982952862E+02  0.27131795684E+03  0.30511373293E+03  0.12509000000E+03 0.  0.
         25    1    3    3    0    0 -0.11615198142E+03  0.19454090589E+02  0.39859439015E+03  0.43404462948E+03  0.12509000000E+03 0.  0.
<mgrwt>
<rscale>  2 0.45994533E+03</rscale>
<asrwt>0</asrwt>
<pdfrwt beam="1">  1       21 0.16441067E+00 0.45994533E+03</pdfrwt>
<pdfrwt beam="2">  1       21 0.69567213E-02 0.45994533E+03</pdfrwt>
<totfact> 0.32023680E+04</totfact>
</mgrwt>
</event>
<event>
 7    0  0.4737014E-002  0.4859414E+03  0.7546771E-02  0.1017515E+00
         21   -1    0    0  502  501  0.00000000000E+00  0.00000000000E+00  0.12025331046E+03  0.12025331046E+03  0.00000000000E+00 0.  1.
         21   -1    0    0  501  502 -0.00000000000E+00 -0.00000000000E+00 -0.49092007857E+03  0.49092007857E+03  0.00000000000E+00 0.  1.
      99926    2    1    2    0    0 -0.35527136788E-14  0.00000000000E+00 -0.37066676811E+03  0.61117338902E+03  0.48594141465E+03 0.  0.
      99925    2    3    3    0    0  0.24503098162E+02  0.12218511500E+03 -0.14646500822E+03  0.32579024064E+03  0.26297847462E+03 0.  0.
         25    1    3    3    0    0 -0.24503098162E+02 -0.12218511500E+03 -0.22420175988E+03  0.28538314838E+03  0.12509000000E+03 0.  0.
         25    1    4    4    0    0  0.43810244187E+02  0.90592025037E+02 -0.79206948144E+02  0.17901815894E+03  0.12509000000E+03 0.  0.
         25    1    4    4    0    0 -0.19307146025E+02  0.31593089960E+02 -0.67258060078E+02  0.14677208170E+03  0.12509000000E+03 0.  0.
<mgrwt>
<rscale>  2 0.48594141E+03</rscale>
<asrwt>0</asrwt>
<pdfrwt beam="1">  1       21 0.17684310E-01 0.48594141E+03</pdfrwt>
<pdfrwt beam="2">  1       21 0.72194130E-01 0.48594141E+03</pdfrwt>
<totfact> 0.45745462E+04</totfact>
</mgrwt>
</event>
<event>
 7    0  0.4737014E-002  0.4581358E+03  0.7546771E-02  0.1025323E+00
         21   -1    0    0  502  501  0.00000000000E+00  0.00000000000E+00  0.43173481235E+03  0.43173481235E+03  0.00000000000E+00 0.  1.
         21   -1    0    0  501  502 -0.00000000000E+00 -0.00000000000E+00 -0.12153779441E+03  0.12153779441E+03  0.00000000000E+00 0.  1.
      99926    2    1    2    0    0  0.00000000000E+00  0.71054273576E-14  0.31019701794E+03  0.55327260676E+03  0.45813577404E+03 0.  0.
      99925    2    3    3    0    0 -0.58618806829E+02 -0.44678696885E+02  0.30298412769E+03  0.40790450725E+03  0.26297215620E+03 0.  0.
         25    1    3    3    0    0  0.58618806829E+02  0.44678696885E+02  0.72128902563E+01  0.14536809951E+03  0.12509000000E+03 0.  0.
         25    1    4    4    0    0 -0.60498051889E+02 -0.49891098824E+02  0.17272054297E+03  0.22722022377E+03  0.12509000000E+03 0.  0.
         25    1    4    4    0    0  0.18792450594E+01  0.52124019389E+01  0.13026358471E+03  0.18068428349E+03  0.12509000000E+03 0.  0.
<mgrwt>
<rscale>  2 0.45813577E+03</rscale>
<asrwt>0</asrwt>
<pdfrwt beam="1">  1       21 0.63490413E-01 0.45813577E+03</pdfrwt>
<pdfrwt beam="2">  1       21 0.17873205E-01 0.45813577E+03</pdfrwt>
<totfact> 0.60144753E+04</totfact>
</mgrwt>
</event>
<event>
 7    0  0.4737014E-002  0.4548931E+03  0.7546771E-02  0.1026273E+00
         21   -1    0    0  502  501  0.00000000000E+00  0.00000000000E+00  0.97855418670E+02  0.97855418670E+02  0.00000000000E+00 0.  1.
         21   -1    0    0  501  502 -0.00000000000E+00 -0.00000000000E+00 -0.52865689636E+03  0.52865689636E+03  0.00000000000E+00 0.  1.
      99926    2    1    2    0    0 -0.14210854715E-13 -0.35527136788E-14 -0.43080147769E+03  0.62651231503E+03  0.45489313878E+03 0.  0.
      99925    2    3    3    0    0  0.92433712069E+02  0.23675058129E+02 -0.35465946870E+03  0.45172783879E+03  0.26300228533E+03 0.  0.
         25    1    3    3    0    0 -0.92433712069E+02 -0.23675058129E+02 -0.76142008990E+02  0.17478447625E+03  0.12509000000E+03 0.  0.
         25    1    4    4    0    0  0.79452364961E+02 -0.43739931706E+01 -0.15845449078E+03  0.21699572314E+03  0.12509000000E+03 0.  0.
         25    1    4    4    0    0  0.12981347107E+02  0.28049051300E+02 -0.19620497793E+03  0.23473211564E+03  0.12509000000E+03 0.  0.
<mgrwt>
<rscale>  2 0.45489314E+03</rscale>
<asrwt>0</asrwt>
<pdfrwt beam="1">  1       21 0.14390503E-01 0.45489314E+03</pdfrwt>
<pdfrwt beam="2">  1       21 0.77743662E-01 0.45489314E+03</pdfrwt>
<totfact> 0.57123512E+04</totfact>
</mgrwt>
</event>
<event>
 7    0  0.4737014E-002  0.4534128E+03  0.7546771E-02  0.1026709E+00
         21   -1    0    0  502  501  0.00000000000E+00  0.00000000000E+00  0.21080594621E+03  0.21080594621E+03  0.00000000000E+00 0.  1.
         21   -1    0    0  501  502 -0.00000000000E+00 -0.00000000000E+00 -0.24380615582E+03  0.24380615582E+03  0.00000000000E+00 0.  1.
      99926    2    1    2    0    0  0.00000000000E+00  0.00000000000E+00 -0.33000209611E+02  0.45461210204E+03  0.45341278046E+03 0.  0.
      99925    2    3    3    0    0 -0.12221766249E+02  0.10209949901E+03  0.22918927901E+02  0.28329912148E+03  0.26298181630E+03 0.  0.
         25    1    4    4    0    0 -0.19453464896E+02  0.60169722432E+02  0.49262212242E+02  0.14857020714E+03  0.12509000000E+03 0.  0.
         25    1    3    3    0    0  0.12221766249E+02 -0.10209949901E+03 -0.55919137512E+02  0.17131298056E+03  0.12509000000E+03 0.  0.
         25    1    4    4    0    0  0.72316986469E+01  0.41929776576E+02 -0.26343284341E+02  0.13472891434E+03  0.12509000000E+03 0.  0.
<mgrwt>
<rscale>  2 0.45341278E+03</rscale>
<asrwt>0</asrwt>
<pdfrwt beam="1">  1       21 0.31000874E-01 0.45341278E+03</pdfrwt>
<pdfrwt beam="2">  1       21 0.35853847E-01 0.45341278E+03</pdfrwt>
<totfact> 0.69449608E+04</totfact>
</mgrwt>
</event>
<event>
 7    0  0.4737014E-002  0.4487386E+03  0.7546771E-02  0.1028099E+00
         21   -1    0    0  502  501  0.00000000000E+00  0.00000000000E+00  0.31026115252E+02  0.31026115252E+02  0.00000000000E+00 0.  1.
         21   -1    0    0  501  502 -0.00000000000E+00 -0.00000000000E+00 -0.16225552430E+04  0.16225552430E+04  0.00000000000E+00 0.  1.
      99926    2    1    2    0    0  0.00000000000E+00  0.00000000000E+00 -0.15915291278E+04  0.16535813583E+04  0.44873861422E+03 0.  0.
      99925    2    3    3    0    0  0.18679004839E+02  0.41770331838E+02 -0.64992439180E+03  0.70260257158E+03  0.26297336878E+03 0.  0.
         25    1    4    4    0    0  0.11453027867E+02  0.53253436037E+02 -0.27231260528E+03  0.30457965033E+03  0.12509000000E+03 0.  0.
         25    1    3    3    0    0 -0.18679004839E+02 -0.41770331838E+02 -0.94160473597E+03  0.95097878669E+03  0.12509000000E+03 0.  0.
         25    1    4    4    0    0  0.72259769727E+01 -0.11483104199E+02 -0.37761178652E+03  0.39802292125E+03  0.12509000000E+03 0.  0.
<mgrwt>
<rscale>  2 0.44873861E+03</rscale>
<asrwt>0</asrwt>
<pdfrwt beam="1">  1       21 0.45626655E-02 0.44873861E+03</pdfrwt>
<pdfrwt beam="2">  1       21 0.23861099E+00 0.44873861E+03</pdfrwt>
<totfact> 0.21260609E+04</totfact>
</mgrwt>
</event>
<event>
 7    0  0.4737014E-002  0.4572778E+03  0.7546771E-02  0.1025574E+00
         21   -1    0    0  502  501  0.00000000000E+00  0.00000000000E+00  0.11874466663E+03  0.11874466663E+03  0.00000000000E+00 0.  1.
         21   -1    0    0  501  502 -0.00000000000E+00 -0.00000000000E+00 -0.44023649105E+03  0.44023649105E+03  0.00000000000E+00 0.  1.
      99926    2    1    2    0    0 -0.44408920985E-15  0.00000000000E+00 -0.32149182442E+03  0.55898115769E+03  0.45727775091E+03 0.  0.
      99925    2    3    3    0    0  0.18619504463E+01  0.30185944081E+02 -0.33782079783E+03  0.42925528690E+03  0.26310178981E+03 0.  0.
         25    1    4    4    0    0  0.17996600401E+02 -0.19012141030E+01 -0.11329187015E+03  0.16973522965E+03  0.12509000000E+03 0.  0.
         25    1    4    4    0    0 -0.16134649954E+02  0.32087158184E+02 -0.22452892768E+03  0.25952005725E+03  0.12509000000E+03 0.  0.
         25    1    3    3    0    0 -0.18619504463E+01 -0.30185944081E+02  0.16328973409E+02  0.12972587079E+03  0.12509000000E+03 0.  0.
<mgrwt>
<rscale>  2 0.45727775E+03</rscale>
<asrwt>0</asrwt>
<pdfrwt beam="1">  1       21 0.17462451E-01 0.45727775E+03</pdfrwt>
<pdfrwt beam="2">  1       21 0.64740661E-01 0.45727775E+03</pdfrwt>
<totfact> 0.60185176E+04</totfact>
</mgrwt>
</event>
<event>
 7    0  0.4737014E-002  0.4584902E+03  0.7546771E-02  0.1025220E+00
         21   -1    0    0  502  501  0.00000000000E+00  0.00000000000E+00  0.15494995855E+03  0.15494995855E+03  0.00000000000E+00 0. -1.
         21   -1    0    0  501  502 -0.00000000000E+00 -0.00000000000E+00 -0.33916318582E+03  0.33916318582E+03  0.00000000000E+00 0. -1.
      99926    2    1    2    0    0  0.71054273576E-14  0.00000000000E+00 -0.18421322727E+03  0.49411314437E+03  0.45849022490E+03 0.  0.
      99925    2    3    3    0    0  0.52244666242E+02  0.10325726983E+03 -0.12815249078E+03  0.31472004751E+03  0.26312369427E+03 0.  0.
         25    1    3    3    0    0 -0.52244666242E+02 -0.10325726983E+03 -0.56060736497E+02  0.17939309686E+03  0.12509000000E+03 0.  0.
         25    1    4    4    0    0  0.43481432765E+02  0.76221549211E+02 -0.36600470745E+02  0.15712244308E+03  0.12509000000E+03 0.  0.
         25    1    4    4    0    0  0.87632334767E+01  0.27035720620E+02 -0.91552020032E+02  0.15759760443E+03  0.12509000000E+03 0.  0.
<mgrwt>
<rscale>  2 0.45849022E+03</rscale>
<asrwt>0</asrwt>
<pdfrwt beam="1">  1       21 0.22786759E-01 0.45849022E+03</pdfrwt>
<pdfrwt beam="2">  1       21 0.49876938E-01 0.45849022E+03</pdfrwt>
<totfact> 0.63897351E+04</totfact>
</mgrwt>
</event>
<event>
 7    0  0.4737014E-002  0.4592129E+03  0.7546771E-02  0.1025010E+00
         21   -1    0    0  502  501  0.00000000000E+00  0.00000000000E+00  0.25726438264E+03  0.25726438264E+03  0.00000000000E+00 0.  1.
         21   -1    0    0  501  502 -0.00000000000E+00 -0.00000000000E+00 -0.20492193114E+03  0.20492193114E+03  0.00000000000E+00 0.  1.
      99926    2    1    2    0    0 -0.17763568394E-14  0.00000000000E+00  0.52342451501E+02  0.46218631379E+03  0.45921286613E+03 0.  0.
      99925    2    3    3    0    0  0.13271043133E+02 -0.11011871140E+03 -0.51000924658E+01  0.28541130101E+03  0.26292840967E+03 0.  0.
         25    1    4    4    0    0  0.32305386589E+02 -0.56722295056E+02 -0.33844693123E+02  0.14510006241E+03  0.12509000000E+03 0.  0.
         25    1    3    3    0    0 -0.13271043133E+02  0.11011871140E+03  0.57442543966E+02  0.17677501278E+03  0.12509000000E+03 0.  0.
         25    1    4    4    0    0 -0.19034343456E+02 -0.53396416342E+02  0.28744600657E+02  0.14031123859E+03  0.12509000000E+03 0.  0.
<mgrwt>
<rscale>  2 0.45921287E+03</rscale>
<asrwt>0</asrwt>
<pdfrwt beam="1">  1       21 0.37832997E-01 0.45921287E+03</pdfrwt>
<pdfrwt beam="2">  1       21 0.30135578E-01 0.45921287E+03</pdfrwt>
<totfact> 0.65783343E+04</totfact>
</mgrwt>
</event>
<event>
 7    0  0.4737014E-002  0.4578058E+03  0.7546771E-02  0.1025420E+00
         21   -1    0    0  502  501  0.00000000000E+00  0.00000000000E+00  0.45299024614E+03  0.45299024614E+03  0.00000000000E+00 0. -1.
         21   -1    0    0  501  502 -0.00000000000E+00 -0.00000000000E+00 -0.11566811986E+03  0.11566811986E+03  0.00000000000E+00 0. -1.
      99926    2    1    2    0    0  0.00000000000E+00 -0.35527136788E-14  0.33732212629E+03  0.56865836600E+03  0.45780576704E+03 0.  0.
      99925    2    3    3    0    0  0.11414922478E+03  0.19358253610E+02  0.21241978105E+03  0.35734605815E+03  0.26300048364E+03 0.  0.
         25    1    4    4    0    0  0.90085946729E+02  0.16154357743E+02  0.83401636581E+02  0.17601074443E+03  0.12509000000E+03 0.  0.
         25    1    4    4    0    0  0.24063278054E+02  0.32038958663E+01  0.12901814447E+03  0.18133531372E+03  0.12509000000E+03 0.  0.
         25    1    3    3    0    0 -0.11414922478E+03 -0.19358253610E+02  0.12490234524E+03  0.21131230785E+03  0.12509000000E+03 0.  0.
<mgrwt>
<rscale>  2 0.45780577E+03</rscale>
<asrwt>0</asrwt>
<pdfrwt beam="1">  1       21 0.66616212E-01 0.45780577E+03</pdfrwt>
<pdfrwt beam="2">  1       21 0.17010018E-01 0.45780577E+03</pdfrwt>
<totfact> 0.59322849E+04</totfact>
</mgrwt>
</event>
<event>
 7    0  0.4737014E-002  0.4548985E+03  0.7546771E-02  0.1026271E+00
         21   -1    0    0  502  501  0.00000000000E+00  0.00000000000E+00  0.24904874808E+02  0.24904874808E+02  0.00000000000E+00 0.  1.
         21   -1    0    0  501  502 -0.00000000000E+00 -0.00000000000E+00 -0.20772299625E+04  0.20772299625E+04  0.00000000000E+00 0.  1.
      99926    2    1    2    0    0 -0.14210854715E-13 -0.17763568394E-14 -0.20523250877E+04  0.21021348373E+04  0.45489845972E+03 0.  0.
      99925    2    3    3    0    0 -0.10320177369E+03 -0.10156267298E+02 -0.15065662417E+04  0.15327018018E+04  0.26206719887E+03 0.  0.
         25    1    3    3    0    0  0.10320177369E+03  0.10156267298E+02 -0.54575884594E+03  0.56943303547E+03  0.12509000000E+03 0.  0.
         25    1    4    4    0    0 -0.86629357520E+02 -0.78810292948E+01 -0.93833300548E+03  0.95062247684E+03  0.12509000000E+03 0.  0.
         25    1    4    4    0    0 -0.16572416172E+02 -0.22752380034E+01 -0.56823323627E+03  0.58207932499E+03  0.12509000000E+03 0.  0.
<mgrwt>
<rscale>  2 0.45489846E+03</rscale>
<asrwt>0</asrwt>
<pdfrwt beam="1">  1       21 0.36624816E-02 0.45489846E+03</pdfrwt>
<pdfrwt beam="2">  1       21 0.30547499E+00 0.45489846E+03</pdfrwt>
<totfact> 0.12122518E+04</totfact>
</mgrwt>
</event>
<event>
 7    0  0.4737014E-002  0.4504813E+03  0.7546771E-02  0.1027579E+00
         21   -1    0    0  502  501  0.00000000000E+00  0.00000000000E+00  0.32422114846E+03  0.32422114846E+03  0.00000000000E+00 0. -1.
         21   -1    0    0  501  502 -0.00000000000E+00 -0.00000000000E+00 -0.15647759853E+03  0.15647759853E+03  0.00000000000E+00 0. -1.
      99926    2    1    2    0    0  0.00000000000E+00  0.00000000000E+00  0.16774354994E+03  0.48069874699E+03  0.45048128353E+03 0.  0.
      99925    2    3    3    0    0  0.26404730009E+02  0.99021948964E+02  0.14527659245E+03  0.31743568190E+03  0.26297826467E+03 0.  0.
         25    1    4    4    0    0 -0.11266085087E+02  0.50686393551E+02  0.35309294459E+02  0.13996531549E+03  0.12509000000E+03 0.  0.
         25    1    3    3    0    0 -0.26404730009E+02 -0.99021948964E+02  0.22466957484E+02  0.16326306509E+03  0.12509000000E+03 0.  0.
         25    1    4    4    0    0  0.37670815096E+02  0.48335555413E+02  0.10996729799E+03  0.17747036641E+03  0.12509000000E+03 0.  0.
<mgrwt>
<rscale>  2 0.45048128E+03</rscale>
<asrwt>0</asrwt>
<pdfrwt beam="1">  1       21 0.47679581E-01 0.45048128E+03</pdfrwt>
<pdfrwt beam="2">  1       21 0.23011412E-01 0.45048128E+03</pdfrwt>
<totfact> 0.69094639E+04</totfact>
</mgrwt>
</event>
<event>
 7    0  0.4737014E-002  0.4612642E+03  0.7546771E-02  0.1024415E+00
         21   -1    0    0  502  501  0.00000000000E+00  0.00000000000E+00  0.85061270458E+02  0.85061270458E+02  0.00000000000E+00 0. -1.
         21   -1    0    0  501  502 -0.00000000000E+00 -0.00000000000E+00 -0.62532778088E+03  0.62532778088E+03  0.00000000000E+00 0. -1.
      99926    2    1    2    0    0  0.00000000000E+00  0.00000000000E+00 -0.54026651042E+03  0.71038905133E+03  0.46126424311E+03 0.  0.
      99925    2    3    3    0    0  0.81319506776E+02  0.76476945274E+02 -0.27491865256E+03  0.39651235721E+03  0.26302128917E+03 0.  0.
         25    1    3    3    0    0 -0.81319506776E+02 -0.76476945274E+02 -0.26534785786E+03  0.31387669412E+03  0.12509000000E+03 0.  0.
         25    1    4    4    0    0  0.79402243016E+02  0.49674116450E+02 -0.17132477027E+03  0.23188772940E+03  0.12509000000E+03 0.  0.
         25    1    4    4    0    0  0.19172637600E+01  0.26802828824E+02 -0.10359388229E+03  0.16462462781E+03  0.12509000000E+03 0.  0.
<mgrwt>
<rscale>  2 0.46126424E+03</rscale>
<asrwt>0</asrwt>
<pdfrwt beam="1">  1       21 0.12509011E-01 0.46126424E+03</pdfrwt>
<pdfrwt beam="2">  1       21 0.91959966E-01 0.46126424E+03</pdfrwt>
<totfact> 0.49840339E+04</totfact>
</mgrwt>
</event>
<event>
 7    0  0.4737014E-002  0.4519411E+03  0.7546771E-02  0.1027145E+00
         21   -1    0    0  502  501  0.00000000000E+00  0.00000000000E+00  0.15527602909E+03  0.15527602909E+03  0.00000000000E+00 0. -1.
         21   -1    0    0  501  502 -0.00000000000E+00 -0.00000000000E+00 -0.32885114007E+03  0.32885114007E+03  0.00000000000E+00 0. -1.
      99926    2    1    2    0    0 -0.35527136788E-14  0.14210854715E-13 -0.17357511098E+03  0.48412716917E+03  0.45194114304E+03 0.  0.
      99925    2    3    3    0    0 -0.28559838299E+02  0.10624931544E+03 -0.10058483715E+03  0.30224899684E+03  0.26293072326E+03 0.  0.
         25    1    4    4    0    0 -0.23453871873E+02  0.74577555942E+02 -0.89723366696E+02  0.17265481918E+03  0.12509000000E+03 0.  0.
         25    1    3    3    0    0  0.28559838299E+02 -0.10624931544E+03 -0.72990273826E+02  0.18187817232E+03  0.12509000000E+03 0.  0.
         25    1    4    4    0    0 -0.51059664258E+01  0.31671759494E+02 -0.10861470456E+02  0.12959417766E+03  0.12509000000E+03 0.  0.
<mgrwt>
<rscale>  2 0.45194114E+03</rscale>
<asrwt>0</asrwt>
<pdfrwt beam="1">  1       21 0.22834711E-01 0.45194114E+03</pdfrwt>
<pdfrwt beam="2">  1       21 0.48360461E-01 0.45194114E+03</pdfrwt>
<totfact> 0.68038074E+04</totfact>
</mgrwt>
</event>
<event>
 7    0  0.4737014E-002  0.4596781E+03  0.7546771E-02  0.1024875E+00
         21   -1    0    0  502  501  0.00000000000E+00  0.00000000000E+00  0.10679485192E+04  0.10679485192E+04  0.00000000000E+00 0. -1.
         21   -1    0    0  501  502 -0.00000000000E+00 -0.00000000000E+00 -0.49464914342E+02  0.49464914342E+02  0.00000000000E+00 0. -1.
      99926    2    1    2    0    0  0.00000000000E+00  0.00000000000E+00  0.10184836048E+04  0.11174134335E+04  0.45967807005E+03 0.  0.
      99925    2    3    3    0    0  0.16034502696E+02  0.10377982276E+03  0.51007099650E+03  0.58341133118E+03  0.26300000568E+03 0.  0.
         25    1    3    3    0    0 -0.16034502696E+02 -0.10377982276E+03  0.50841260832E+03  0.53400210233E+03  0.12509000000E+03 0.  0.
         25    1    4    4    0    0 -0.10588427107E+02  0.13098621630E+02  0.21683693371E+03  0.25089729492E+03  0.12509000000E+03 0.  0.
         25    1    4    4    0    0  0.26622929803E+02  0.90681201127E+02  0.29323406278E+03  0.33251403625E+03  0.12509000000E+03 0.  0.
<mgrwt>
<rscale>  2 0.45967807E+03</rscale>
<asrwt>0</asrwt>
<pdfrwt beam="1">  1       21 0.15705124E+00 0.45967807E+03</pdfrwt>
<pdfrwt beam="2">  1       21 0.72742528E-02 0.45967807E+03</pdfrwt>
<totfact> 0.33645180E+04</totfact>
</mgrwt>
</event>
<event>
 7    0  0.4737014E-002  0.4798530E+03  0.7546771E-02  0.1019176E+00
         21   -1    0    0  502  501  0.00000000000E+00  0.00000000000E+00  0.54403495919E+02  0.54403495919E+02  0.00000000000E+00 0.  1.
         21   -1    0    0  501  502 -0.00000000000E+00 -0.00000000000E+00 -0.10581070379E+04  0.10581070379E+04  0.00000000000E+00 0.  1.
      99926    2    1    2    0    0  0.71054273576E-14  0.00000000000E+00 -0.10037035420E+04  0.11125105338E+04  0.47985298547E+03 0.  0.
      99925    2    3    3    0    0  0.60690183029E+02 -0.10098677980E+03 -0.46414613285E+03  0.54624969829E+03  0.26282213039E+03 0.  0.
         25    1    4    4    0    0  0.59583824262E+02 -0.43528481688E+02 -0.28937041867E+03  0.32377107365E+03  0.12509000000E+03 0.  0.
         25    1    3    3    0    0 -0.60690183029E+02  0.10098677980E+03 -0.53955740910E+03  0.56626083551E+03  0.12509000000E+03 0.  0.
         25    1    4    4    0    0  0.11063587676E+01 -0.57458298112E+02 -0.17477571418E+03  0.22247862464E+03  0.12509000000E+03 0.  0.
<mgrwt>
<rscale>  2 0.47985299E+03</rscale>
<asrwt>0</asrwt>
<pdfrwt beam="1">  1       21 0.80005149E-02 0.47985299E+03</pdfrwt>
<pdfrwt beam="2">  1       21 0.15560396E+00 0.47985299E+03</pdfrwt>
<totfact> 0.29015187E+04</totfact>
</mgrwt>
</event>
<event>
 7    0  0.4737014E-002  0.4569640E+03  0.7546771E-02  0.1025665E+00
         21   -1    0    0  502  501  0.00000000000E+00  0.00000000000E+00  0.88348664438E+03  0.88348664438E+03  0.00000000000E+00 0. -1.
         21   -1    0    0  501  502 -0.00000000000E+00 -0.00000000000E+00 -0.59088635879E+02  0.59088635879E+02  0.00000000000E+00 0. -1.
      99926    2    1    2    0    0  0.00000000000E+00  0.00000000000E+00  0.82439800850E+03  0.94257528026E+03  0.45696398385E+03 0.  0.
      99925    2    3    3    0    0  0.56224412343E+02 -0.35780027200E+02  0.71115338956E+03  0.76115519673E+03  0.26301462911E+03 0.  0.
         25    1    4    4    0    0  0.15658677175E+01 -0.46497649025E+02  0.31948845426E+03  0.34624393686E+03  0.12509000000E+03 0.  0.
         25    1    4    4    0    0  0.54658544626E+02  0.10717621826E+02  0.39166493530E+03  0.41491125987E+03  0.12509000000E+03 0.  0.
         25    1    3    3    0    0 -0.56224412343E+02  0.35780027200E+02  0.11324461893E+03  0.18142008353E+03  0.12509000000E+03 0.  0.
<mgrwt>
<rscale>  2 0.45696398E+03</rscale>
<asrwt>0</asrwt>
<pdfrwt beam="1">  1       21 0.12992450E+00 0.45696398E+03</pdfrwt>
<pdfrwt beam="2">  1       21 0.86895058E-02 0.45696398E+03</pdfrwt>
<totfact> 0.40812456E+04</totfact>
</mgrwt>
</event>
<event>
 7    0  0.4737014E-002  0.4531836E+03  0.7546771E-02  0.1026777E+00
         21   -1    0    0  502  501  0.00000000000E+00  0.00000000000E+00  0.31285248812E+03  0.31285248812E+03  0.00000000000E+00 0. -1.
         21   -1    0    0  501  502 -0.00000000000E+00 -0.00000000000E+00 -0.16411516250E+03  0.16411516250E+03  0.00000000000E+00 0. -1.
      99926    2    1    2    0    0 -0.35527136788E-14 -0.88817841970E-15  0.14873732562E+03  0.47696765062E+03  0.45318356954E+03 0.  0.
      99925    2    3    3    0    0  0.10613512103E+02 -0.63712331939E+01  0.21039495971E+03  0.33695903948E+03  0.26291085174E+03 0.  0.
         25    1    4    4    0    0 -0.27055573114E+02  0.96840800205E+01  0.13022589095E+03  0.18284440439E+03  0.12509000000E+03 0.  0.
         25    1    3    3    0    0 -0.10613512103E+02  0.63712331939E+01 -0.61657634086E+02  0.14000861114E+03  0.12509000000E+03 0.  0.
         25    1    4    4    0    0  0.37669085217E+02 -0.16055313214E+02  0.80169068764E+02  0.15411463509E+03  0.12509000000E+03 0.  0.
<mgrwt>
<rscale>  2 0.45318357E+03</rscale>
<asrwt>0</asrwt>
<pdfrwt beam="1">  1       21 0.46007719E-01 0.45318357E+03</pdfrwt>
<pdfrwt beam="2">  1       21 0.24134583E-01 0.45318357E+03</pdfrwt>
<totfact> 0.67895061E+04</totfact>
</mgrwt>
</event>
<event>
 7    0  0.4737014E-002  0.4554854E+03  0.7546771E-02  0.1026099E+00
         21   -1    0    0  502  501  0.00000000000E+00  0.00000000000E+00  0.25474093500E+03  0.25474093500E+03  0.00000000000E+00 0. -1.
         21   -1    0    0  501  502 -0.00000000000E+00 -0.00000000000E+00 -0.20360585615E+03  0.20360585615E+03  0.00000000000E+00 0. -1.
      99926    2    1    2    0    0 -0.14210854715E-13 -0.71054273576E-14  0.51135078849E+02  0.45834679115E+03  0.45548543848E+03 0.  0.
      99925    2    3    3    0    0  0.71348229090E+02  0.56469701678E+02  0.10069083880E+03  0.29591933520E+03  0.26296427690E+03 0.  0.
         25    1    4    4    0    0  0.35007967353E+02  0.80718477342E+01  0.86420237809E+02  0.15622636816E+03  0.12509000000E+03 0.  0.
         25    1    3    3    0    0 -0.71348229090E+02 -0.56469701678E+02 -0.49555759953E+02  0.16242745595E+03  0.12509000000E+03 0.  0.
         25    1    4    4    0    0  0.36340261737E+02  0.48397853944E+02  0.14270600992E+02  0.13969296705E+03  0.12509000000E+03 0.  0.
<mgrwt>
<rscale>  2 0.45548544E+03</rscale>
<asrwt>0</asrwt>
<pdfrwt beam="1">  1       21 0.37461902E-01 0.45548544E+03</pdfrwt>
<pdfrwt beam="2">  1       21 0.29942038E-01 0.45548544E+03</pdfrwt>
<totfact> 0.68037341E+04</totfact>
</mgrwt>
</event>
<event>
 7    0  0.4737014E-002  0.4578392E+03  0.7546771E-02  0.1025410E+00
         21   -1    0    0  502  501  0.00000000000E+00  0.00000000000E+00  0.46502955685E+03  0.46502955685E+03  0.00000000000E+00 0.  1.
         21   -1    0    0  501  502 -0.00000000000E+00 -0.00000000000E+00 -0.11269000579E+03  0.11269000579E+03  0.00000000000E+00 0.  1.
      99926    2    1    2    0    0  0.00000000000E+00  0.00000000000E+00  0.35233955105E+03  0.57771956264E+03  0.45783920083E+03 0.  0.
      99925    2    3    3    0    0 -0.66476839597E+02  0.70197958027E+02  0.14070468360E+03  0.31355342413E+03  0.26300383701E+03 0.  0.
         25    1    4    4    0    0 -0.58740022669E+02  0.24831606880E+02  0.10569810955E+03  0.17574583189E+03  0.12509000000E+03 0.  0.
         25    1    3    3    0    0  0.66476839597E+02 -0.70197958027E+02  0.21163486746E+03  0.26416613851E+03  0.12509000000E+03 0.  0.
         25    1    4    4    0    0 -0.77368169277E+01  0.45366351147E+02  0.35006574051E+02  0.13780759224E+03  0.12509000000E+03 0.  0.
<mgrwt>
<rscale>  2 0.45783920E+03</rscale>
<asrwt>0</asrwt>
<pdfrwt beam="1">  1       21 0.68386699E-01 0.45783920E+03</pdfrwt>
<pdfrwt beam="2">  1       21 0.16572060E-01 0.45783920E+03</pdfrwt>
<totfact> 0.58741340E+04</totfact>
</mgrwt>
</event>
<event>
 7    0  0.4737014E-002  0.4552619E+03  0.7546771E-02  0.1026164E+00
         21   -1    0    0  502  501  0.00000000000E+00  0.00000000000E+00  0.86137492390E+03  0.86137492390E+03  0.00000000000E+00 0.  1.
         21   -1    0    0  501  502 -0.00000000000E+00 -0.00000000000E+00 -0.60154827228E+02  0.60154827228E+02  0.00000000000E+00 0.  1.
      99926    2    1    2    0    0  0.00000000000E+00  0.71054273576E-14  0.80122009667E+03  0.92152975113E+03  0.45526194537E+03 0.  0.
      99925    2    3    3    0    0  0.65459273529E+02  0.47940637464E+02  0.66441041557E+03  0.71917457290E+03  0.26303544396E+03 0.  0.
         25    1    3    3    0    0 -0.65459273529E+02 -0.47940637464E+02  0.13680968110E+03  0.20235517822E+03  0.12509000000E+03 0.  0.
         25    1    4    4    0    0  0.21945415518E+02  0.59372682428E+02  0.38559956242E+03  0.41029409856E+03  0.12509000000E+03 0.  0.
         25    1    4    4    0    0  0.43513858012E+02 -0.11432044964E+02  0.27881085315E+03  0.30888047434E+03  0.12509000000E+03 0.  0.
<mgrwt>
<rscale>  2 0.45526195E+03</rscale>
<asrwt>0</asrwt>
<pdfrwt beam="1">  1       21 0.12667277E+00 0.45526195E+03</pdfrwt>
<pdfrwt beam="2">  1       21 0.88462987E-02 0.45526195E+03</pdfrwt>
<totfact> 0.42229152E+04</totfact>
</mgrwt>
</event>
<event>
 7    0  0.4737014E-002  0.4551008E+03  0.7546771E-02  0.1026212E+00
         21   -1    0    0  502  501  0.00000000000E+00  0.00000000000E+00  0.11356441540E+03  0.11356441540E+03  0.00000000000E+00 0. -1.
         21   -1    0    0  501  502 -0.00000000000E+00 -0.00000000000E+00 -0.45594554470E+03  0.45594554470E+03  0.00000000000E+00 0. -1.
      99926    2    1    2    0    0  0.71054273576E-14  0.71054273576E-14 -0.34238112930E+03  0.56950996010E+03  0.45510082064E+03 0.  0.
      99925    2    3    3    0    0 -0.35864535925E+02  0.32305245042E+02 -0.87340985359E+02  0.28137305355E+03  0.26308259872E+03 0.  0.
         25    1    3    3    0    0  0.35864535925E+02 -0.32305245042E+02 -0.25504014394E+03  0.28813690655E+03  0.12509000000E+03 0.  0.
         25    1    4    4    0    0 -0.55091112725E+01  0.35458457835E+02 -0.79234557400E+02  0.15235903559E+03  0.12509000000E+03 0.  0.
         25    1    4    4    0    0 -0.30355424652E+02 -0.31532127928E+01 -0.81064279598E+01  0.12901401796E+03  0.12509000000E+03 0.  0.
<mgrwt>
<rscale>  2 0.45510082E+03</rscale>
<asrwt>0</asrwt>
<pdfrwt beam="1">  1       21 0.16700649E-01 0.45510082E+03</pdfrwt>
<pdfrwt beam="2">  1       21 0.67050816E-01 0.45510082E+03</pdfrwt>
<totfact> 0.60547102E+04</totfact>
</mgrwt>
</event>
<event>
 7    0  0.4737014E-002  0.4452568E+03  0.7546771E-02  0.1029146E+00
         21   -1    0    0  502  501  0.00000000000E+00  0.00000000000E+00  0.10320468501E+03  0.10320468501E+03  0.00000000000E+00 0.  1.
         21   -1    0    0  501  502 -0.00000000000E+00 -0.00000000000E+00 -0.48024365395E+03  0.48024365395E+03  0.00000000000E+00 0.  1.
      99926    2    1    2    0    0  0.00000000000E+00 -0.35527136788E-14 -0.37703896895E+03  0.58344833896E+03  0.44525675754E+03 0.  0.
      99925    2    3    3    0    0 -0.91609499779E+02  0.31347499295E+02 -0.19139788275E+03  0.33955269090E+03  0.26322597557E+03 0.  0.
         25    1    3    3    0    0  0.91609499779E+02 -0.31347499295E+02 -0.18564108619E+03  0.24389564806E+03  0.12509000000E+03 0.  0.
         25    1    4    4    0    0 -0.40530559217E+02  0.24236298782E+02 -0.14320656730E+03  0.19592282518E+03  0.12509000000E+03 0.  0.
         25    1    4    4    0    0 -0.51078940562E+02  0.71112005136E+01 -0.48191315458E+02  0.14362986572E+03  0.12509000000E+03 0.  0.
<mgrwt>
<rscale>  2 0.44525676E+03</rscale>
<asrwt>0</asrwt>
<pdfrwt beam="1">  1       21 0.15177160E-01 0.44525676E+03</pdfrwt>
<pdfrwt beam="2">  1       21 0.70624066E-01 0.44525676E+03</pdfrwt>
<totfact> 0.64537539E+04</totfact>
</mgrwt>
</event>
<event>
 7    0  0.4737014E-002  0.4612872E+03  0.7546771E-02  0.1024409E+00
         21   -1    0    0  502  501  0.00000000000E+00  0.00000000000E+00  0.68597186620E+03  0.68597186620E+03  0.00000000000E+00 0. -1.
         21   -1    0    0  501  502 -0.00000000000E+00 -0.00000000000E+00 -0.77549054864E+02  0.77549054864E+02  0.00000000000E+00 0. -1.
      99926    2    1    2    0    0  0.00000000000E+00  0.14210854715E-13  0.60842281133E+03  0.76352092106E+03  0.46128719855E+03 0.  0.
      99925    2    3    3    0    0  0.97767591251E+02 -0.65150629518E+02  0.34967362648E+03  0.45303460061E+03  0.26299353199E+03 0.  0.
         25    1    4    4    0    0  0.14162319334E+02 -0.71676249493E+01  0.16929187621E+03  0.21109048673E+03  0.12509000000E+03 0.  0.
         25    1    4    4    0    0  0.83605271917E+02 -0.57983004569E+02  0.18038175027E+03  0.24194411388E+03  0.12509000000E+03 0.  0.
         25    1    3    3    0    0 -0.97767591251E+02  0.65150629518E+02  0.25874918486E+03  0.31048632046E+03  0.12509000000E+03 0.  0.
<mgrwt>
<rscale>  2 0.46128720E+03</rscale>
<asrwt>0</asrwt>
<pdfrwt beam="1">  1       21 0.10087821E+00 0.46128720E+03</pdfrwt>
<pdfrwt beam="2">  1       21 0.11404273E-01 0.46128720E+03</pdfrwt>
<totfact> 0.47206048E+04</totfact>
</mgrwt>
</event>
<event>
 7    0  0.4737014E-002  0.4571108E+03  0.7546771E-02  0.1025622E+00
         21   -1    0    0  502  501  0.00000000000E+00  0.00000000000E+00  0.12507919042E+04  0.12507919042E+04  0.00000000000E+00 0.  1.
         21   -1    0    0  501  502 -0.00000000000E+00 -0.00000000000E+00 -0.41763604169E+02  0.41763604169E+02  0.00000000000E+00 0.  1.
      99926    2    1    2    0    0 -0.35527136788E-14  0.00000000000E+00  0.12090283001E+04  0.12925555084E+04  0.45711083114E+03 0.  0.
      99925    2    3    3    0    0  0.30983755002E+02 -0.70357467832E+02  0.10018555985E+04  0.10386299234E+04  0.26292073171E+03 0.  0.
         25    1    4    4    0    0  0.52471763991E+02 -0.41743861886E+02  0.46147273015E+03  0.48280474810E+03  0.12509000000E+03 0.  0.
         25    1    3    3    0    0 -0.30983755002E+02  0.70357467832E+02  0.20717270162E+03  0.25392558506E+03  0.12509000000E+03 0.  0.
         25    1    4    4    0    0 -0.21488008989E+02 -0.28613605946E+02  0.54038286831E+03  0.55582517525E+03  0.12509000000E+03 0.  0.
<mgrwt>
<rscale>  2 0.45711083E+03</rscale>
<asrwt>0</asrwt>
<pdfrwt beam="1">  1       21 0.18393996E+00 0.45711083E+03</pdfrwt>
<pdfrwt beam="2">  1       21 0.61417073E-02 0.45711083E+03</pdfrwt>
<totfact> 0.28855041E+04</totfact>
</mgrwt>
</event>
<event>
 7    0  0.4737014E-002  0.4568767E+03  0.7546771E-02  0.1025691E+00
         21   -1    0    0  502  501  0.00000000000E+00  0.00000000000E+00  0.22867807507E+03  0.22867807507E+03  0.00000000000E+00 0.  1.
         21   -1    0    0  501  502 -0.00000000000E+00 -0.00000000000E+00 -0.22819888145E+03  0.22819888145E+03  0.00000000000E+00 0.  1.
      99926    2    1    2    0    0  0.00000000000E+00 -0.71054273576E-14  0.47919361187E+00  0.45687695652E+03  0.45687670522E+03 0.  0.
      99925    2    3    3    0    0  0.94995190031E+02 -0.48586753391E+02  0.43157985187E+02  0.28701305192E+03  0.26292417453E+03 0.  0.
         25    1    3    3    0    0 -0.94995190031E+02  0.48586753391E+02 -0.42678791575E+02  0.16986390460E+03  0.12509000000E+03 0.  0.
         25    1    4    4    0    0  0.55094719890E+02 -0.33980833502E+02  0.61404731070E+02  0.15364951774E+03  0.12509000000E+03 0.  0.
         25    1    4    4    0    0  0.39900470141E+02 -0.14605919890E+02 -0.18246745883E+02  0.13336353418E+03  0.12509000000E+03 0.  0.
<mgrwt>
<rscale>  2 0.45687671E+03</rscale>
<asrwt>0</asrwt>
<pdfrwt beam="1">  1       21 0.33629129E-01 0.45687671E+03</pdfrwt>
<pdfrwt beam="2">  1       21 0.33558659E-01 0.45687671E+03</pdfrwt>
<totfact> 0.67393672E+04</totfact>
</mgrwt>
</event>
<event>
 7    0  0.4737014E-002  0.4545374E+03  0.7546771E-02  0.1026378E+00
         21   -1    0    0  502  501  0.00000000000E+00  0.00000000000E+00  0.66578365599E+02  0.66578365599E+02  0.00000000000E+00 0. -1.
         21   -1    0    0  501  502 -0.00000000000E+00 -0.00000000000E+00 -0.77579336672E+03  0.77579336672E+03  0.00000000000E+00 0. -1.
      99926    2    1    2    0    0 -0.14210854715E-13  0.35527136788E-14 -0.70921500112E+03  0.84237173232E+03  0.45453736656E+03 0.  0.
      99925    2    3    3    0    0  0.82970832160E+02 -0.24531353714E+02 -0.31318973174E+03  0.41814364698E+03  0.26319261984E+03 0.  0.
         25    1    4    4    0    0  0.95098301872E+01 -0.23160986402E+02 -0.18392481806E+03  0.22383635755E+03  0.12509000000E+03 0.  0.
         25    1    3    3    0    0 -0.82970832160E+02  0.24531353714E+02 -0.39602526938E+03  0.42422808534E+03  0.12509000000E+03 0.  0.
         25    1    4    4    0    0  0.73461001973E+02 -0.13703673118E+01 -0.12926491368E+03  0.19430728943E+03  0.12509000000E+03 0.  0.
<mgrwt>
<rscale>  2 0.45453737E+03</rscale>
<asrwt>0</asrwt>
<pdfrwt beam="1">  1       21 0.97909369E-02 0.45453737E+03</pdfrwt>
<pdfrwt beam="2">  1       21 0.11408725E+00 0.45453737E+03</pdfrwt>
<totfact> 0.45949113E+04</totfact>
</mgrwt>
</event>
<event>
 7    0  0.4737014E-002  0.4601312E+03  0.7546771E-02  0.1024743E+00
         21   -1    0    0  502  501  0.00000000000E+00  0.00000000000E+00  0.11220421247E+04  0.11220421247E+04  0.00000000000E+00 0. -1.
         21   -1    0    0  501  502 -0.00000000000E+00 -0.00000000000E+00 -0.47173072776E+02  0.47173072776E+02  0.00000000000E+00 0. -1.
      99926    2    1    2    0    0  0.00000000000E+00  0.00000000000E+00  0.10748690519E+04  0.11692151974E+04  0.46013117610E+03 0.  0.
      99925    2    3    3    0    0  0.61260990717E+02 -0.55395224192E+02  0.88731884973E+03  0.92912328530E+03  0.26289503294E+03 0.  0.
         25    1    4    4    0    0  0.60603652775E+02 -0.96391722728E+00  0.43291289040E+03  0.45468099877E+03  0.12509000000E+03 0.  0.
         25    1    3    3    0    0 -0.61260990717E+02  0.55395224192E+02  0.18755020216E+03  0.24009191214E+03  0.12509000000E+03 0.  0.
         25    1    4    4    0    0  0.65733794224E+00 -0.54431306964E+02  0.45440595933E+03  0.47444228653E+03  0.12509000000E+03 0.  0.
<mgrwt>
<rscale>  2 0.46013118E+03</rscale>
<asrwt>0</asrwt>
<pdfrwt beam="1">  1       21 0.16500618E+00 0.46013118E+03</pdfrwt>
<pdfrwt beam="2">  1       21 0.69372173E-02 0.46013118E+03</pdfrwt>
<totfact> 0.31854422E+04</totfact>
</mgrwt>
</event>
<event>
 7    0  0.4737014E-002  0.4596322E+03  0.7546771E-02  0.1024888E+00
         21   -1    0    0  502  501  0.00000000000E+00  0.00000000000E+00  0.33439473523E+03  0.33439473523E+03  0.00000000000E+00 0.  1.
         21   -1    0    0  501  502 -0.00000000000E+00 -0.00000000000E+00 -0.15794336121E+03  0.15794336121E+03  0.00000000000E+00 0.  1.
      99926    2    1    2    0    0  0.00000000000E+00  0.00000000000E+00  0.17645137402E+03  0.49233809644E+03  0.45963215055E+03 0.  0.
      99925    2    3    3    0    0  0.82860204575E+02 -0.55285233541E+02  0.43519343334E+02  0.28439410535E+03  0.26279993029E+03 0.  0.
         25    1    4    4    0    0  0.37348247688E+02 -0.32877125826E+02 -0.18418978919E+02  0.13587701753E+03  0.12509000000E+03 0.  0.
         25    1    3    3    0    0 -0.82860204575E+02  0.55285233541E+02  0.13293203069E+03  0.20794399110E+03  0.12509000000E+03 0.  0.
         25    1    4    4    0    0  0.45511956887E+02 -0.22408107714E+02  0.61938322252E+02  0.14851708782E+03  0.12509000000E+03 0.  0.
<mgrwt>
<rscale>  2 0.45963215E+03</rscale>
<asrwt>0</asrwt>
<pdfrwt beam="1">  1       21 0.49175696E-01 0.45963215E+03</pdfrwt>
<pdfrwt beam="2">  1       21 0.23226965E-01 0.45963215E+03</pdfrwt>
<totfact> 0.63446922E+04</totfact>
</mgrwt>
</event>
<event>
 7    0  0.4737014E-002  0.4528491E+03  0.7546771E-02  0.1026876E+00
         21   -1    0    0  502  501  0.00000000000E+00  0.00000000000E+00  0.65024570141E+02  0.65024570141E+02  0.00000000000E+00 0.  1.
         21   -1    0    0  501  502 -0.00000000000E+00 -0.00000000000E+00 -0.78844149236E+03  0.78844149236E+03  0.00000000000E+00 0.  1.
      99926    2    1    2    0    0 -0.35527136788E-14  0.00000000000E+00 -0.72341692222E+03  0.85346606250E+03  0.45284906590E+03 0.  0.
      99925    2    3    3    0    0 -0.22489238189E+02  0.54592919172E+02 -0.27894111519E+03  0.38796374909E+03  0.26309992817E+03 0.  0.
         25    1    4    4    0    0 -0.51860902986E+02  0.27958922682E+02 -0.14957476923E+03  0.20369431584E+03  0.12509000000E+03 0.  0.
         25    1    4    4    0    0  0.29371664797E+02  0.26633996490E+02 -0.12936634595E+03  0.18426943324E+03  0.12509000000E+03 0.  0.
         25    1    3    3    0    0  0.22489238189E+02 -0.54592919172E+02 -0.44447580703E+03  0.46550231342E+03  0.12509000000E+03 0.  0.
<mgrwt>
<rscale>  2 0.45284907E+03</rscale>
<asrwt>0</asrwt>
<pdfrwt beam="1">  1       21 0.95624365E-02 0.45284907E+03</pdfrwt>
<pdfrwt beam="2">  1       21 0.11594728E+00 0.45284907E+03</pdfrwt>
<totfact> 0.46056900E+04</totfact>
</mgrwt>
</event>
<event>
 7    0  0.4737014E-002  0.4359893E+03  0.7546771E-02  0.1031985E+00
         21   -1    0    0  502  501  0.00000000000E+00  0.00000000000E+00  0.14948689758E+03  0.14948689758E+03  0.00000000000E+00 0.  1.
         21   -1    0    0  501  502 -0.00000000000E+00 -0.00000000000E+00 -0.31789858299E+03  0.31789858299E+03  0.00000000000E+00 0.  1.
      99926    2    1    2    0    0  0.14210854715E-13  0.00000000000E+00 -0.16841168541E+03  0.46738548058E+03  0.43598932518E+03 0.  0.
      99925    2    3    3    0    0 -0.86669931251E+02  0.24218263202E+02 -0.13813758988E+03  0.31034335178E+03  0.26293117161E+03 0.  0.
         25    1    4    4    0    0 -0.49059060216E+02  0.36934386451E+02 -0.35678273546E+02  0.14384501241E+03  0.12509000000E+03 0.  0.
         25    1    3    3    0    0  0.86669931251E+02 -0.24218263202E+02 -0.30274095527E+02  0.15704212879E+03  0.12509000000E+03 0.  0.
         25    1    4    4    0    0 -0.37610871035E+02 -0.12716123250E+02 -0.10245931634E+03  0.16649833937E+03  0.12509000000E+03 0.  0.
<mgrwt>
<rscale>  2 0.43598933E+03</rscale>
<asrwt>0</asrwt>
<pdfrwt beam="1">  1       21 0.21983368E-01 0.43598933E+03</pdfrwt>
<pdfrwt beam="2">  1       21 0.46749791E-01 0.43598933E+03</pdfrwt>
<totfact> 0.78876441E+04</totfact>
</mgrwt>
</event>
<event>
 7    0  0.4737014E-002  0.4423141E+03  0.7546771E-02  0.1030039E+00
         21   -1    0    0  502  501  0.00000000000E+00  0.00000000000E+00  0.22322168784E+03  0.22322168784E+03  0.00000000000E+00 0.  1.
         21   -1    0    0  501  502 -0.00000000000E+00 -0.00000000000E+00 -0.21911153065E+03  0.21911153065E+03  0.00000000000E+00 0.  1.
      99926    2    1    2    0    0  0.71054273576E-14  0.88817841970E-15  0.41101571930E+01  0.44233321849E+03  0.44231412230E+03 0.  0.
      99925    2    3    3    0    0 -0.48810469022E+02  0.68292814595E+01 -0.85231430113E+02  0.28090667701E+03  0.26308755869E+03 0.  0.
         25    1    3    3    0    0  0.48810469022E+02 -0.68292814595E+01  0.89341587306E+02  0.16142654148E+03  0.12509000000E+03 0.  0.
         25    1    4    4    0    0 -0.62284071025E+02  0.19104891054E+02 -0.39323222569E+02  0.14641764340E+03  0.12509000000E+03 0.  0.
         25    1    4    4    0    0  0.13473602004E+02 -0.12275609595E+02 -0.45908207544E+02  0.13448903361E+03  0.12509000000E+03 0.  0.
<mgrwt>
<rscale>  2 0.44231412E+03</rscale>
<asrwt>0</asrwt>
<pdfrwt beam="1">  1       21 0.32826719E-01 0.44231412E+03</pdfrwt>
<pdfrwt beam="2">  1       21 0.32222284E-01 0.44231412E+03</pdfrwt>
<totfact> 0.76986304E+04</totfact>
</mgrwt>
</event>
<event>
 7    0  0.4737014E-002  0.4195065E+03  0.7546771E-02  0.1037227E+00
         21   -1    0    0  502  501  0.00000000000E+00  0.00000000000E+00  0.30235268821E+03  0.30235268821E+03  0.00000000000E+00 0. -1.
         21   -1    0    0  501  502 -0.00000000000E+00 -0.00000000000E+00 -0.14551360848E+03  0.14551360848E+03  0.00000000000E+00 0. -1.
      99926    2    1    2    0    0 -0.16375789613E-14  0.14210854715E-13  0.15683907973E+03  0.44786629669E+03  0.41950652293E+03 0.  0.
      99925    2    3    3    0    0  0.17252090096E+00  0.74924667162E+02  0.11041516047E+03  0.29484203753E+03  0.26291934870E+03 0.  0.
         25    1    3    3    0    0 -0.17252090096E+00 -0.74924667162E+02  0.46423919261E+02  0.15302425916E+03  0.12509000000E+03 0.  0.
         25    1    4    4    0    0  0.21461151770E+02  0.30013760907E+01  0.41834971484E+02  0.13366847883E+03  0.12509000000E+03 0.  0.
         25    1    4    4    0    0 -0.21288630869E+02  0.71923291071E+02  0.68580188982E+02  0.16117355870E+03  0.12509000000E+03 0.  0.
<mgrwt>
<rscale>  2 0.41950652E+03</rscale>
<asrwt>0</asrwt>
<pdfrwt beam="1">  1       21 0.44463631E-01 0.41950652E+03</pdfrwt>
<pdfrwt beam="2">  1       21 0.21399060E-01 0.41950652E+03</pdfrwt>
<totfact> 0.92567262E+04</totfact>
</mgrwt>
</event>
<event>
 7    0  0.4737014E-002  0.4530165E+03  0.7546771E-02  0.1026826E+00
         21   -1    0    0  502  501  0.00000000000E+00  0.00000000000E+00  0.90916441982E+03  0.90916441982E+03  0.00000000000E+00 0.  1.
         21   -1    0    0  501  502 -0.00000000000E+00 -0.00000000000E+00 -0.56432018242E+02  0.56432018242E+02  0.00000000000E+00 0.  1.
      99926    2    1    2    0    0 -0.14210854715E-13 -0.35527136788E-14  0.85273240158E+03  0.96559643806E+03  0.45301648149E+03 0.  0.
      99925    2    3    3    0    0  0.10918048020E+03  0.17308532749E+02  0.50767704836E+03  0.58228107515E+03  0.26285985330E+03 0.  0.
         25    1    4    4    0    0  0.18945232449E+02 -0.15083712332E+02  0.21786191449E+03  0.25238415580E+03  0.12509000000E+03 0.  0.
         25    1    3    3    0    0 -0.10918048020E+03 -0.17308532749E+02  0.34505535322E+03  0.38331536291E+03  0.12509000000E+03 0.  0.
         25    1    4    4    0    0  0.90235247754E+02  0.32392245082E+02  0.28981513387E+03  0.32989691935E+03  0.12509000000E+03 0.  0.
<mgrwt>
<rscale>  2 0.45301648E+03</rscale>
<asrwt>0</asrwt>
<pdfrwt beam="1">  1       21 0.13370064E+00 0.45301648E+03</pdfrwt>
<pdfrwt beam="2">  1       21 0.82988268E-02 0.45301648E+03</pdfrwt>
<totfact> 0.41150115E+04</totfact>
</mgrwt>
</event>
<event>
 7    0  0.4737014E-002  0.4430904E+03  0.7546771E-02  0.1029803E+00
         21   -1    0    0  502  501  0.00000000000E+00  0.00000000000E+00  0.11935941345E+03  0.11935941345E+03  0.00000000000E+00 0.  1.
         21   -1    0    0  501  502 -0.00000000000E+00 -0.00000000000E+00 -0.41121407117E+03  0.41121407117E+03  0.00000000000E+00 0.  1.
      99926    2    1    2    0    0 -0.22204460493E-15  0.71054273576E-14 -0.29185465772E+03  0.53057348462E+03  0.44309037606E+03 0.  0.
      99925    2    3    3    0    0  0.40150546392E+00 -0.52197632123E+02 -0.81382585050E+02  0.28023220661E+03  0.26302511375E+03 0.  0.
         25    1    4    4    0    0  0.13934695371E+02  0.97409334020E+01 -0.22963338591E+02  0.12831166953E+03  0.12509000000E+03 0.  0.
         25    1    4    4    0    0 -0.13533189907E+02 -0.61938565525E+02 -0.58419246459E+02  0.15192053708E+03  0.12509000000E+03 0.  0.
         25    1    3    3    0    0 -0.40150546392E+00  0.52197632123E+02 -0.21047207267E+03  0.25034127802E+03  0.12509000000E+03 0.  0.
<mgrwt>
<rscale>  2 0.44309038E+03</rscale>
<asrwt>0</asrwt>
<pdfrwt beam="1">  1       21 0.17552855E-01 0.44309038E+03</pdfrwt>
<pdfrwt beam="2">  1       21 0.60472658E-01 0.44309038E+03</pdfrwt>
<totfact> 0.69491906E+04</totfact>
</mgrwt>
</event>
<event>
 7    0  0.4737014E-002  0.4359649E+03  0.7546771E-02  0.1031992E+00
         21   -1    0    0  502  501  0.00000000000E+00  0.00000000000E+00  0.82490241743E+03  0.82490241743E+03  0.00000000000E+00 0. -1.
         21   -1    0    0  501  502 -0.00000000000E+00 -0.00000000000E+00 -0.57602377038E+02  0.57602377038E+02  0.00000000000E+00 0. -1.
      99926    2    1    2    0    0  0.00000000000E+00  0.00000000000E+00  0.76730004039E+03  0.88250479447E+03  0.43596486128E+03 0.  0.
      99925    2    3    3    0    0 -0.42784238379E+02  0.66229268728E+02  0.59580509574E+03  0.65606532964E+03  0.26309921619E+03 0.  0.
         25    1    4    4    0    0 -0.14049513188E+02  0.66630095062E+00  0.33847013192E+03  0.36111960772E+03  0.12509000000E+03 0.  0.
         25    1    4    4    0    0 -0.28734725191E+02  0.65562967777E+02  0.25733496382E+03  0.29494572192E+03  0.12509000000E+03 0.  0.
         25    1    3    3    0    0  0.42784238379E+02 -0.66229268728E+02  0.17149494465E+03  0.22643946482E+03  0.12509000000E+03 0.  0.
<mgrwt>
<rscale>  2 0.43596486E+03</rscale>
<asrwt>0</asrwt>
<pdfrwt beam="1">  1       21 0.12130917E+00 0.43596486E+03</pdfrwt>
<pdfrwt beam="2">  1       21 0.84709383E-02 0.43596486E+03</pdfrwt>
<totfact> 0.51215133E+04</totfact>
</mgrwt>
</event>
<event>
 7    0  0.4737014E-002  0.4535076E+03  0.7546771E-02  0.1026681E+00
         21   -1    0    0  502  501  0.00000000000E+00  0.00000000000E+00  0.21702915608E+02  0.21702915608E+02  0.00000000000E+00 0. -1.
         21   -1    0    0  501  502 -0.00000000000E+00 -0.00000000000E+00 -0.23691419716E+04  0.23691419716E+04  0.00000000000E+00 0. -1.
      99926    2    1    2    0    0 -0.14210854715E-13  0.00000000000E+00 -0.23474390560E+04  0.23908448872E+04  0.45350761084E+03 0.  0.
      99925    2    3    3    0    0  0.68283490401E+02 -0.18747839398E+02 -0.19349874902E+04  0.19540635703E+04  0.26300899822E+03 0.  0.
         25    1    4    4    0    0  0.56215407359E+02 -0.42411711633E+02 -0.94174910822E+03  0.95262679798E+03  0.12509000000E+03 0.  0.
         25    1    3    3    0    0 -0.68283490401E+02  0.18747839398E+02 -0.41245156579E+03  0.43678131687E+03  0.12509000000E+03 0.  0.
         25    1    4    4    0    0  0.12068083042E+02  0.23663872235E+02 -0.99323838199E+03  0.10014367724E+04  0.12509000000E+03 0.  0.
<mgrwt>
<rscale>  2 0.45350761E+03</rscale>
<asrwt>0</asrwt>
<pdfrwt beam="1">  1       21 0.31916082E-02 0.45350761E+03</pdfrwt>
<pdfrwt beam="2">  1       21 0.34840291E+00 0.45350761E+03</pdfrwt>
<totfact> 0.84111560E+03</totfact>
</mgrwt>
</event>
<event>
 7    0  0.4737014E-002  0.4501413E+03  0.7546771E-02  0.1027680E+00
         21   -1    0    0  502  501  0.00000000000E+00  0.00000000000E+00  0.21836002066E+02  0.21836002066E+02  0.00000000000E+00 0. -1.
         21   -1    0    0  501  502 -0.00000000000E+00 -0.00000000000E+00 -0.23198750831E+04  0.23198750831E+04  0.00000000000E+00 0. -1.
      99926    2    1    2    0    0  0.00000000000E+00  0.17763568394E-14 -0.22980390810E+04  0.23417110852E+04  0.45014129829E+03 0.  0.
      99925    2    3    3    0    0  0.10154616256E+03  0.88120646557E+01 -0.16462392654E+04  0.16702352603E+04  0.26304530066E+03 0.  0.
         25    1    4    4    0    0  0.70486436775E+02  0.35686537796E+02 -0.75965775985E+03  0.77393106085E+03  0.12509000000E+03 0.  0.
         25    1    4    4    0    0  0.31059725781E+02 -0.26874473141E+02 -0.88658150560E+03  0.89630419950E+03  0.12509000000E+03 0.  0.
         25    1    3    3    0    0 -0.10154616256E+03 -0.88120646557E+01 -0.65179981557E+03  0.67147582480E+03  0.12509000000E+03 0.  0.
<mgrwt>
<rscale>  2 0.45014130E+03</rscale>
<asrwt>0</asrwt>
<pdfrwt beam="1">  1       21 0.32111800E-02 0.45014130E+03</pdfrwt>
<pdfrwt beam="2">  1       21 0.34115776E+00 0.45014130E+03</pdfrwt>
<totfact> 0.92338680E+03</totfact>
</mgrwt>
</event>
<event>
 7    0  0.4737014E-002  0.4535268E+03  0.7546771E-02  0.1026676E+00
         21   -1    0    0  502  501  0.00000000000E+00  0.00000000000E+00  0.40434778059E+03  0.40434778059E+03  0.00000000000E+00 0.  1.
         21   -1    0    0  501  502 -0.00000000000E+00 -0.00000000000E+00 -0.12717181770E+03  0.12717181770E+03  0.00000000000E+00 0.  1.
      99926    2    1    2    0    0  0.00000000000E+00  0.00000000000E+00  0.27717596290E+03  0.53151959829E+03  0.45352681173E+03 0.  0.
      99925    2    3    3    0    0  0.41529805865E+02 -0.90169697104E+02  0.11437026752E+03  0.30346587305E+03  0.26297467361E+03 0.  0.
         25    1    3    3    0    0 -0.41529805865E+02  0.90169697104E+02  0.16280569538E+03  0.22805372525E+03  0.12509000000E+03 0.  0.
         25    1    4    4    0    0 -0.13711009442E+01 -0.91492334542E+01  0.60761409538E+02  0.13937376145E+03  0.12509000000E+03 0.  0.
         25    1    4    4    0    0  0.42900906809E+02 -0.81020463649E+02  0.53608857982E+02  0.16409211160E+03  0.12509000000E+03 0.  0.
<mgrwt>
<rscale>  2 0.45352681E+03</rscale>
<asrwt>0</asrwt>
<pdfrwt beam="1">  1       21 0.59462909E-01 0.45352681E+03</pdfrwt>
<pdfrwt beam="2">  1       21 0.18701738E-01 0.45352681E+03</pdfrwt>
<totfact> 0.63845742E+04</totfact>
</mgrwt>
</event>
<event>
 7    0  0.4737014E-002  0.4514522E+03  0.7546771E-02  0.1027290E+00
         21   -1    0    0  502  501  0.00000000000E+00  0.00000000000E+00  0.95395070398E+03  0.95395070398E+03  0.00000000000E+00 0.  1.
         21   -1    0    0  501  502 -0.00000000000E+00 -0.00000000000E+00 -0.53411850715E+02  0.53411850715E+02  0.00000000000E+00 0.  1.
      99926    2    1    2    0    0  0.88817841970E-15 -0.26645352591E-14  0.90053885326E+03  0.10073625547E+04  0.45145220163E+03 0.  0.
      99925    2    3    3    0    0 -0.46328209607E+01  0.76495471203E+01  0.32428854611E+03  0.41762371148E+03  0.26299529397E+03 0.  0.
         25    1    4    4    0    0 -0.11582653163E+02 -0.34239704244E+02  0.14431820432E+03  0.19437532610E+03  0.12509000000E+03 0.  0.
         25    1    4    4    0    0  0.69498322019E+01  0.41889251364E+02  0.17997034180E+03  0.22324838538E+03  0.12509000000E+03 0.  0.
         25    1    3    3    0    0  0.46328209607E+01 -0.76495471203E+01  0.57625030715E+03  0.58973884321E+03  0.12509000000E+03 0.  0.
<mgrwt>
<rscale>  2 0.45145220E+03</rscale>
<asrwt>0</asrwt>
<pdfrwt beam="1">  1       21 0.14028686E+00 0.45145220E+03</pdfrwt>
<pdfrwt beam="2">  1       21 0.78546845E-02 0.45145220E+03</pdfrwt>
<totfact> 0.39977777E+04</totfact>
</mgrwt>
</event>
<event>
 7    0  0.4737014E-002  0.4537132E+03  0.7546771E-02  0.1026620E+00
         21   -1    0    0  502  501  0.00000000000E+00  0.00000000000E+00  0.66316301045E+02  0.66316301045E+02  0.00000000000E+00 0. -1.
         21   -1    0    0  501  502 -0.00000000000E+00 -0.00000000000E+00 -0.77603728726E+03  0.77603728726E+03  0.00000000000E+00 0. -1.
      99926    2    1    2    0    0  0.14210854715E-13 -0.35527136788E-14 -0.70972098621E+03  0.84235358830E+03  0.45371322381E+03 0.  0.
      99925    2    3    3    0    0 -0.69753161299E+02 -0.19032814448E+02 -0.60576773732E+03  0.66436050531E+03  0.26304482109E+03 0.  0.
         25    1    4    4    0    0 -0.19222694604E+02  0.13518807502E+02 -0.21710638501E+03  0.25166438099E+03  0.12509000000E+03 0.  0.
         25    1    4    4    0    0 -0.50530466695E+02 -0.32551621950E+02 -0.38866135231E+03  0.41269612433E+03  0.12509000000E+03 0.  0.
         25    1    3    3    0    0  0.69753161299E+02  0.19032814448E+02 -0.10395324889E+03  0.17799308299E+03  0.12509000000E+03 0.  0.
<mgrwt>
<rscale>  2 0.45371322E+03</rscale>
<asrwt>0</asrwt>
<pdfrwt beam="1">  1       21 0.97523971E-02 0.45371322E+03</pdfrwt>
<pdfrwt beam="2">  1       21 0.11412313E+00 0.45371322E+03</pdfrwt>
<totfact> 0.46248501E+04</totfact>
</mgrwt>
</event>
<event>
 7    0  0.4737014E-002  0.4530511E+03  0.7546771E-02  0.1026816E+00
         21   -1    0    0  502  501  0.00000000000E+00  0.00000000000E+00  0.10852159684E+03  0.10852159684E+03  0.00000000000E+00 0. -1.
         21   -1    0    0  501  502 -0.00000000000E+00 -0.00000000000E+00 -0.47284431124E+03  0.47284431124E+03  0.00000000000E+00 0. -1.
      99926    2    1    2    0    0  0.00000000000E+00  0.71054273576E-14 -0.36432271440E+03  0.58136590808E+03  0.45305107753E+03 0.  0.
      99925    2    3    3    0    0  0.76718188258E+02  0.61600920124E+02 -0.16257713514E+03  0.32440454791E+03  0.26291944025E+03 0.  0.
         25    1    4    4    0    0  0.51481073253E+02  0.70891235537E+02 -0.91736898480E+02  0.17815452512E+03  0.12509000000E+03 0.  0.
         25    1    3    3    0    0 -0.76718188258E+02 -0.61600920124E+02 -0.20174557927E+03  0.25696136018E+03  0.12509000000E+03 0.  0.
         25    1    4    4    0    0  0.25237115004E+02 -0.92903154128E+01 -0.70840236658E+02  0.14625002278E+03  0.12509000000E+03 0.  0.
<mgrwt>
<rscale>  2 0.45305108E+03</rscale>
<asrwt>0</asrwt>
<pdfrwt beam="1">  1       21 0.15959058E-01 0.45305108E+03</pdfrwt>
<pdfrwt beam="2">  1       21 0.69535928E-01 0.45305108E+03</pdfrwt>
<totfact> 0.60771055E+04</totfact>
</mgrwt>
</event>
<event>
 7    0  0.4737014E-002  0.4535411E+03  0.7546771E-02  0.1026671E+00
         21   -1    0    0  502  501  0.00000000000E+00  0.00000000000E+00  0.12019982161E+03  0.12019982161E+03  0.00000000000E+00 0.  1.
         21   -1    0    0  501  502 -0.00000000000E+00 -0.00000000000E+00 -0.42782833078E+03  0.42782833078E+03  0.00000000000E+00 0.  1.
      99926    2    1    2    0    0  0.00000000000E+00 -0.35527136788E-14 -0.30762850917E+03  0.54802815239E+03  0.45354112951E+03 0.  0.
      99925    2    3    3    0    0  0.34029490082E+02  0.17084826322E+02 -0.32078206596E+03  0.41661117616E+03  0.26308523480E+03 0.  0.
         25    1    4    4    0    0 -0.85721605733E+01 -0.17724723907E+02 -0.12567604111E+03  0.17840858495E+03  0.12509000000E+03 0.  0.
         25    1    4    4    0    0  0.42601650656E+02  0.34809550230E+02 -0.19510602485E+03  0.23820259121E+03  0.12509000000E+03 0.  0.
         25    1    3    3    0    0 -0.34029490082E+02 -0.17084826322E+02  0.13153556794E+02  0.13141697623E+03  0.12509000000E+03 0.  0.
<mgrwt>
<rscale>  2 0.45354113E+03</rscale>
<asrwt>0</asrwt>
<pdfrwt beam="1">  1       21 0.17676444E-01 0.45354113E+03</pdfrwt>
<pdfrwt beam="2">  1       21 0.62915931E-01 0.45354113E+03</pdfrwt>
<totfact> 0.62717823E+04</totfact>
</mgrwt>
</event>
<event>
 7    0  0.4737014E-002  0.4513786E+03  0.7546771E-02  0.1027312E+00
         21   -1    0    0  502  501  0.00000000000E+00  0.00000000000E+00  0.95416396285E+02  0.95416396285E+02  0.00000000000E+00 0. -1.
         21   -1    0    0  501  502 -0.00000000000E+00 -0.00000000000E+00 -0.53382509764E+03  0.53382509764E+03  0.00000000000E+00 0. -1.
      99926    2    1    2    0    0  0.00000000000E+00  0.00000000000E+00 -0.43840870136E+03  0.62924149393E+03  0.45137863070E+03 0.  0.
      99925    2    3    3    0    0  0.40935838113E+02 -0.10170859808E+03 -0.27370741646E+03  0.39515945038E+03  0.26308717117E+03 0.  0.
         25    1    3    3    0    0 -0.40935838113E+02  0.10170859808E+03 -0.16470128490E+03  0.23408204355E+03  0.12509000000E+03 0.  0.
         25    1    4    4    0    0  0.58359055321E+02 -0.67019349616E+02 -0.16038957934E+03  0.22196778555E+03  0.12509000000E+03 0.  0.
         25    1    4    4    0    0 -0.17423217209E+02 -0.34689248462E+02 -0.11331783712E+03  0.17319166483E+03  0.12509000000E+03 0.  0.
<mgrwt>
<rscale>  2 0.45137863E+03</rscale>
<asrwt>0</asrwt>
<pdfrwt beam="1">  1       21 0.14031823E-01 0.45137863E+03</pdfrwt>
<pdfrwt beam="2">  1       21 0.78503690E-01 0.45137863E+03</pdfrwt>
<totfact> 0.58570012E+04</totfact>
</mgrwt>
</event>
<event>
 7    0  0.4737014E-002  0.4524325E+03  0.7546771E-02  0.1026999E+00
         21   -1    0    0  502  501  0.00000000000E+00  0.00000000000E+00  0.30432073275E+03  0.30432073275E+03  0.00000000000E+00 0.  1.
         21   -1    0    0  501  502 -0.00000000000E+00 -0.00000000000E+00 -0.16815741292E+03  0.16815741292E+03  0.00000000000E+00 0.  1.
      99926    2    1    2    0    0  0.00000000000E+00  0.14210854715E-13  0.13616331983E+03  0.47247814567E+03  0.45243247946E+03 0.  0.
      99925    2    3    3    0    0 -0.63370523371E+02  0.73366954201E+02  0.29941557918E+02  0.28187619394E+03  0.26298128948E+03 0.  0.
         25    1    4    4    0    0 -0.30168618417E+02 -0.58269504848E+00  0.32792042777E+02  0.13279047873E+03  0.12509000000E+03 0.  0.
         25    1    4    4    0    0 -0.33201904954E+02  0.73949649249E+02 -0.28504848590E+01  0.14908571521E+03  0.12509000000E+03 0.  0.
         25    1    3    3    0    0  0.63370523371E+02 -0.73366954201E+02  0.10622176191E+03  0.19060195173E+03  0.12509000000E+03 0.  0.
<mgrwt>
<rscale>  2 0.45243248E+03</rscale>
<asrwt>0</asrwt>
<pdfrwt beam="1">  1       21 0.44753049E-01 0.45243248E+03</pdfrwt>
<pdfrwt beam="2">  1       21 0.24729031E-01 0.45243248E+03</pdfrwt>
<totfact> 0.68639729E+04</totfact>
</mgrwt>
</event>
<event>
 7    0  0.4737014E-002  0.4545177E+03  0.7546771E-02  0.1026383E+00
         21   -1    0    0  502  501  0.00000000000E+00  0.00000000000E+00  0.13987997527E+03  0.13987997527E+03  0.00000000000E+00 0.  1.
         21   -1    0    0  501  502 -0.00000000000E+00 -0.00000000000E+00 -0.36922073501E+03  0.36922073501E+03  0.00000000000E+00 0.  1.
      99926    2    1    2    0    0 -0.71054273576E-14  0.00000000000E+00 -0.22934075974E+03  0.50910071028E+03  0.45451771047E+03 0.  0.
      99925    2    3    3    0    0 -0.33284253242E+02 -0.36801331716E+02 -0.31091341050E+02  0.26949161271E+03  0.26305299524E+03 0.  0.
         25    1    3    3    0    0  0.33284253242E+02  0.36801331716E+02 -0.19824941869E+03  0.23960909757E+03  0.12509000000E+03 0.  0.
         25    1    4    4    0    0 -0.49282063043E+02 -0.25136828761E+02 -0.40071358259E+02  0.14252650192E+03  0.12509000000E+03 0.  0.
         25    1    4    4    0    0  0.15997809801E+02 -0.11664502955E+02  0.89800172087E+01  0.12696511079E+03  0.12509000000E+03 0.  0.
<mgrwt>
<rscale>  2 0.45451771E+03</rscale>
<asrwt>0</asrwt>
<pdfrwt beam="1">  1       21 0.20570585E-01 0.45451771E+03</pdfrwt>
<pdfrwt beam="2">  1       21 0.54297166E-01 0.45451771E+03</pdfrwt>
<totfact> 0.64883919E+04</totfact>
</mgrwt>
</event>
<event>
 7    0  0.4737014E-002  0.4517328E+03  0.7546771E-02  0.1027207E+00
         21   -1    0    0  502  501  0.00000000000E+00  0.00000000000E+00  0.24935969382E+03  0.24935969382E+03  0.00000000000E+00 0. -1.
         21   -1    0    0  501  502 -0.00000000000E+00 -0.00000000000E+00 -0.20458653220E+03  0.20458653220E+03  0.00000000000E+00 0. -1.
      99926    2    1    2    0    0  0.00000000000E+00  0.71054273576E-14  0.44773161617E+02  0.45394622603E+03  0.45173281940E+03 0.  0.
      99925    2    3    3    0    0 -0.60209907299E+02  0.63184550538E+02  0.97984348811E+02  0.29240224159E+03  0.26130560253E+03 0.  0.
         25    1    4    4    0    0 -0.63950159835E+02  0.52024699896E+02  0.50763682522E+02  0.15817917659E+03  0.12509000000E+03 0.  0.
         25    1    4    4    0    0  0.37402525353E+01  0.11159850642E+02  0.47220666289E+02  0.13422306501E+03  0.12509000000E+03 0.  0.
         25    1    3    3    0    0  0.60209907299E+02 -0.63184550538E+02 -0.53211187194E+02  0.16154398443E+03  0.12509000000E+03 0.  0.
<mgrwt>
<rscale>  2 0.45173282E+03</rscale>
<asrwt>0</asrwt>
<pdfrwt beam="1">  1       21 0.36670543E-01 0.45173282E+03</pdfrwt>
<pdfrwt beam="2">  1       21 0.30086255E-01 0.45173282E+03</pdfrwt>
<totfact> 0.70441449E+04</totfact>
</mgrwt>
</event>
<event>
 7    0  0.4737014E-002  0.4809390E+03  0.7546771E-02  0.1018877E+00
         21   -1    0    0  502  501  0.00000000000E+00  0.00000000000E+00  0.10720063081E+04  0.10720063081E+04  0.00000000000E+00 0. -1.
         21   -1    0    0  501  502 -0.00000000000E+00 -0.00000000000E+00 -0.53941456636E+02  0.53941456636E+02  0.00000000000E+00 0. -1.
      99926    2    1    2    0    0  0.55511151231E-15  0.28421709430E-13  0.10180648514E+04  0.11259477647E+04  0.48093900561E+03 0.  0.
      99925    2    3    3    0    0  0.61566957486E+00  0.13450845144E+03  0.67463159255E+03  0.73647785064E+03  0.26301888954E+03 0.  0.
         25    1    4    4    0    0  0.14975196829E+02  0.88370283520E+02  0.44124101054E+03  0.46730578962E+03  0.12509000000E+03 0.  0.
         25    1    4    4    0    0 -0.14359527254E+02  0.46138167915E+02  0.23339058201E+03  0.26917206102E+03  0.12509000000E+03 0.  0.
         25    1    3    3    0    0 -0.61566957486E+00 -0.13450845144E+03  0.34343325887E+03  0.38946991406E+03  0.12509000000E+03 0.  0.
<mgrwt>
<rscale>  2 0.48093901E+03</rscale>
<asrwt>0</asrwt>
<pdfrwt beam="1">  1       21 0.15764797E+00 0.48093901E+03</pdfrwt>
<pdfrwt beam="2">  1       21 0.79325679E-02 0.48093901E+03</pdfrwt>
<totfact> 0.28402586E+04</totfact>
</mgrwt>
</event>
<event>
 7    0  0.4737014E-002  0.4476732E+03  0.7546771E-02  0.1028418E+00
         21   -1    0    0  502  501  0.00000000000E+00  0.00000000000E+00  0.49255138116E+03  0.49255138116E+03  0.00000000000E+00 0.  1.
         21   -1    0    0  501  502 -0.00000000000E+00 -0.00000000000E+00 -0.10172103148E+03  0.10172103148E+03  0.00000000000E+00 0.  1.
      99926    2    1    2    0    0 -0.71054273576E-14  0.00000000000E+00  0.39083034968E+03  0.59427241264E+03  0.44767324937E+03 0.  0.
      99925    2    3    3    0    0 -0.52596077907E+02 -0.67921510910E+02  0.33043460733E+03  0.43094809464E+03  0.26296302307E+03 0.  0.
         25    1    4    4    0    0 -0.54521232952E+02 -0.59448690943E+01  0.17555029378E+03  0.22242598782E+03  0.12509000000E+03 0.  0.
         25    1    3    3    0    0  0.52596077907E+02  0.67921510910E+02  0.60395742355E+02  0.16332431800E+03  0.12509000000E+03 0.  0.
         25    1    4    4    0    0  0.19251550449E+01 -0.61976641816E+02  0.15488431355E+03  0.20852210683E+03  0.12509000000E+03 0.  0.
<mgrwt>
<rscale>  2 0.44767325E+03</rscale>
<asrwt>0</asrwt>
<pdfrwt beam="1">  1       21 0.72434025E-01 0.44767325E+03</pdfrwt>
<pdfrwt beam="2">  1       21 0.14958975E-01 0.44767325E+03</pdfrwt>
<totfact> 0.62577387E+04</totfact>
</mgrwt>
</event>
<event>
 7    0  0.4737014E-002  0.4611887E+03  0.7546771E-02  0.1024437E+00
         21   -1    0    0  502  501  0.00000000000E+00  0.00000000000E+00  0.49390014274E+03  0.49390014274E+03  0.00000000000E+00 0. -1.
         21   -1    0    0  501  502 -0.00000000000E+00 -0.00000000000E+00 -0.10766096126E+03  0.10766096126E+03  0.00000000000E+00 0. -1.
      99926    2    1    2    0    0  0.00000000000E+00  0.00000000000E+00  0.38623918148E+03  0.60156110400E+03  0.46118874285E+03 0.  0.
      99925    2    3    3    0    0  0.11315074171E+03 -0.29071132821E+02  0.26892343743E+03  0.39405516911E+03  0.26327065918E+03 0.  0.
         25    1    4    4    0    0  0.21399819440E+02  0.48775266658E+01  0.95444250491E+02  0.15886741513E+03  0.12509000000E+03 0.  0.
         25    1    3    3    0    0 -0.11315074171E+03  0.29071132821E+02  0.11731574405E+03  0.20750593489E+03  0.12509000000E+03 0.  0.
         25    1    4    4    0    0  0.91750922270E+02 -0.33948659487E+02  0.17347918694E+03  0.23518775398E+03  0.12509000000E+03 0.  0.
<mgrwt>
<rscale>  2 0.46118874E+03</rscale>
<asrwt>0</asrwt>
<pdfrwt beam="1">  1       21 0.72632373E-01 0.46118874E+03</pdfrwt>
<pdfrwt beam="2">  1       21 0.15832494E-01 0.46118874E+03</pdfrwt>
<totfact> 0.55803140E+04</totfact>
</mgrwt>
</event>
<event>
 7    0  0.4737014E-002  0.4494992E+03  0.7546771E-02  0.1027872E+00
         21   -1    0    0  502  501  0.00000000000E+00  0.00000000000E+00  0.34149428789E+03  0.34149428789E+03  0.00000000000E+00 0.  1.
         21   -1    0    0  501  502 -0.00000000000E+00 -0.00000000000E+00 -0.14791571476E+03  0.14791571476E+03  0.00000000000E+00 0.  1.
      99926    2    1    2    0    0  0.00000000000E+00  0.00000000000E+00  0.19357857313E+03  0.48941000265E+03  0.44949915097E+03 0.  0.
      99925    2    3    3    0    0  0.73462500769E+02  0.71189551658E+02  0.15979489173E+03  0.32432355102E+03  0.26303358538E+03 0.  0.
         25    1    3    3    0    0 -0.73462500769E+02 -0.71189551658E+02  0.33783681397E+02  0.16508645163E+03  0.12509000000E+03 0.  0.
         25    1    4    4    0    0  0.49456989126E+02  0.10050136454E+02  0.11151949057E+03  0.17501743883E+03  0.12509000000E+03 0.  0.
         25    1    4    4    0    0  0.24005511643E+02  0.61139415204E+02  0.48275401161E+02  0.14930611219E+03  0.12509000000E+03 0.  0.
<mgrwt>
<rscale>  2 0.44949915E+03</rscale>
<asrwt>0</asrwt>
<pdfrwt beam="1">  1       21 0.50219748E-01 0.44949915E+03</pdfrwt>
<pdfrwt beam="2">  1       21 0.21752311E-01 0.44949915E+03</pdfrwt>
<totfact> 0.68984897E+04</totfact>
</mgrwt>
</event>
<event>
 7    0  0.4737014E-002  0.4243685E+03  0.7546771E-02  0.1035654E+00
         21   -1    0    0  502  501  0.00000000000E+00  0.00000000000E+00  0.28593905528E+03  0.28593905528E+03  0.00000000000E+00 0.  1.
         21   -1    0    0  501  502 -0.00000000000E+00 -0.00000000000E+00 -0.15745368538E+03  0.15745368538E+03  0.00000000000E+00 0.  1.
      99926    2    1    2    0    0  0.14210854715E-13  0.00000000000E+00  0.12848536991E+03  0.44339274066E+03  0.42436850989E+03 0.  0.
      99925    2    3    3    0    0  0.78365181140E+02 -0.20787014077E+02  0.78544793657E+02  0.28618341897E+03  0.26297996713E+03 0.  0.
         25    1    4    4    0    0  0.50457985027E+02 -0.37684319104E+01  0.80031784358E+02  0.15688468357E+03  0.12509000000E+03 0.  0.
         25    1    3    3    0    0 -0.78365181140E+02  0.20787014077E+02  0.49940576249E+02  0.15720932169E+03  0.12509000000E+03 0.  0.
         25    1    4    4    0    0  0.27907196113E+02 -0.17018582167E+02 -0.14869907010E+01  0.12929873540E+03  0.12509000000E+03 0.  0.
<mgrwt>
<rscale>  2 0.42436851E+03</rscale>
<asrwt>0</asrwt>
<pdfrwt beam="1">  1       21 0.42049861E-01 0.42436851E+03</pdfrwt>
<pdfrwt beam="2">  1       21 0.23154954E-01 0.42436851E+03</pdfrwt>
<totfact> 0.89263964E+04</totfact>
</mgrwt>
</event>
<event>
 7    0  0.4737014E-002  0.4581374E+03  0.7546771E-02  0.1025323E+00
         21   -1    0    0  502  501  0.00000000000E+00  0.00000000000E+00  0.14138262566E+03  0.14138262566E+03  0.00000000000E+00 0. -1.
         21   -1    0    0  501  502 -0.00000000000E+00 -0.00000000000E+00 -0.37113806313E+03  0.37113806313E+03  0.00000000000E+00 0. -1.
      99926    2    1    2    0    0  0.00000000000E+00  0.00000000000E+00 -0.22975543747E+03  0.51252068880E+03  0.45813741977E+03 0.  0.
      99925    2    3    3    0    0 -0.11286241319E+03 -0.27883637149E+02 -0.14138616755E+03  0.32023949497E+03  0.26276960295E+03 0.  0.
         25    1    4    4    0    0 -0.66544445358E+02  0.24553078660E+02 -0.64666721733E+02  0.15767152527E+03  0.12509000000E+03 0.  0.
         25    1    4    4    0    0 -0.46317967830E+02 -0.52436715809E+02 -0.76719445812E+02  0.16256796971E+03  0.12509000000E+03 0.  0.
         25    1    3    3    0    0  0.11286241319E+03  0.27883637149E+02 -0.88369269927E+02  0.19228119383E+03  0.12509000000E+03 0.  0.
<mgrwt>
<rscale>  2 0.45813742E+03</rscale>
<asrwt>0</asrwt>
<pdfrwt beam="1">  1       21 0.20791563E-01 0.45813742E+03</pdfrwt>
<pdfrwt beam="2">  1       21 0.54579126E-01 0.45813742E+03</pdfrwt>
<totfact> 0.62820888E+04</totfact>
</mgrwt>
</event>
<event>
 7    0  0.4737014E-002  0.4516671E+03  0.7546771E-02  0.1027226E+00
         21   -1    0    0  502  501  0.00000000000E+00  0.00000000000E+00  0.39792452265E+03  0.39792452265E+03  0.00000000000E+00 0. -1.
         21   -1    0    0  501  502 -0.00000000000E+00 -0.00000000000E+00 -0.12816699731E+03  0.12816699731E+03  0.00000000000E+00 0. -1.
      99926    2    1    2    0    0  0.00000000000E+00  0.00000000000E+00  0.26975752533E+03  0.52609151996E+03  0.45166709522E+03 0.  0.
      99925    2    3    3    0    0 -0.69455325383E+02  0.38447613524E+02  0.25770728546E+03  0.37744772564E+03  0.26410505372E+03 0.  0.
         25    1    4    4    0    0 -0.11388805221E+02  0.49573620331E+02  0.15207439112E+03  0.20337496712E+03  0.12509000000E+03 0.  0.
         25    1    4    4    0    0 -0.58066520162E+02 -0.11126006807E+02  0.10563289434E+03  0.17407275852E+03  0.12509000000E+03 0.  0.
         25    1    3    3    0    0  0.69455325383E+02 -0.38447613524E+02  0.12050239872E+02  0.14864379432E+03  0.12509000000E+03 0.  0.
<mgrwt>
<rscale>  2 0.45166710E+03</rscale>
<asrwt>0</asrwt>
<pdfrwt beam="1">  1       21 0.58518312E-01 0.45166710E+03</pdfrwt>
<pdfrwt beam="2">  1       21 0.18848088E-01 0.45166710E+03</pdfrwt>
<totfact> 0.65176801E+04</totfact>
</mgrwt>
</event>
<event>
 7    0  0.4737014E-002  0.4617164E+03  0.7546771E-02  0.1024285E+00
         21   -1    0    0  502  501  0.00000000000E+00  0.00000000000E+00  0.83417198816E+03  0.83417198816E+03  0.00000000000E+00 0. -1.
         21   -1    0    0  501  502 -0.00000000000E+00 -0.00000000000E+00 -0.63890301815E+02  0.63890301815E+02  0.00000000000E+00 0. -1.
      99926    2    1    2    0    0  0.00000000000E+00  0.00000000000E+00  0.77028168635E+03  0.89806228998E+03  0.46171636354E+03 0.  0.
      99925    2    3    3    0    0 -0.65331943177E+02  0.69995772211E+02  0.34292691828E+03  0.44259848591E+03  0.26291990705E+03 0.  0.
         25    1    4    4    0    0 -0.67199268494E+02  0.50897163291E+02  0.15731838071E+03  0.21795147149E+03  0.12509000000E+03 0.  0.
         25    1    4    4    0    0  0.18673253162E+01  0.19098608921E+02  0.18560853757E+03  0.22464701442E+03  0.12509000000E+03 0.  0.
         25    1    3    3    0    0  0.65331943177E+02 -0.69995772211E+02  0.42735476807E+03  0.45546380407E+03  0.12509000000E+03 0.  0.
<mgrwt>
<rscale>  2 0.46171636E+03</rscale>
<asrwt>0</asrwt>
<pdfrwt beam="1">  1       21 0.12267234E+00 0.46171636E+03</pdfrwt>
<pdfrwt beam="2">  1       21 0.93956331E-02 0.46171636E+03</pdfrwt>
<totfact> 0.41112544E+04</totfact>
</mgrwt>
</event>
<event>
 7    0  0.4737014E-002  0.4568089E+03  0.7546771E-02  0.1025711E+00
         21   -1    0    0  502  501  0.00000000000E+00  0.00000000000E+00  0.42557954267E+03  0.42557954267E+03  0.00000000000E+00 0. -1.
         21   -1    0    0  501  502 -0.00000000000E+00 -0.00000000000E+00 -0.12258244688E+03  0.12258244688E+03  0.00000000000E+00 0. -1.
      99926    2    1    2    0    0  0.00000000000E+00  0.00000000000E+00  0.30299709578E+03  0.54816198955E+03  0.45680885141E+03 0.  0.
      99925    2    3    3    0    0 -0.72865883687E+02  0.68429348337E+02  0.12269347527E+03  0.30702112534E+03  0.26308985121E+03 0.  0.
         25    1    4    4    0    0 -0.52606160003E+02  0.55202979646E+02  0.10059054435E+03  0.17770971483E+03  0.12509000000E+03 0.  0.
         25    1    3    3    0    0  0.72865883687E+02 -0.68429348337E+02  0.18030362052E+03  0.24114086421E+03  0.12509000000E+03 0.  0.
         25    1    4    4    0    0 -0.20259723684E+02  0.13226368691E+02  0.22102930916E+02  0.12931141051E+03  0.12509000000E+03 0.  0.
<mgrwt>
<rscale>  2 0.45680885E+03</rscale>
<asrwt>0</asrwt>
<pdfrwt beam="1">  1       21 0.62585226E-01 0.45680885E+03</pdfrwt>
<pdfrwt beam="2">  1       21 0.18026831E-01 0.45680885E+03</pdfrwt>
<totfact> 0.61108825E+04</totfact>
</mgrwt>
</event>
<event>
 7    0  0.4737014E-002  0.4845202E+03  0.7546771E-02  0.1017900E+00
         21   -1    0    0  502  501  0.00000000000E+00  0.00000000000E+00  0.22194542841E+03  0.22194542841E+03  0.00000000000E+00 0.  1.
         21   -1    0    0  501  502 -0.00000000000E+00 -0.00000000000E+00 -0.26443419125E+03  0.26443419125E+03  0.00000000000E+00 0.  1.
      99926    2    1    2    0    0  0.00000000000E+00  0.00000000000E+00 -0.42488762836E+02  0.48637961966E+03  0.48452021574E+03 0.  0.
      99925    2    3    3    0    0 -0.60284710345E+02  0.48397035642E+02  0.89992913284E+02  0.28845179957E+03  0.26292431776E+03 0.  0.
         25    1    3    3    0    0  0.60284710345E+02 -0.48397035642E+02 -0.13248167612E+03  0.19792782010E+03  0.12509000000E+03 0.  0.
         25    1    4    4    0    0 -0.70537941032E+02  0.32703154834E+02  0.54944025323E+02  0.15719876424E+03  0.12509000000E+03 0.  0.
         25    1    4    4    0    0  0.10253230687E+02  0.15693880808E+02  0.35048887961E+02  0.13125303532E+03  0.12509000000E+03 0.  0.
<mgrwt>
<rscale>  2 0.48452022E+03</rscale>
<asrwt>0</asrwt>
<pdfrwt beam="1">  1       21 0.32639034E-01 0.48452022E+03</pdfrwt>
<pdfrwt beam="2">  1       21 0.38887381E-01 0.48452022E+03</pdfrwt>
<totfact> 0.52744151E+04</totfact>
</mgrwt>
</event>
<event>
 7    0  0.4737014E-002  0.4217673E+03  0.7546771E-02  0.1036493E+00
         21   -1    0    0  502  501  0.00000000000E+00  0.00000000000E+00  0.39092294611E+03  0.39092294611E+03  0.00000000000E+00 0.  1.
         21   -1    0    0  501  502 -0.00000000000E+00 -0.00000000000E+00 -0.11376134344E+03  0.11376134344E+03  0.00000000000E+00 0.  1.
      99926    2    1    2    0    0  0.17763568394E-14  0.00000000000E+00  0.27716160267E+03  0.50468428955E+03  0.42176732700E+03 0.  0.
      99925    2    3    3    0    0  0.11619450895E+02 -0.36106948299E+02  0.98394198187E+02  0.28322545284E+03  0.26286216073E+03 0.  0.
         25    1    3    3    0    0 -0.11619450895E+02  0.36106948299E+02  0.17876740448E+03  0.22145883672E+03  0.12509000000E+03 0.  0.
         25    1    4    4    0    0 -0.28692987865E+02 -0.35827599250E+02  0.61267940089E+02  0.14665665005E+03  0.12509000000E+03 0.  0.
         25    1    4    4    0    0  0.40312438760E+02 -0.27934904870E+00  0.37126258098E+02  0.13656880279E+03  0.12509000000E+03 0.  0.
<mgrwt>
<rscale>  2 0.42176733E+03</rscale>
<asrwt>0</asrwt>
<pdfrwt beam="1">  1       21 0.57488668E-01 0.42176733E+03</pdfrwt>
<pdfrwt beam="2">  1       21 0.16729609E-01 0.42176733E+03</pdfrwt>
<totfact> 0.85295941E+04</totfact>
</mgrwt>
</event>
<event>
 7    0  0.4737014E-002  0.4544977E+03  0.7546771E-02  0.1026389E+00
         21   -1    0    0  502  501  0.00000000000E+00  0.00000000000E+00  0.82530474974E+02  0.82530474974E+02  0.00000000000E+00 0.  1.
         21   -1    0    0  501  502 -0.00000000000E+00 -0.00000000000E+00 -0.62573305579E+03  0.62573305579E+03  0.00000000000E+00 0.  1.
      99926    2    1    2    0    0  0.00000000000E+00 -0.71054273576E-14 -0.54320258081E+03  0.70826353076E+03  0.45449772849E+03 0.  0.
      99925    2    3    3    0    0 -0.47655854611E+01  0.63572411485E+02 -0.19707795740E+03  0.33474790145E+03  0.26296819946E+03 0.  0.
         25    1    4    4    0    0 -0.16824522742E+02  0.12760895747E+02 -0.54665919859E+02  0.13813680147E+03  0.12509000000E+03 0.  0.
         25    1    4    4    0    0  0.12058937281E+02  0.50811515738E+02 -0.14241203754E+03  0.19661109998E+03  0.12509000000E+03 0.  0.
         25    1    3    3    0    0  0.47655854611E+01 -0.63572411485E+02 -0.34612462341E+03  0.37351562931E+03  0.12509000000E+03 0.  0.
<mgrwt>
<rscale>  2 0.45449773E+03</rscale>
<asrwt>0</asrwt>
<pdfrwt beam="1">  1       21 0.12136835E-01 0.45449773E+03</pdfrwt>
<pdfrwt beam="2">  1       21 0.92019565E-01 0.45449773E+03</pdfrwt>
<totfact> 0.52664417E+04</totfact>
</mgrwt>
</event>
<event>
 7    0  0.4737014E-002  0.4485799E+03  0.7546771E-02  0.1028146E+00
         21   -1    0    0  502  501  0.00000000000E+00  0.00000000000E+00  0.31992130340E+03  0.31992130340E+03  0.00000000000E+00 0.  1.
         21   -1    0    0  501  502 -0.00000000000E+00 -0.00000000000E+00 -0.15724487387E+03  0.15724487387E+03  0.00000000000E+00 0.  1.
      99926    2    1    2    0    0 -0.14210854715E-13 -0.35527136788E-14  0.16267642953E+03  0.47716617727E+03  0.44857991485E+03 0.  0.
      99925    2    3    3    0    0  0.10448968256E+03  0.16134242508E+02  0.12063418013E+03  0.30807015018E+03  0.26301369636E+03 0.  0.
         25    1    4    4    0    0  0.19997528730E+02 -0.93951925906E+01  0.31334034106E+02  0.13083386638E+03  0.12509000000E+03 0.  0.
         25    1    4    4    0    0  0.84492153831E+02  0.25529435099E+02  0.89300146021E+02  0.17723628380E+03  0.12509000000E+03 0.  0.
         25    1    3    3    0    0 -0.10448968256E+03 -0.16134242508E+02  0.42042249408E+02  0.16909602709E+03  0.12509000000E+03 0.  0.
<mgrwt>
<rscale>  2 0.44857991E+03</rscale>
<asrwt>0</asrwt>
<pdfrwt beam="1">  1       21 0.47047250E-01 0.44857991E+03</pdfrwt>
<pdfrwt beam="2">  1       21 0.23124246E-01 0.44857991E+03</pdfrwt>
<totfact> 0.70428146E+04</totfact>
</mgrwt>
</event>
<event>
 7    0  0.4737014E-002  0.4580081E+03  0.7546771E-02  0.1025361E+00
         21   -1    0    0  502  501  0.00000000000E+00  0.00000000000E+00  0.22807089667E+03  0.22807089667E+03  0.00000000000E+00 0. -1.
         21   -1    0    0  501  502 -0.00000000000E+00 -0.00000000000E+00 -0.22994099335E+03  0.22994099335E+03  0.00000000000E+00 0. -1.
      99926    2    1    2    0    0  0.00000000000E+00  0.00000000000E+00 -0.18700966820E+01  0.45801189003E+03  0.45800807214E+03 0.  0.
      99925    2    3    3    0    0 -0.67883252641E+02 -0.93358812332E+02  0.10118521312E+02  0.28738000880E+03  0.26298456448E+03 0.  0.
         25    1    4    4    0    0 -0.56734313700E+02 -0.84309104532E+02  0.14759275720E+01  0.16117224923E+03  0.12509000000E+03 0.  0.
         25    1    4    4    0    0 -0.11148938940E+02 -0.90497078000E+01  0.86425937398E+01  0.12620775958E+03  0.12509000000E+03 0.  0.
         25    1    3    3    0    0  0.67883252641E+02  0.93358812332E+02 -0.11988617994E+02  0.17063188123E+03  0.12509000000E+03 0.  0.
<mgrwt>
<rscale>  2 0.45800807E+03</rscale>
<asrwt>0</asrwt>
<pdfrwt beam="1">  1       21 0.33539838E-01 0.45800807E+03</pdfrwt>
<pdfrwt beam="2">  1       21 0.33814852E-01 0.45800807E+03</pdfrwt>
<totfact> 0.66710138E+04</totfact>
</mgrwt>
</event>
<event>
 7    0  0.4737014E-002  0.4580295E+03  0.7546771E-02  0.1025354E+00
         21   -1    0    0  502  501  0.00000000000E+00  0.00000000000E+00  0.32011209818E+03  0.32011209818E+03  0.00000000000E+00 0.  1.
         21   -1    0    0  501  502 -0.00000000000E+00 -0.00000000000E+00 -0.16384180617E+03  0.16384180617E+03  0.00000000000E+00 0.  1.
      99926    2    1    2    0    0  0.00000000000E+00  0.00000000000E+00  0.15627029201E+03  0.48395390435E+03  0.45802945033E+03 0.  0.
      99925    2    3    3    0    0  0.10075667375E+03 -0.46199548114E+02  0.61563746347E+02  0.29185199535E+03  0.26287104591E+03 0.  0.
         25    1    4    4    0    0  0.18650490416E+02 -0.20805422651E+02  0.56298202994E+02  0.13999179321E+03  0.12509000000E+03 0.  0.
         25    1    3    3    0    0 -0.10075667375E+03  0.46199548114E+02  0.94706545659E+02  0.19210190900E+03  0.12509000000E+03 0.  0.
         25    1    4    4    0    0  0.82106183330E+02 -0.25394125463E+02  0.52655433526E+01  0.15186020215E+03  0.12509000000E+03 0.  0.
<mgrwt>
<rscale>  2 0.45802945E+03</rscale>
<asrwt>0</asrwt>
<pdfrwt beam="1">  1       21 0.47075308E-01 0.45802945E+03</pdfrwt>
<pdfrwt beam="2">  1       21 0.24094383E-01 0.45802945E+03</pdfrwt>
<totfact> 0.64840065E+04</totfact>
</mgrwt>
</event>
<event>
 7    0  0.4737014E-002  0.4790242E+03  0.7546771E-02  0.1019404E+00
         21   -1    0    0  502  501  0.00000000000E+00  0.00000000000E+00  0.85156251965E+03  0.85156251965E+03  0.00000000000E+00 0.  1.
         21   -1    0    0  501  502 -0.00000000000E+00 -0.00000000000E+00 -0.67365623827E+02  0.67365623827E+02  0.00000000000E+00 0.  1.
      99926    2    1    2    0    0  0.00000000000E+00  0.00000000000E+00  0.78419689582E+03  0.91892814347E+03  0.47902417627E+03 0.  0.
      99925    2    3    3    0    0  0.10256500693E+03 -0.50169708700E+01  0.31677966488E+03  0.42428572059E+03  0.26291494055E+03 0.  0.
         25    1    4    4    0    0  0.60117068004E+02 -0.68525564867E+01  0.22121122395E+03  0.26123348388E+03  0.12509000000E+03 0.  0.
         25    1    3    3    0    0 -0.10256500693E+03  0.50169708700E+01  0.46741723094E+03  0.49464242289E+03  0.12509000000E+03 0.  0.
         25    1    4    4    0    0  0.42447938928E+02  0.18355856166E+01  0.95568440929E+02  0.16305223671E+03  0.12509000000E+03 0.  0.
<mgrwt>
<rscale>  2 0.47902418E+03</rscale>
<asrwt>0</asrwt>
<pdfrwt beam="1">  1       21 0.12522978E+00 0.47902418E+03</pdfrwt>
<pdfrwt beam="2">  1       21 0.99067099E-02 0.47902418E+03</pdfrwt>
<totfact> 0.35303273E+04</totfact>
</mgrwt>
</event>
<event>
 7    0  0.4737014E-002  0.4357531E+03  0.7546771E-02  0.1032058E+00
         21   -1    0    0  502  501  0.00000000000E+00  0.00000000000E+00  0.71881486507E+03  0.71881486507E+03  0.00000000000E+00 0.  1.
         21   -1    0    0  501  502 -0.00000000000E+00 -0.00000000000E+00 -0.66039516966E+02  0.66039516966E+02  0.00000000000E+00 0.  1.
      99926    2    1    2    0    0  0.00000000000E+00  0.00000000000E+00  0.65277534811E+03  0.78485438204E+03  0.43575307906E+03 0.  0.
      99925    2    3    3    0    0  0.58052804175E+02 -0.55407576528E+02  0.33025538872E+03  0.42973924591E+03  0.26299633093E+03 0.  0.
         25    1    4    4    0    0  0.30796954407E+02 -0.61023699015E+02  0.13596468160E+03  0.19699301253E+03  0.12509000000E+03 0.  0.
         25    1    3    3    0    0 -0.58052804175E+02  0.55407576528E+02  0.32251995938E+03  0.35511513613E+03  0.12509000000E+03 0.  0.
         25    1    4    4    0    0  0.27255849768E+02  0.56161224875E+01  0.19429070712E+03  0.23274623338E+03  0.12509000000E+03 0.  0.
<mgrwt>
<rscale>  2 0.43575308E+03</rscale>
<asrwt>0</asrwt>
<pdfrwt beam="1">  1       21 0.10570806E+00 0.43575308E+03</pdfrwt>
<pdfrwt beam="2">  1       21 0.97116941E-02 0.43575308E+03</pdfrwt>
<totfact> 0.56581920E+04</totfact>
</mgrwt>
</event>
<event>
 7    0  0.4737014E-002  0.4457925E+03  0.7546771E-02  0.1028984E+00
         21   -1    0    0  502  501  0.00000000000E+00  0.00000000000E+00  0.48051306050E+02  0.48051306050E+02  0.00000000000E+00 0. -1.
         21   -1    0    0  501  502 -0.00000000000E+00 -0.00000000000E+00 -0.10339516854E+04  0.10339516854E+04  0.00000000000E+00 0. -1.
      99926    2    1    2    0    0  0.00000000000E+00  0.35527136788E-14 -0.98590037938E+03  0.10820029915E+04  0.44579245789E+03 0.  0.
      99925    2    3    3    0    0 -0.98092812105E+02  0.22925228530E+02 -0.69103686850E+03  0.74623556597E+03  0.26303573976E+03 0.  0.
         25    1    4    4    0    0 -0.46503144176E+02 -0.20015966364E+01 -0.44208344833E+03  0.46179197935E+03  0.12509000000E+03 0.  0.
         25    1    3    3    0    0  0.98092812105E+02 -0.22925228530E+02 -0.29486351088E+03  0.33576742552E+03  0.12509000000E+03 0.  0.
         25    1    4    4    0    0 -0.51589667928E+02  0.24926825166E+02 -0.24895342017E+03  0.28444358662E+03  0.12509000000E+03 0.  0.
<mgrwt>
<rscale>  2 0.44579246E+03</rscale>
<asrwt>0</asrwt>
<pdfrwt beam="1">  1       21 0.70663691E-02 0.44579246E+03</pdfrwt>
<pdfrwt beam="2">  1       21 0.15205171E+00 0.44579246E+03</pdfrwt>
<totfact> 0.38840827E+04</totfact>
</mgrwt>
</event>
<event>
 7    0  0.4737014E-002  0.4574383E+03  0.7546771E-02  0.1025527E+00
         21   -1    0    0  502  501  0.00000000000E+00  0.00000000000E+00  0.12301177147E+03  0.12301177147E+03  0.00000000000E+00 0.  1.
         21   -1    0    0  501  502 -0.00000000000E+00 -0.00000000000E+00 -0.42526368463E+03  0.42526368463E+03  0.00000000000E+00 0.  1.
      99926    2    1    2    0    0  0.00000000000E+00  0.00000000000E+00 -0.30225191316E+03  0.54827545610E+03  0.45743825457E+03 0.  0.
      99925    2    3    3    0    0  0.71099927001E+02 -0.62836137410E+02 -0.26868364295E+03  0.38772042924E+03  0.26293088726E+03 0.  0.
         25    1    3    3    0    0 -0.71099927001E+02  0.62836137410E+02 -0.33568270218E+02  0.16055502686E+03  0.12509000000E+03 0.  0.
         25    1    4    4    0    0  0.35472230320E+02 -0.18129238524E+02 -0.18459739712E+03  0.22651855451E+03  0.12509000000E+03 0.  0.
         25    1    4    4    0    0  0.35627696681E+02 -0.44706898885E+02 -0.84086245825E+02  0.16120187473E+03  0.12509000000E+03 0.  0.
<mgrwt>
<rscale>  2 0.45743825E+03</rscale>
<asrwt>0</asrwt>
<pdfrwt beam="1">  1       21 0.18089966E-01 0.45743825E+03</pdfrwt>
<pdfrwt beam="2">  1       21 0.62538777E-01 0.45743825E+03</pdfrwt>
<totfact> 0.60799149E+04</totfact>
</mgrwt>
</event>
<event>
 7    0  0.4737014E-002  0.4592126E+03  0.7546771E-02  0.1025010E+00
         21   -1    0    0  502  501  0.00000000000E+00  0.00000000000E+00  0.36020840196E+03  0.36020840196E+03  0.00000000000E+00 0. -1.
         21   -1    0    0  501  502 -0.00000000000E+00 -0.00000000000E+00 -0.14635711360E+03  0.14635711360E+03  0.00000000000E+00 0. -1.
      99926    2    1    2    0    0  0.00000000000E+00  0.00000000000E+00  0.21385128836E+03  0.50656551556E+03  0.45921263922E+03 0.  0.
      99925    2    3    3    0    0  0.70062071765E+02  0.84028749703E+02  0.18005022688E+03  0.33697912302E+03  0.26299680697E+03 0.  0.
         25    1    4    4    0    0  0.76106278835E+02  0.41251598469E+02  0.10497377725E+03  0.18482657294E+03  0.12509000000E+03 0.  0.
         25    1    3    3    0    0 -0.70062071765E+02 -0.84028749703E+02  0.33801061483E+02  0.16958639254E+03  0.12509000000E+03 0.  0.
         25    1    4    4    0    0 -0.60442070700E+01  0.42777151234E+02  0.75076449630E+02  0.15215255008E+03  0.12509000000E+03 0.  0.
<mgrwt>
<rscale>  2 0.45921264E+03</rscale>
<asrwt>0</asrwt>
<pdfrwt beam="1">  1       21 0.52971824E-01 0.45921264E+03</pdfrwt>
<pdfrwt beam="2">  1       21 0.21523105E-01 0.45921264E+03</pdfrwt>
<totfact> 0.62689287E+04</totfact>
</mgrwt>
</event>
<event>
 7    0  0.4737014E-002  0.4603426E+03  0.7546771E-02  0.1024682E+00
         21   -1    0    0  502  501  0.00000000000E+00  0.00000000000E+00  0.22606231769E+03  0.22606231769E+03  0.00000000000E+00 0.  1.
         21   -1    0    0  501  502 -0.00000000000E+00 -0.00000000000E+00 -0.23435493173E+03  0.23435493173E+03  0.00000000000E+00 0.  1.
      99926    2    1    2    0    0  0.00000000000E+00  0.00000000000E+00 -0.82926140456E+01  0.46041724942E+03  0.46034256387E+03 0.  0.
      99925    2    3    3    0    0  0.10271253218E+03  0.58206055883E+02 -0.22229144356E+01  0.28830635911E+03  0.26301674120E+03 0.  0.
         25    1    4    4    0    0  0.93056549714E+02  0.21445634308E+02  0.39404688178E+01  0.15742449641E+03  0.12509000000E+03 0.  0.
         25    1    4    4    0    0  0.96559824637E+01  0.36760421575E+02 -0.61633832534E+01  0.13088186270E+03  0.12509000000E+03 0.  0.
         25    1    3    3    0    0 -0.10271253218E+03 -0.58206055883E+02 -0.60696996101E+01  0.17211089030E+03  0.12509000000E+03 0.  0.
<mgrwt>
<rscale>  2 0.46034256E+03</rscale>
<asrwt>0</asrwt>
<pdfrwt beam="1">  1       21 0.33244458E-01 0.46034256E+03</pdfrwt>
<pdfrwt beam="2">  1       21 0.34463961E-01 0.46034256E+03</pdfrwt>
<totfact> 0.65321488E+04</totfact>
</mgrwt>
</event>
<event>
 6    0  0.4737014E-002  0.4534020E+03  0.7546771E-02  0.1026712E+00
         21   -1    0    0  502  501  0.00000000000E+00  0.00000000000E+00  0.14595794285E+03  0.14595794285E+03  0.00000000000E+00 0. -1.
         21   -1    0    0  501  502 -0.00000000000E+00 -0.00000000000E+00 -0.35211059033E+03  0.35211059033E+03  0.00000000000E+00 0. -1.
      99926    2    1    2    0    0  0.00000000000E+00  0.00000000000E+00 -0.20615264749E+03  0.49806853318E+03  0.45340197362E+03 0.  0.
         25    1    3    3    0    0 -0.66029363135E+01 -0.39538075508E+02 -0.18398713143E+03  0.22606554539E+03  0.12509000000E+03 0.  0.
         25    1    3    3    0    0  0.13486106098E+02  0.58040074269E+01  0.34256064209E+02  0.13052412649E+03  0.12509000000E+03 0.  0.
         25    1    3    3    0    0 -0.68831697849E+01  0.33734068081E+02 -0.56421580272E+02  0.14147886130E+03  0.12509000000E+03 0.  0.
<mgrwt>
<rscale>  2 0.45340197E+03</rscale>
<asrwt>0</asrwt>
<pdfrwt beam="1">  1       21 0.21464404E-01 0.45340197E+03</pdfrwt>
<pdfrwt beam="2">  1       21 0.51780968E-01 0.45340197E+03</pdfrwt>
<totfact> 0.66242904E+04</totfact>
</mgrwt>
</event>
<event>
 7    0  0.4737014E-002  0.4507514E+03  0.7546771E-02  0.1027498E+00
         21   -1    0    0  502  501  0.00000000000E+00  0.00000000000E+00  0.33711504888E+03  0.33711504888E+03  0.00000000000E+00 0. -1.
         21   -1    0    0  501  502 -0.00000000000E+00 -0.00000000000E+00 -0.15067322654E+03  0.15067322654E+03  0.00000000000E+00 0. -1.
      99926    2    1    2    0    0  0.71054273576E-14  0.00000000000E+00  0.18644182234E+03  0.48778827542E+03  0.45075142654E+03 0.  0.
      99925    2    3    3    0    0 -0.39541709675E+02 -0.69216735519E+02  0.36478382431E+02  0.27685927152E+03  0.26261355746E+03 0.  0.
         25    1    4    4    0    0 -0.49191141644E+02 -0.38311546281E+02  0.46395854109E+02  0.14726719381E+03  0.12509000000E+03 0.  0.
         25    1    4    4    0    0  0.96494319691E+01 -0.30905189238E+02 -0.99174716782E+01  0.12959207770E+03  0.12509000000E+03 0.  0.
         25    1    3    3    0    0  0.39541709675E+02  0.69216735519E+02  0.14996343991E+03  0.21092900391E+03  0.12509000000E+03 0.  0.
<mgrwt>
<rscale>  2 0.45075143E+03</rscale>
<asrwt>0</asrwt>
<pdfrwt beam="1">  1       21 0.49575742E-01 0.45075143E+03</pdfrwt>
<pdfrwt beam="2">  1       21 0.22157827E-01 0.45075143E+03</pdfrwt>
<totfact> 0.68415975E+04</totfact>
</mgrwt>
</event>
<event>
 7    0  0.4737014E-002  0.4539156E+03  0.7546771E-02  0.1026561E+00
         21   -1    0    0  502  501  0.00000000000E+00  0.00000000000E+00  0.30569691416E+03  0.30569691416E+03  0.00000000000E+00 0. -1.
         21   -1    0    0  501  502 -0.00000000000E+00 -0.00000000000E+00 -0.16849969957E+03  0.16849969957E+03  0.00000000000E+00 0. -1.
      99926    2    1    2    0    0  0.00000000000E+00  0.17763568394E-14  0.13719721459E+03  0.47419661373E+03  0.45391557891E+03 0.  0.
      99925    2    3    3    0    0  0.17802496906E+02  0.44226338387E+01 -0.29136531082E+02  0.26526860786E+03  0.26302472942E+03 0.  0.
         25    1    3    3    0    0 -0.17802496906E+02 -0.44226338387E+01  0.16633374567E+03  0.20892800587E+03  0.12509000000E+03 0.  0.
         25    1    4    4    0    0  0.24265442591E+02  0.34743277387E+02  0.42426293972E+01  0.13214164761E+03  0.12509000000E+03 0.  0.
         25    1    4    4    0    0 -0.64629456851E+01 -0.30320643548E+02 -0.33379160479E+02  0.13312696025E+03  0.12509000000E+03 0.  0.
<mgrwt>
<rscale>  2 0.45391558E+03</rscale>
<asrwt>0</asrwt>
<pdfrwt beam="1">  1       21 0.44955428E-01 0.45391558E+03</pdfrwt>
<pdfrwt beam="2">  1       21 0.24779368E-01 0.45391558E+03</pdfrwt>
<totfact> 0.67705822E+04</totfact>
</mgrwt>
</event>
<event>
 7    0  0.4737014E-002  0.4695800E+03  0.7546771E-02  0.1022039E+00
         21   -1    0    0  502  501  0.00000000000E+00  0.00000000000E+00  0.23078254458E+03  0.23078254458E+03  0.00000000000E+00 0. -1.
         21   -1    0    0  501  502 -0.00000000000E+00 -0.00000000000E+00 -0.23886704516E+03  0.23886704516E+03  0.00000000000E+00 0. -1.
      99926    2    1    2    0    0 -0.14210854715E-13  0.35527136788E-14 -0.80845005785E+01  0.46964958973E+03  0.46958000169E+03 0.  0.
      99925    2    3    3    0    0  0.84640913376E+02 -0.28959104469E+02  0.84151698501E+02  0.29032380110E+03  0.26306593693E+03 0.  0.
         25    1    4    4    0    0  0.34339806075E+02  0.13816999491E+02  0.10563327621E+02  0.13087866039E+03  0.12509000000E+03 0.  0.
         25    1    3    3    0    0 -0.84640913376E+02  0.28959104469E+02 -0.92236199079E+02  0.17932578863E+03  0.12509000000E+03 0.  0.
         25    1    4    4    0    0  0.50301107301E+02 -0.42776103960E+02  0.73588370879E+02  0.15944514070E+03  0.12509000000E+03 0.  0.
<mgrwt>
<rscale>  2 0.46958000E+03</rscale>
<asrwt>0</asrwt>
<pdfrwt beam="1">  1       21 0.33938610E-01 0.46958000E+03</pdfrwt>
<pdfrwt beam="2">  1       21 0.35127506E-01 0.46958000E+03</pdfrwt>
<totfact> 0.60174691E+04</totfact>
</mgrwt>
</event>
<event>
 7    0  0.4737014E-002  0.4557936E+03  0.7546771E-02  0.1026008E+00
         21   -1    0    0  502  501  0.00000000000E+00  0.00000000000E+00  0.28822565999E+02  0.28822565999E+02  0.00000000000E+00 0.  1.
         21   -1    0    0  501  502 -0.00000000000E+00 -0.00000000000E+00 -0.18019544987E+04  0.18019544987E+04  0.00000000000E+00 0.  1.
      99926    2    1    2    0    0  0.00000000000E+00  0.71054273576E-14 -0.17731319327E+04  0.18307770647E+04  0.45579360446E+03 0.  0.
      99925    2    3    3    0    0  0.95666276863E+02 -0.55710776682E+02 -0.12245431331E+04  0.12573200861E+04  0.26285392692E+03 0.  0.
         25    1    4    4    0    0  0.25785664399E+02  0.86332999408E+01 -0.56909765585E+03  0.58331731017E+03  0.12509000000E+03 0.  0.
         25    1    4    4    0    0  0.69880612465E+02 -0.64344076623E+02 -0.65544547721E+03  0.67400277588E+03  0.12509000000E+03 0.  0.
         25    1    3    3    0    0 -0.95666276863E+02  0.55710776682E+02 -0.54858879966E+03  0.57345697866E+03  0.12509000000E+03 0.  0.
<mgrwt>
<rscale>  2 0.45579360E+03</rscale>
<asrwt>0</asrwt>
<pdfrwt beam="1">  1       21 0.42386113E-02 0.45579360E+03</pdfrwt>
<pdfrwt beam="2">  1       21 0.26499339E+00 0.45579360E+03</pdfrwt>
<totfact> 0.16573208E+04</totfact>
</mgrwt>
</event>
<event>
 7    0  0.4737014E-002  0.4632544E+03  0.7546771E-02  0.1023842E+00
         21   -1    0    0  502  501  0.00000000000E+00  0.00000000000E+00  0.29421148271E+03  0.29421148271E+03  0.00000000000E+00 0.  1.
         21   -1    0    0  501  502 -0.00000000000E+00 -0.00000000000E+00 -0.18235572804E+03  0.18235572804E+03  0.00000000000E+00 0.  1.
      99926    2    1    2    0    0  0.00000000000E+00  0.00000000000E+00  0.11185575467E+03  0.47656721075E+03  0.46325435401E+03 0.  0.
      99925    2    3    3    0    0 -0.50370242347E+02  0.10104535043E+03  0.11402665072E+03  0.30804556511E+03  0.26294993621E+03 0.  0.
         25    1    4    4    0    0 -0.87158088065E+01  0.64757987916E+02  0.21059204019E+02  0.14269043590E+03  0.12509000000E+03 0.  0.
         25    1    3    3    0    0  0.50370242347E+02 -0.10104535043E+03 -0.21708960476E+01  0.16852164564E+03  0.12509000000E+03 0.  0.
         25    1    4    4    0    0 -0.41654433540E+02  0.36287362517E+02  0.92967446701E+02  0.16535512922E+03  0.12509000000E+03 0.  0.
<mgrwt>
<rscale>  2 0.46325435E+03</rscale>
<asrwt>0</asrwt>
<pdfrwt beam="1">  1       21 0.43266395E-01 0.46325435E+03</pdfrwt>
<pdfrwt beam="2">  1       21 0.26817019E-01 0.46325435E+03</pdfrwt>
<totfact> 0.62740199E+04</totfact>
</mgrwt>
</event>
<event>
 7    0  0.4737014E-002  0.4573474E+03  0.7546771E-02  0.1025553E+00
         21   -1    0    0  502  501  0.00000000000E+00  0.00000000000E+00  0.21890512924E+02  0.21890512924E+02  0.00000000000E+00 0. -1.
         21   -1    0    0  501  502 -0.00000000000E+00 -0.00000000000E+00 -0.23887815515E+04  0.23887815515E+04  0.00000000000E+00 0. -1.
      99926    2    1    2    0    0  0.00000000000E+00  0.00000000000E+00 -0.23668910386E+04  0.24106720645E+04  0.45734736657E+03 0.  0.
      99925    2    3    3    0    0 -0.10329553372E+03 -0.35737231030E+02 -0.16809910862E+04  0.17049431011E+04  0.26296925483E+03 0.  0.
         25    1    4    4    0    0 -0.13007479017E+02 -0.12017343826E+02 -0.86234363183E+03  0.87154899949E+03  0.12509000000E+03 0.  0.
         25    1    3    3    0    0  0.10329553372E+03  0.35737231030E+02 -0.68589995237E+03  0.70572896337E+03  0.12509000000E+03 0.  0.
         25    1    4    4    0    0 -0.90288054703E+02 -0.23719887204E+02 -0.81864745441E+03  0.83339410160E+03  0.12509000000E+03 0.  0.
<mgrwt>
<rscale>  2 0.45734737E+03</rscale>
<asrwt>0</asrwt>
<pdfrwt beam="1">  1       21 0.32191939E-02 0.45734737E+03</pdfrwt>
<pdfrwt beam="2">  1       21 0.35129131E+00 0.45734737E+03</pdfrwt>
<totfact> 0.79434962E+03</totfact>
</mgrwt>
</event>
<event>
 7    0  0.4737014E-002  0.4270358E+03  0.7546771E-02  0.1034800E+00
         21   -1    0    0  502  501  0.00000000000E+00  0.00000000000E+00  0.21044333458E+03  0.21044333458E+03  0.00000000000E+00 0.  1.
         21   -1    0    0  501  502 -0.00000000000E+00 -0.00000000000E+00 -0.21663742042E+03  0.21663742042E+03  0.00000000000E+00 0.  1.
      99926    2    1    2    0    0  0.00000000000E+00  0.00000000000E+00 -0.61940858370E+01  0.42708075499E+03  0.42703583525E+03 0.  0.
      99925    2    3    3    0    0 -0.36882818251E+02 -0.74077845491E+02 -0.20611864207E+02  0.27640477845E+03  0.26291991771E+03 0.  0.
         25    1    4    4    0    0 -0.25928267309E+02 -0.49787220744E+02 -0.48627489781E+02  0.14547571363E+03  0.12509000000E+03 0.  0.
         25    1    3    3    0    0  0.36882818251E+02  0.74077845491E+02  0.14417778370E+02  0.15067597655E+03  0.12509000000E+03 0.  0.
         25    1    4    4    0    0 -0.10954550942E+02 -0.24290624747E+02  0.28015625573E+02  0.13092906481E+03  0.12509000000E+03 0.  0.
<mgrwt>
<rscale>  2 0.42703584E+03</rscale>
<asrwt>0</asrwt>
<pdfrwt beam="1">  1       21 0.30947549E-01 0.42703584E+03</pdfrwt>
<pdfrwt beam="2">  1       21 0.31858444E-01 0.42703584E+03</pdfrwt>
<totfact> 0.88877650E+04</totfact>
</mgrwt>
</event>
<event>
 7    0  0.4737014E-002  0.4555400E+03  0.7546771E-02  0.1026083E+00
         21   -1    0    0  502  501  0.00000000000E+00  0.00000000000E+00  0.73386108300E+02  0.73386108300E+02  0.00000000000E+00 0.  1.
         21   -1    0    0  501  502 -0.00000000000E+00 -0.00000000000E+00 -0.70693450272E+03  0.70693450272E+03  0.00000000000E+00 0.  1.
      99926    2    1    2    0    0  0.00000000000E+00 -0.31086244690E-14 -0.63354839442E+03  0.78032061102E+03  0.45553999595E+03 0.  0.
      99925    2    3    3    0    0 -0.88771132642E+01 -0.27666131313E+01 -0.59254709675E+03  0.64835443430E+03  0.26299230659E+03 0.  0.
         25    1    4    4    0    0 -0.83806109987E+01 -0.37769633459E+02 -0.34042613278E+03  0.36473859109E+03  0.12509000000E+03 0.  0.
         25    1    4    4    0    0 -0.49650226549E+00  0.35003020327E+02 -0.25212096397E+03  0.28361584321E+03  0.12509000000E+03 0.  0.
         25    1    3    3    0    0  0.88771132642E+01  0.27666131313E+01 -0.41001297677E+02  0.13196617672E+03  0.12509000000E+03 0.  0.
<mgrwt>
<rscale>  2 0.45554000E+03</rscale>
<asrwt>0</asrwt>
<pdfrwt beam="1">  1       21 0.10792075E-01 0.45554000E+03</pdfrwt>
<pdfrwt beam="2">  1       21 0.10396095E+00 0.45554000E+03</pdfrwt>
<totfact> 0.48525445E+04</totfact>
</mgrwt>
</event>
<event>
 7    0  0.4737014E-002  0.4494786E+03  0.7546771E-02  0.1027878E+00
         21   -1    0    0  502  501  0.00000000000E+00  0.00000000000E+00  0.15718435981E+03  0.15718435981E+03  0.00000000000E+00 0. -1.
         21   -1    0    0  501  502 -0.00000000000E+00 -0.00000000000E+00 -0.32132806974E+03  0.32132806974E+03  0.00000000000E+00 0. -1.
      99926    2    1    2    0    0  0.00000000000E+00  0.00000000000E+00 -0.16414370993E+03  0.47851242956E+03  0.44947857316E+03 0.  0.
      99925    2    3    3    0    0  0.10691477390E+03  0.94985273167E+01 -0.91963414208E+02  0.29857217811E+03  0.26299635947E+03 0.  0.
         25    1    4    4    0    0  0.29750093765E+02  0.31963343839E+02 -0.22212778747E+02  0.13434150166E+03  0.12509000000E+03 0.  0.
         25    1    3    3    0    0 -0.10691477390E+03 -0.94985273167E+01 -0.72180295718E+02  0.17994025144E+03  0.12509000000E+03 0.  0.
         25    1    4    4    0    0  0.77164680134E+02 -0.22464816522E+02 -0.69750635461E+02  0.16423067645E+03  0.12509000000E+03 0.  0.
<mgrwt>
<rscale>  2 0.44947857E+03</rscale>
<asrwt>0</asrwt>
<pdfrwt beam="1">  1       21 0.23115347E-01 0.44947857E+03</pdfrwt>
<pdfrwt beam="2">  1       21 0.47254127E-01 0.44947857E+03</pdfrwt>
<totfact> 0.69818748E+04</totfact>
</mgrwt>
</event>
<event>
 7    0  0.4737014E-002  0.4549976E+03  0.7546771E-02  0.1026242E+00
         21   -1    0    0  502  501  0.00000000000E+00  0.00000000000E+00  0.14014731964E+03  0.14014731964E+03  0.00000000000E+00 0. -1.
         21   -1    0    0  501  502 -0.00000000000E+00 -0.00000000000E+00 -0.36929507008E+03  0.36929507008E+03  0.00000000000E+00 0. -1.
      99926    2    1    2    0    0  0.00000000000E+00 -0.35527136788E-14 -0.22914775045E+03  0.50944238972E+03  0.45499764495E+03 0.  0.
      99925    2    3    3    0    0 -0.10930335714E+03 -0.29016290624E+02 -0.14012824603E+03  0.31875639320E+03  0.26302194560E+03 0.  0.
         25    1    3    3    0    0  0.10930335714E+03  0.29016290624E+02 -0.89019504414E+02  0.19068599652E+03  0.12509000000E+03 0.  0.
         25    1    4    4    0    0 -0.31827263314E+02  0.33467688711E-01 -0.10061811590E+03  0.16365967481E+03  0.12509000000E+03 0.  0.
         25    1    4    4    0    0 -0.77476093828E+02 -0.29049758312E+02 -0.39510130129E+02  0.15509671839E+03  0.12509000000E+03 0.  0.
<mgrwt>
<rscale>  2 0.45499764E+03</rscale>
<asrwt>0</asrwt>
<pdfrwt beam="1">  1       21 0.20609900E-01 0.45499764E+03</pdfrwt>
<pdfrwt beam="2">  1       21 0.54308098E-01 0.45499764E+03</pdfrwt>
<totfact> 0.64613473E+04</totfact>
</mgrwt>
</event>
<event>
 7    0  0.4737014E-002  0.4450679E+03  0.7546771E-02  0.1029203E+00
         21   -1    0    0  502  501  0.00000000000E+00  0.00000000000E+00  0.13118497278E+04  0.13118497278E+04  0.00000000000E+00 0.  1.
         21   -1    0    0  501  502 -0.00000000000E+00 -0.00000000000E+00 -0.37749254621E+02  0.37749254621E+02  0.00000000000E+00 0.  1.
      99926    2    1    2    0    0  0.00000000000E+00  0.00000000000E+00  0.12741004732E+04  0.13495989824E+04  0.44506785730E+03 0.  0.
      99925    2    3    3    0    0 -0.10099162661E+03  0.21805303966E+02  0.82985587341E+03  0.87665548426E+03  0.26303856662E+03 0.  0.
         25    1    3    3    0    0  0.10099162661E+03 -0.21805303966E+02  0.44424459979E+03  0.47294349818E+03  0.12509000000E+03 0.  0.
         25    1    4    4    0    0 -0.88570746258E+02  0.51976187633E+01  0.51086758846E+03  0.53339009493E+03  0.12509000000E+03 0.  0.
         25    1    4    4    0    0 -0.12420880357E+02  0.16607685202E+02  0.31898828495E+03  0.34326538933E+03  0.12509000000E+03 0.  0.
<mgrwt>
<rscale>  2 0.44506786E+03</rscale>
<asrwt>0</asrwt>
<pdfrwt beam="1">  1       21 0.19291905E+00 0.44506786E+03</pdfrwt>
<pdfrwt beam="2">  1       21 0.55513618E-02 0.44506786E+03</pdfrwt>
<totfact> 0.29953286E+04</totfact>
</mgrwt>
</event>
<event>
 7    0  0.4737014E-002  0.4110729E+03  0.7546771E-02  0.1040012E+00
         21   -1    0    0  502  501  0.00000000000E+00  0.00000000000E+00  0.45383928151E+03  0.45383928151E+03  0.00000000000E+00 0.  1.
         21   -1    0    0  501  502 -0.00000000000E+00 -0.00000000000E+00 -0.93084124382E+02  0.93084124382E+02  0.00000000000E+00 0.  1.
      99926    2    1    2    0    0  0.00000000000E+00  0.00000000000E+00  0.36075515713E+03  0.54692340589E+03  0.41107289927E+03 0.  0.
      99925    2    3    3    0    0  0.52959804347E+02 -0.11984189255E+02  0.28234689369E+03  0.38962202146E+03  0.26293951692E+03 0.  0.
         25    1    3    3    0    0 -0.52959804347E+02  0.11984189255E+02  0.78408263433E+02  0.15730138443E+03  0.12509000000E+03 0.  0.
         25    1    4    4    0    0  0.49478106253E+02 -0.34732855647E+02  0.12150857694E+03  0.18457057358E+03  0.12509000000E+03 0.  0.
         25    1    4    4    0    0  0.34816980946E+01  0.22748666392E+02  0.16083831675E+03  0.20505144788E+03  0.12509000000E+03 0.  0.
<mgrwt>
<rscale>  2 0.41107290E+03</rscale>
<asrwt>0</asrwt>
<pdfrwt beam="1">  1       21 0.66741070E-01 0.41107290E+03</pdfrwt>
<pdfrwt beam="2">  1       21 0.13688842E-01 0.41107290E+03</pdfrwt>
<totfact> 0.89287501E+04</totfact>
</mgrwt>
</event>
<event>
 7    0  0.4737014E-002  0.4563400E+03  0.7546771E-02  0.1025848E+00
         21   -1    0    0  502  501  0.00000000000E+00  0.00000000000E+00  0.13502102508E+04  0.13502102508E+04  0.00000000000E+00 0. -1.
         21   -1    0    0  501  502 -0.00000000000E+00 -0.00000000000E+00 -0.38558113145E+02  0.38558113145E+02  0.00000000000E+00 0. -1.
      99926    2    1    2    0    0  0.00000000000E+00 -0.17763568394E-14  0.13116521376E+04  0.13887683639E+04  0.45634004698E+03 0.  0.
      99925    2    3    3    0    0  0.75622304658E+02  0.11262548207E+02  0.56477170123E+03  0.62763534510E+03  0.26289441599E+03 0.  0.
         25    1    3    3    0    0 -0.75622304658E+02 -0.11262548207E+02  0.74688043639E+03  0.76113301881E+03  0.12509000000E+03 0.  0.
         25    1    4    4    0    0  0.99374052061E+01 -0.21565008517E+02  0.23242926514E+03  0.26501825033E+03  0.12509000000E+03 0.  0.
         25    1    4    4    0    0  0.65684899452E+02  0.32827556724E+02  0.33234243609E+03  0.36261709478E+03  0.12509000000E+03 0.  0.
<mgrwt>
<rscale>  2 0.45634005E+03</rscale>
<asrwt>0</asrwt>
<pdfrwt beam="1">  1       21 0.19856030E+00 0.45634005E+03</pdfrwt>
<pdfrwt beam="2">  1       21 0.56703117E-02 0.45634005E+03</pdfrwt>
<totfact> 0.26357288E+04</totfact>
</mgrwt>
</event>
<event>
 7    0  0.4737014E-002  0.4655310E+03  0.7546771E-02  0.1023189E+00
         21   -1    0    0  502  501  0.00000000000E+00  0.00000000000E+00  0.36260296445E+03  0.36260296445E+03  0.00000000000E+00 0.  1.
         21   -1    0    0  501  502 -0.00000000000E+00 -0.00000000000E+00 -0.14941904127E+03  0.14941904127E+03  0.00000000000E+00 0.  1.
      99926    2    1    2    0    0  0.00000000000E+00  0.00000000000E+00  0.21318392318E+03  0.51202200572E+03  0.46553104003E+03 0.  0.
      99925    2    3    3    0    0  0.11464998673E+03  0.32355460416E+02  0.99845539286E+02  0.30541950660E+03  0.26290767965E+03 0.  0.
         25    1    4    4    0    0  0.82892433200E+02  0.81376736510E+01  0.19664204405E+02  0.15156373659E+03  0.12509000000E+03 0.  0.
         25    1    4    4    0    0  0.31757553535E+02  0.24217786765E+02  0.80181334882E+02  0.15385577001E+03  0.12509000000E+03 0.  0.
         25    1    3    3    0    0 -0.11464998673E+03 -0.32355460416E+02  0.11333838389E+03  0.20660249911E+03  0.12509000000E+03 0.  0.
<mgrwt>
<rscale>  2 0.46553104E+03</rscale>
<asrwt>0</asrwt>
<pdfrwt beam="1">  1       21 0.53323965E-01 0.46553104E+03</pdfrwt>
<pdfrwt beam="2">  1       21 0.21973388E-01 0.46553104E+03</pdfrwt>
<totfact> 0.59318648E+04</totfact>
</mgrwt>
</event>
<event>
 7    0  0.4737014E-002  0.4556979E+03  0.7546771E-02  0.1026036E+00
         21   -1    0    0  502  501  0.00000000000E+00  0.00000000000E+00  0.82021959321E+03  0.82021959321E+03  0.00000000000E+00 0.  1.
         21   -1    0    0  501  502 -0.00000000000E+00 -0.00000000000E+00 -0.63294209422E+02  0.63294209422E+02  0.00000000000E+00 0.  1.
      99926    2    1    2    0    0  0.00000000000E+00  0.00000000000E+00  0.75692538379E+03  0.88351380263E+03  0.45569792935E+03 0.  0.
      99925    2    3    3    0    0 -0.44723276209E+02 -0.53510850573E+02  0.30166307983E+03  0.40625616145E+03  0.26302066918E+03 0.  0.
         25    1    4    4    0    0 -0.54688829018E+02 -0.50025191784E+02  0.18060467882E+03  0.23185975490E+03  0.12509000000E+03 0.  0.
         25    1    3    3    0    0  0.44723276209E+02  0.53510850573E+02  0.45526230396E+03  0.47725764118E+03  0.12509000000E+03 0.  0.
         25    1    4    4    0    0  0.99655528084E+01 -0.34856587893E+01  0.12105840101E+03  0.17439640654E+03  0.12509000000E+03 0.  0.
<mgrwt>
<rscale>  2 0.45569793E+03</rscale>
<asrwt>0</asrwt>
<pdfrwt beam="1">  1       21 0.12062052E+00 0.45569793E+03</pdfrwt>
<pdfrwt beam="2">  1       21 0.93079724E-02 0.45569793E+03</pdfrwt>
<totfact> 0.43714767E+04</totfact>
</mgrwt>
</event>
<event>
 7    0  0.4737014E-002  0.4581722E+03  0.7546771E-02  0.1025313E+00
         21   -1    0    0  502  501  0.00000000000E+00  0.00000000000E+00  0.90220061777E+02  0.90220061777E+02  0.00000000000E+00 0.  1.
         21   -1    0    0  501  502 -0.00000000000E+00 -0.00000000000E+00 -0.58169374070E+03  0.58169374070E+03  0.00000000000E+00 0.  1.
      99926    2    1    2    0    0 -0.14210854715E-13 -0.14210854715E-13 -0.49147367892E+03  0.67191380247E+03  0.45817221749E+03 0.  0.
      99925    2    3    3    0    0  0.80427345136E+02  0.67082260027E+02 -0.38198966879E+03  0.47543773770E+03  0.26297594549E+03 0.  0.
         25    1    4    4    0    0  0.63348254178E+00  0.38843848299E+02 -0.19785475624E+03  0.23728307676E+03  0.12509000000E+03 0.  0.
         25    1    4    4    0    0  0.79793862594E+02  0.28238411728E+02 -0.18413491255E+03  0.23815466094E+03  0.12509000000E+03 0.  0.
         25    1    3    3    0    0 -0.80427345136E+02 -0.67082260027E+02 -0.10948401013E+03  0.19647606477E+03  0.12509000000E+03 0.  0.
<mgrwt>
<rscale>  2 0.45817222E+03</rscale>
<asrwt>0</asrwt>
<pdfrwt beam="1">  1       21 0.13267656E-01 0.45817222E+03</pdfrwt>
<pdfrwt beam="2">  1       21 0.85543198E-01 0.45817222E+03</pdfrwt>
<totfact> 0.53114063E+04</totfact>
</mgrwt>
</event>
<event>
 7    0  0.4737014E-002  0.4547798E+03  0.7546771E-02  0.1026306E+00
         21   -1    0    0  502  501  0.00000000000E+00  0.00000000000E+00  0.23575569691E+03  0.23575569691E+03  0.00000000000E+00 0. -1.
         21   -1    0    0  501  502 -0.00000000000E+00 -0.00000000000E+00 -0.21932096236E+03  0.21932096236E+03  0.00000000000E+00 0. -1.
      99926    2    1    2    0    0  0.00000000000E+00  0.00000000000E+00  0.16434734553E+02  0.45507665927E+03  0.45477979871E+03 0.  0.
      99925    2    3    3    0    0  0.74310946527E+02  0.72281115573E+02 -0.34580202355E+02  0.28479246057E+03  0.26299102410E+03 0.  0.
         25    1    4    4    0    0  0.89312923315E+01  0.37669865130E+02  0.13692663203E+02  0.13165782866E+03  0.12509000000E+03 0.  0.
         25    1    3    3    0    0 -0.74310946527E+02 -0.72281115573E+02  0.51014936908E+02  0.17028419871E+03  0.12509000000E+03 0.  0.
         25    1    4    4    0    0  0.65379654195E+02  0.34611250444E+02 -0.48272865558E+02  0.15313463191E+03  0.12509000000E+03 0.  0.
<mgrwt>
<rscale>  2 0.45477980E+03</rscale>
<asrwt>0</asrwt>
<pdfrwt beam="1">  1       21 0.34669956E-01 0.45477980E+03</pdfrwt>
<pdfrwt beam="2">  1       21 0.32253082E-01 0.45477980E+03</pdfrwt>
<totfact> 0.68660748E+04</totfact>
</mgrwt>
</event>
<event>
 7    0  0.4737014E-002  0.4828401E+03  0.7546771E-02  0.1018358E+00
         21   -1    0    0  502  501  0.00000000000E+00  0.00000000000E+00  0.24803726144E+03  0.24803726144E+03  0.00000000000E+00 0.  1.
         21   -1    0    0  501  502 -0.00000000000E+00 -0.00000000000E+00 -0.23497939409E+03  0.23497939409E+03  0.00000000000E+00 0.  1.
      99926    2    1    2    0    0  0.00000000000E+00  0.00000000000E+00  0.13057867345E+02  0.48301665553E+03  0.48284012014E+03 0.  0.
      99925    2    3    3    0    0 -0.23466319027E+02  0.13641875916E+03  0.96845414606E+01  0.29641645883E+03  0.26193163372E+03 0.  0.
         25    1    4    4    0    0 -0.22594559271E+02  0.10830621983E+03  0.17818303918E+02  0.16794567996E+03  0.12509000000E+03 0.  0.
         25    1    3    3    0    0  0.23466319027E+02 -0.13641875916E+03  0.33733258840E+01  0.18660019669E+03  0.12509000000E+03 0.  0.
         25    1    4    4    0    0 -0.87175975563E+00  0.28112539330E+02 -0.81337624569E+01  0.12847077887E+03  0.12509000000E+03 0.  0.
<mgrwt>
<rscale>  2 0.48284012E+03</rscale>
<asrwt>0</asrwt>
<pdfrwt beam="1">  1       21 0.36476068E-01 0.48284012E+03</pdfrwt>
<pdfrwt beam="2">  1       21 0.34555793E-01 0.48284012E+03</pdfrwt>
<totfact> 0.53605730E+04</totfact>
</mgrwt>
</event>
<event>
 7    0  0.4737014E-002  0.4619128E+03  0.7546771E-02  0.1024228E+00
         21   -1    0    0  502  501  0.00000000000E+00  0.00000000000E+00  0.22645785374E+03  0.22645785374E+03  0.00000000000E+00 0. -1.
         21   -1    0    0  501  502 -0.00000000000E+00 -0.00000000000E+00 -0.23554427897E+03  0.23554427897E+03  0.00000000000E+00 0. -1.
      99926    2    1    2    0    0  0.00000000000E+00 -0.71054273576E-14 -0.90864252306E+01  0.46200213270E+03  0.46191277044E+03 0.  0.
      99925    2    3    3    0    0 -0.10120531957E+03  0.63201595230E+02  0.19479110634E+01  0.28877908855E+03  0.26296883708E+03 0.  0.
         25    1    4    4    0    0 -0.10004188557E+02  0.18082411969E+02 -0.93920092837E+01  0.12713290428E+03  0.12509000000E+03 0.  0.
         25    1    3    3    0    0  0.10120531957E+03 -0.63201595230E+02 -0.11034336294E+02  0.17322304415E+03  0.12509000000E+03 0.  0.
         25    1    4    4    0    0 -0.91201131011E+02  0.45119183261E+02  0.11339920347E+02  0.16164618427E+03  0.12509000000E+03 0.  0.
<mgrwt>
<rscale>  2 0.46191277E+03</rscale>
<asrwt>0</asrwt>
<pdfrwt beam="1">  1       21 0.33302626E-01 0.46191277E+03</pdfrwt>
<pdfrwt beam="2">  1       21 0.34638864E-01 0.46191277E+03</pdfrwt>
<totfact> 0.64409256E+04</totfact>
</mgrwt>
</event>
<event>
 7    0  0.4737014E-002  0.4508134E+03  0.7546771E-02  0.1027480E+00
         21   -1    0    0  502  501  0.00000000000E+00  0.00000000000E+00  0.36573156587E+03  0.36573156587E+03  0.00000000000E+00 0. -1.
         21   -1    0    0  501  502 -0.00000000000E+00 -0.00000000000E+00 -0.13892202890E+03  0.13892202890E+03  0.00000000000E+00 0. -1.
      99926    2    1    2    0    0  0.35527136788E-14  0.00000000000E+00  0.22680953697E+03  0.50465359477E+03  0.45081335901E+03 0.  0.
      99925    2    3    3    0    0 -0.19731471954E+02 -0.67658299003E+02  0.23662519559E+03  0.36074101136E+03  0.26301258085E+03 0.  0.
         25    1    4    4    0    0 -0.23349596629E+02 -0.60883020750E+02  0.16228645281E+03  0.21502638616E+03  0.12509000000E+03 0.  0.
         25    1    3    3    0    0  0.19731471954E+02  0.67658299003E+02 -0.98156586199E+01  0.14391258341E+03  0.12509000000E+03 0.  0.
         25    1    4    4    0    0  0.36181246751E+01 -0.67752782531E+01  0.74338742778E+02  0.14571462521E+03  0.12509000000E+03 0.  0.
<mgrwt>
<rscale>  2 0.45081336E+03</rscale>
<asrwt>0</asrwt>
<pdfrwt beam="1">  1       21 0.53784054E-01 0.45081336E+03</pdfrwt>
<pdfrwt beam="2">  1       21 0.20429710E-01 0.45081336E+03</pdfrwt>
<totfact> 0.67148645E+04</totfact>
</mgrwt>
</event>
<event>
 7    0  0.4737014E-002  0.4497982E+03  0.7546771E-02  0.1027782E+00
         21   -1    0    0  502  501  0.00000000000E+00  0.00000000000E+00  0.45527873974E+03  0.45527873974E+03  0.00000000000E+00 0. -1.
         21   -1    0    0  501  502 -0.00000000000E+00 -0.00000000000E+00 -0.11109590346E+03  0.11109590346E+03  0.00000000000E+00 0. -1.
      99926    2    1    2    0    0  0.00000000000E+00  0.00000000000E+00  0.34418283629E+03  0.56637464320E+03  0.44979818993E+03 0.  0.
      99925    2    3    3    0    0 -0.71875287652E+02  0.22553678849E+02  0.31537834603E+03  0.41753939145E+03  0.26306067145E+03 0.  0.
         25    1    4    4    0    0 -0.46434939305E+02  0.13045928207E+02  0.22106794820E+03  0.25854389502E+03  0.12509000000E+03 0.  0.
         25    1    3    3    0    0  0.71875287652E+02 -0.22553678849E+02  0.28804490260E+02  0.14883525175E+03  0.12509000000E+03 0.  0.
         25    1    4    4    0    0 -0.25440348347E+02  0.95077506413E+01  0.94310397822E+02  0.15899549643E+03  0.12509000000E+03 0.  0.
<mgrwt>
<rscale>  2 0.44979819E+03</rscale>
<asrwt>0</asrwt>
<pdfrwt beam="1">  1       21 0.66952755E-01 0.44979819E+03</pdfrwt>
<pdfrwt beam="2">  1       21 0.16337633E-01 0.44979819E+03</pdfrwt>
<totfact> 0.63363995E+04</totfact>
</mgrwt>
</event>
<event>
 7    0  0.4737014E-002  0.4573556E+03  0.7546771E-02  0.1025551E+00
         21   -1    0    0  502  501  0.00000000000E+00  0.00000000000E+00  0.65120371846E+03  0.65120371846E+03  0.00000000000E+00 0. -1.
         21   -1    0    0  501  502 -0.00000000000E+00 -0.00000000000E+00 -0.80302871653E+02  0.80302871653E+02  0.00000000000E+00 0. -1.
      99926    2    1    2    0    0 -0.14210854715E-13  0.00000000000E+00  0.57090084680E+03  0.73150659011E+03  0.45735556681E+03 0.  0.
      99925    2    3    3    0    0  0.91452670352E+02 -0.54625542935E+01  0.47072169727E+03  0.54690756380E+03  0.26293637376E+03 0.  0.
         25    1    3    3    0    0 -0.91452670352E+02  0.54625542935E+01  0.10017914953E+03  0.18459902631E+03  0.12509000000E+03 0.  0.
         25    1    4    4    0    0  0.60109626690E+02 -0.52042359001E+01  0.16873459141E+03  0.21853860467E+03  0.12509000000E+03 0.  0.
         25    1    4    4    0    0  0.31343043661E+02 -0.25831839345E+00  0.30198710586E+03  0.32836895913E+03  0.12509000000E+03 0.  0.
<mgrwt>
<rscale>  2 0.45735557E+03</rscale>
<asrwt>0</asrwt>
<pdfrwt beam="1">  1       21 0.95765250E-01 0.45735557E+03</pdfrwt>
<pdfrwt beam="2">  1       21 0.11809246E-01 0.45735557E+03</pdfrwt>
<totfact> 0.50287605E+04</totfact>
</mgrwt>
</event>
<event>
 7    0  0.4737014E-002  0.4517849E+03  0.7546771E-02  0.1027191E+00
         21   -1    0    0  502  501  0.00000000000E+00  0.00000000000E+00  0.16489474003E+03  0.16489474003E+03  0.00000000000E+00 0. -1.
         21   -1    0    0  501  502 -0.00000000000E+00 -0.00000000000E+00 -0.30945432123E+03  0.30945432123E+03  0.00000000000E+00 0. -1.
      99926    2    1    2    0    0  0.00000000000E+00  0.00000000000E+00 -0.14455958120E+03  0.47434906127E+03  0.45178485965E+03 0.  0.
      99925    2    3    3    0    0  0.39753543621E+02  0.85293457381E+02 -0.31128201199E+02  0.28103712637E+03  0.26297829452E+03 0.  0.
         25    1    4    4    0    0 -0.54369320975E+01  0.74429268686E+02 -0.21589113868E+02  0.14725105842E+03  0.12509000000E+03 0.  0.
         25    1    3    3    0    0 -0.39753543621E+02 -0.85293457381E+02 -0.11343138000E+03  0.19331193489E+03  0.12509000000E+03 0.  0.
         25    1    4    4    0    0  0.45190475718E+02  0.10864188695E+02 -0.95390873310E+01  0.13378606795E+03  0.12509000000E+03 0.  0.
<mgrwt>
<rscale>  2 0.45178486E+03</rscale>
<asrwt>0</asrwt>
<pdfrwt beam="1">  1       21 0.24249227E-01 0.45178486E+03</pdfrwt>
<pdfrwt beam="2">  1       21 0.45507988E-01 0.45178486E+03</pdfrwt>
<totfact> 0.68853999E+04</totfact>
</mgrwt>
</event>
<event>
 7    0  0.4737014E-002  0.4578019E+03  0.7546771E-02  0.1025421E+00
         21   -1    0    0  502  501  0.00000000000E+00  0.00000000000E+00  0.14271687956E+03  0.14271687956E+03  0.00000000000E+00 0. -1.
         21   -1    0    0  501  502 -0.00000000000E+00 -0.00000000000E+00 -0.36713000693E+03  0.36713000693E+03  0.00000000000E+00 0. -1.
      99926    2    1    2    0    0  0.00000000000E+00  0.00000000000E+00 -0.22441312737E+03  0.50984688649E+03  0.45780191778E+03 0.  0.
      99925    2    3    3    0    0 -0.89087773021E+02 -0.33152153339E+02 -0.21439396232E+03  0.35241884470E+03  0.26305621917E+03 0.  0.
         25    1    4    4    0    0 -0.40204939629E+02  0.24312555083E+02 -0.10301547645E+03  0.16872235772E+03  0.12509000000E+03 0.  0.
         25    1    4    4    0    0 -0.48882833392E+02 -0.57464708421E+02 -0.11137848587E+03  0.18369648698E+03  0.12509000000E+03 0.  0.
         25    1    3    3    0    0  0.89087773021E+02  0.33152153339E+02 -0.10019165054E+02  0.15742804179E+03  0.12509000000E+03 0.  0.
<mgrwt>
<rscale>  2 0.45780192E+03</rscale>
<asrwt>0</asrwt>
<pdfrwt beam="1">  1       21 0.20987776E-01 0.45780192E+03</pdfrwt>
<pdfrwt beam="2">  1       21 0.53989707E-01 0.45780192E+03</pdfrwt>
<totfact> 0.63167827E+04</totfact>
</mgrwt>
</event>
<event>
 7    0  0.4737014E-002  0.4530997E+03  0.7546771E-02  0.1026802E+00
         21   -1    0    0  502  501  0.00000000000E+00  0.00000000000E+00  0.37351702775E+02  0.37351702775E+02  0.00000000000E+00 0. -1.
         21   -1    0    0  501  502 -0.00000000000E+00 -0.00000000000E+00 -0.13740962918E+04  0.13740962918E+04  0.00000000000E+00 0. -1.
      99926    2    1    2    0    0  0.17763568394E-14  0.00000000000E+00 -0.13367445890E+04  0.14114479946E+04  0.45309970769E+03 0.  0.
      99925    2    3    3    0    0 -0.53962101135E+01 -0.77749365122E+02 -0.10902968534E+04  0.11242928495E+04  0.26308382694E+03 0.  0.
         25    1    4    4    0    0  0.17131452983E+02 -0.47651984006E+02 -0.69482533671E+03  0.70780926449E+03  0.12509000000E+03 0.  0.
         25    1    3    3    0    0  0.53962101135E+01  0.77749365122E+02 -0.24644773562E+03  0.28715514509E+03  0.12509000000E+03 0.  0.
         25    1    4    4    0    0 -0.22527663097E+02 -0.30097381115E+02 -0.39547151671E+03  0.41648358501E+03  0.12509000000E+03 0.  0.
<mgrwt>
<rscale>  2 0.45309971E+03</rscale>
<asrwt>0</asrwt>
<pdfrwt beam="1">  1       21 0.54928972E-02 0.45309971E+03</pdfrwt>
<pdfrwt beam="2">  1       21 0.20207299E+00 0.45309971E+03</pdfrwt>
<totfact> 0.26416465E+04</totfact>
</mgrwt>
</event>
<event>
 7    0  0.4737014E-002  0.4796457E+03  0.7546771E-02  0.1019233E+00
         21   -1    0    0  502  501  0.00000000000E+00  0.00000000000E+00  0.77586134234E+03  0.77586134234E+03  0.00000000000E+00 0. -1.
         21   -1    0    0  501  502 -0.00000000000E+00 -0.00000000000E+00 -0.74130501566E+02  0.74130501566E+02  0.00000000000E+00 0. -1.
      99926    2    1    2    0    0 -0.44408920985E-14  0.00000000000E+00  0.70173084077E+03  0.84999184390E+03  0.47964566277E+03 0.  0.
      99925    2    3    3    0    0 -0.67680041759E+01 -0.12713226252E+03  0.36186285705E+03  0.46610882460E+03  0.26477214921E+03 0.  0.
         25    1    3    3    0    0  0.67680041759E+01  0.12713226252E+03  0.33986798372E+03  0.38388301930E+03  0.12509000000E+03 0.  0.
         25    1    4    4    0    0  0.32177955796E+02 -0.52860060129E+02  0.21070698453E+03  0.25273414535E+03  0.12509000000E+03 0.  0.
         25    1    4    4    0    0 -0.38945959972E+02 -0.74272202392E+02  0.15115587252E+03  0.21337467925E+03  0.12509000000E+03 0.  0.
<mgrwt>
<rscale>  2 0.47964566E+03</rscale>
<asrwt>0</asrwt>
<pdfrwt beam="1">  1       21 0.11409725E+00 0.47964566E+03</pdfrwt>
<pdfrwt beam="2">  1       21 0.10901545E-01 0.47964566E+03</pdfrwt>
<totfact> 0.37620981E+04</totfact>
</mgrwt>
</event>
<event>
 7    0  0.4737014E-002  0.4301250E+03  0.7546771E-02  0.1033820E+00
         21   -1    0    0  502  501  0.00000000000E+00  0.00000000000E+00  0.15549440115E+03  0.15549440115E+03  0.00000000000E+00 0.  1.
         21   -1    0    0  501  502 -0.00000000000E+00 -0.00000000000E+00 -0.29745049522E+03  0.29745049522E+03  0.00000000000E+00 0.  1.
      99926    2    1    2    0    0 -0.71054273576E-14  0.00000000000E+00 -0.14195609407E+03  0.45294489637E+03  0.43012503589E+03 0.  0.
      99925    2    3    3    0    0 -0.54472412110E+02 -0.66905927049E+02 -0.10930518884E+03  0.29751891248E+03  0.26291867986E+03 0.  0.
         25    1    3    3    0    0  0.54472412110E+02  0.66905927049E+02 -0.32650905226E+02  0.15542598389E+03  0.12509000000E+03 0.  0.
         25    1    4    4    0    0 -0.19293570326E+02  0.73430094447E+01 -0.56700039172E+02  0.13888327540E+03  0.12509000000E+03 0.  0.
         25    1    4    4    0    0 -0.35178841784E+02 -0.74248936494E+02 -0.52605149668E+02  0.15863563708E+03  0.12509000000E+03 0.  0.
<mgrwt>
<rscale>  2 0.43012504E+03</rscale>
<asrwt>0</asrwt>
<pdfrwt beam="1">  1       21 0.22866824E-01 0.43012504E+03</pdfrwt>
<pdfrwt beam="2">  1       21 0.43742720E-01 0.43012504E+03</pdfrwt>
<totfact> 0.84145486E+04</totfact>
</mgrwt>
</event>
<event>
 7    0  0.4737014E-002  0.4502087E+03  0.7546771E-02  0.1027660E+00
         21   -1    0    0  502  501  0.00000000000E+00  0.00000000000E+00  0.24818077025E+03  0.24818077025E+03  0.00000000000E+00 0.  1.
         21   -1    0    0  501  502 -0.00000000000E+00 -0.00000000000E+00 -0.20417363679E+03  0.20417363679E+03  0.00000000000E+00 0.  1.
      99926    2    1    2    0    0  0.00000000000E+00 -0.71054273576E-14  0.44007133457E+02  0.45235440704E+03  0.45020870913E+03 0.  0.
      99925    2    3    3    0    0  0.96907501979E+02 -0.48512204297E+02  0.33933667470E+02  0.28654282505E+03  0.26307945358E+03 0.  0.
         25    1    3    3    0    0 -0.96907501979E+02  0.48512204297E+02  0.10073465987E+02  0.16581158199E+03  0.12509000000E+03 0.  0.
         25    1    4    4    0    0  0.37635887243E+02  0.15714769358E+02  0.85412168540E+01  0.13184792175E+03  0.12509000000E+03 0.  0.
         25    1    4    4    0    0  0.59271614736E+02 -0.64226973655E+02  0.25392450616E+02  0.15469490330E+03  0.12509000000E+03 0.  0.
<mgrwt>
<rscale>  2 0.45020871E+03</rscale>
<asrwt>0</asrwt>
<pdfrwt beam="1">  1       21 0.36497172E-01 0.45020871E+03</pdfrwt>
<pdfrwt beam="2">  1       21 0.30025535E-01 0.45020871E+03</pdfrwt>
<totfact> 0.71431909E+04</totfact>
</mgrwt>
</event>
<event>
 7    0  0.4737014E-002  0.4463561E+03  0.7546771E-02  0.1028814E+00
         21   -1    0    0  502  501  0.00000000000E+00  0.00000000000E+00  0.63304590789E+03  0.63304590789E+03  0.00000000000E+00 0. -1.
         21   -1    0    0  501  502 -0.00000000000E+00 -0.00000000000E+00 -0.78680616219E+02  0.78680616219E+02  0.00000000000E+00 0. -1.
      99926    2    1    2    0    0  0.00000000000E+00 -0.35527136788E-14  0.55436529167E+03  0.71172652411E+03  0.44635610056E+03 0.  0.
      99925    2    3    3    0    0 -0.10379296123E+03 -0.13458669936E+02  0.36091985308E+03  0.45869933109E+03  0.26303577969E+03 0.  0.
         25    1    4    4    0    0 -0.30087872580E+02  0.27934917346E+02  0.18125083732E+03  0.22402011921E+03  0.12509000000E+03 0.  0.
         25    1    3    3    0    0  0.10379296123E+03  0.13458669936E+02  0.19344543859E+03  0.25302719302E+03  0.12509000000E+03 0.  0.
         25    1    4    4    0    0 -0.73705088649E+02 -0.41393587283E+02  0.17966901576E+03  0.23467921188E+03  0.12509000000E+03 0.  0.
<mgrwt>
<rscale>  2 0.44635610E+03</rscale>
<asrwt>0</asrwt>
<pdfrwt beam="1">  1       21 0.93094984E-01 0.44635610E+03</pdfrwt>
<pdfrwt beam="2">  1       21 0.11570679E-01 0.44635610E+03</pdfrwt>
<totfact> 0.55981837E+04</totfact>
</mgrwt>
</event>
<event>
 7    0  0.4737014E-002  0.4499544E+03  0.7546771E-02  0.1027736E+00
         21   -1    0    0  502  501  0.00000000000E+00  0.00000000000E+00  0.44538164504E+02  0.44538164504E+02  0.00000000000E+00 0. -1.
         21   -1    0    0  501  502 -0.00000000000E+00 -0.00000000000E+00 -0.11364352382E+04  0.11364352382E+04  0.00000000000E+00 0. -1.
      99926    2    1    2    0    0  0.00000000000E+00 -0.44408920985E-15 -0.10918970736E+04  0.11809734027E+04  0.44995439584E+03 0.  0.
      99925    2    3    3    0    0 -0.69969193918E+02  0.21589654903E+01 -0.47306888457E+03  0.54575990711E+03  0.26298166748E+03 0.  0.
         25    1    3    3    0    0  0.69969193918E+02 -0.21589654903E+01 -0.61882818908E+03  0.63521349555E+03  0.12509000000E+03 0.  0.
         25    1    4    4    0    0 -0.51395866518E+02 -0.27208359804E+02 -0.19481832817E+03  0.23871220964E+03  0.12509000000E+03 0.  0.
         25    1    4    4    0    0 -0.18573327401E+02  0.29367325294E+02 -0.27825055640E+03  0.30704769747E+03  0.12509000000E+03 0.  0.
<mgrwt>
<rscale>  2 0.44995440E+03</rscale>
<asrwt>0</asrwt>
<pdfrwt beam="1">  1       21 0.65497292E-02 0.44995440E+03</pdfrwt>
<pdfrwt beam="2">  1       21 0.16712285E+00 0.44995440E+03</pdfrwt>
<totfact> 0.34085248E+04</totfact>
</mgrwt>
</event>
<event>
 7    0  0.4737014E-002  0.4550400E+03  0.7546771E-02  0.1026230E+00
         21   -1    0    0  502  501  0.00000000000E+00  0.00000000000E+00  0.58829834450E+03  0.58829834450E+03  0.00000000000E+00 0.  1.
         21   -1    0    0  501  502 -0.00000000000E+00 -0.00000000000E+00 -0.87991662531E+02  0.87991662531E+02  0.00000000000E+00 0.  1.
      99926    2    1    2    0    0 -0.88817841970E-15 -0.71054273576E-14  0.50030668197E+03  0.67629000703E+03  0.45503999559E+03 0.  0.
      99925    2    3    3    0    0  0.57950541577E+01  0.53768787260E+02  0.46239005290E+03  0.53483385129E+03  0.26328315999E+03 0.  0.
         25    1    4    4    0    0 -0.14804434444E+02  0.50178750797E+02  0.29637461596E+03  0.32591793353E+03  0.12509000000E+03 0.  0.
         25    1    3    3    0    0 -0.57950541577E+01 -0.53768787260E+02  0.37916629069E+02  0.14145615574E+03  0.12509000000E+03 0.  0.
         25    1    4    4    0    0  0.20599488601E+02  0.35900364628E+01  0.16601543694E+03  0.20891591776E+03  0.12509000000E+03 0.  0.
<mgrwt>
<rscale>  2 0.45504000E+03</rscale>
<asrwt>0</asrwt>
<pdfrwt beam="1">  1       21 0.86514461E-01 0.45504000E+03</pdfrwt>
<pdfrwt beam="2">  1       21 0.12939951E-01 0.45504000E+03</pdfrwt>
<totfact> 0.54192676E+04</totfact>
</mgrwt>
</event>
<event>
 7    0  0.4737014E-002  0.4566655E+03  0.7546771E-02  0.1025753E+00
         21   -1    0    0  502  501  0.00000000000E+00  0.00000000000E+00  0.71204596580E+03  0.71204596580E+03  0.00000000000E+00 0.  1.
         21   -1    0    0  501  502 -0.00000000000E+00 -0.00000000000E+00 -0.73219787866E+02  0.73219787866E+02  0.00000000000E+00 0.  1.
      99926    2    1    2    0    0  0.00000000000E+00  0.00000000000E+00  0.63882617793E+03  0.78526575366E+03  0.45666554311E+03 0.  0.
      99925    2    3    3    0    0 -0.55323723008E+02 -0.85860052106E+02  0.31194568775E+03  0.42066868040E+03  0.26309573103E+03 0.  0.
         25    1    4    4    0    0  0.92237847373E+01 -0.22227333940E+02  0.15168572792E+03  0.19807877406E+03  0.12509000000E+03 0.  0.
         25    1    4    4    0    0 -0.64547507745E+02 -0.63632718166E+02  0.16025995983E+03  0.22258990634E+03  0.12509000000E+03 0.  0.
         25    1    3    3    0    0  0.55323723008E+02  0.85860052106E+02  0.32688049018E+03  0.36459707327E+03  0.12509000000E+03 0.  0.
<mgrwt>
<rscale>  2 0.45666554E+03</rscale>
<asrwt>0</asrwt>
<pdfrwt beam="1">  1       21 0.10471264E+00 0.45666554E+03</pdfrwt>
<pdfrwt beam="2">  1       21 0.10767616E-01 0.45666554E+03</pdfrwt>
<totfact> 0.47857096E+04</totfact>
</mgrwt>
</event>
<event>
 7    0  0.4737014E-002  0.4528497E+03  0.7546771E-02  0.1026876E+00
         21   -1    0    0  502  501  0.00000000000E+00  0.00000000000E+00  0.91824067902E+02  0.91824067902E+02  0.00000000000E+00 0. -1.
         21   -1    0    0  501  502 -0.00000000000E+00 -0.00000000000E+00 -0.55833078514E+03  0.55833078514E+03  0.00000000000E+00 0. -1.
      99926    2    1    2    0    0  0.00000000000E+00  0.14210854715E-13 -0.46650671724E+03  0.65015485305E+03  0.45284966127E+03 0.  0.
      99925    2    3    3    0    0  0.36558398703E+02 -0.94918809508E+02 -0.22916648170E+03  0.36323327417E+03  0.26282130473E+03 0.  0.
         25    1    4    4    0    0  0.38808824523E+02 -0.49961017826E+02 -0.16219076222E+03  0.21437252532E+03  0.12509000000E+03 0.  0.
         25    1    4    4    0    0 -0.22504258201E+01 -0.44957791682E+02 -0.66975719473E+02  0.14886074885E+03  0.12509000000E+03 0.  0.
         25    1    3    3    0    0 -0.36558398703E+02  0.94918809508E+02 -0.23734023554E+03  0.28692157887E+03  0.12509000000E+03 0.  0.
<mgrwt>
<rscale>  2 0.45284966E+03</rscale>
<asrwt>0</asrwt>
<pdfrwt beam="1">  1       21 0.13503539E-01 0.45284966E+03</pdfrwt>
<pdfrwt beam="2">  1       21 0.82107469E-01 0.45284966E+03</pdfrwt>
<totfact> 0.56647412E+04</totfact>
</mgrwt>
</event>
<event>
 7    0  0.4737014E-002  0.4547571E+03  0.7546771E-02  0.1026313E+00
         21   -1    0    0  502  501  0.00000000000E+00  0.00000000000E+00  0.39945880908E+03  0.39945880908E+03  0.00000000000E+00 0.  1.
         21   -1    0    0  501  502 -0.00000000000E+00 -0.00000000000E+00 -0.12942763933E+03  0.12942763933E+03  0.00000000000E+00 0.  1.
      99926    2    1    2    0    0  0.00000000000E+00 -0.17763568394E-14  0.27003116975E+03  0.52888644841E+03  0.45475712493E+03 0.  0.
      99925    2    3    3    0    0  0.10920126479E+03 -0.11862900312E+02  0.20199868706E+03  0.34904882322E+03  0.26261372162E+03 0.  0.
         25    1    4    4    0    0  0.76325748392E+02 -0.37017002766E+02  0.12715914702E+03  0.19751667052E+03  0.12509000000E+03 0.  0.
         25    1    4    4    0    0  0.32875516394E+02  0.25154102455E+02  0.74839540035E+02  0.15153215270E+03  0.12509000000E+03 0.  0.
         25    1    3    3    0    0 -0.10920126479E+03  0.11862900312E+02  0.68032482689E+02  0.17983762519E+03  0.12509000000E+03 0.  0.
<mgrwt>
<rscale>  2 0.45475712E+03</rscale>
<asrwt>0</asrwt>
<pdfrwt beam="1">  1       21 0.58743942E-01 0.45475712E+03</pdfrwt>
<pdfrwt beam="2">  1       21 0.19033476E-01 0.45475712E+03</pdfrwt>
<totfact> 0.63403951E+04</totfact>
</mgrwt>
</event>
<event>
 7    0  0.4737014E-002  0.4587422E+03  0.7546771E-02  0.1025147E+00
         21   -1    0    0  502  501  0.00000000000E+00  0.00000000000E+00  0.11024279196E+04  0.11024279196E+04  0.00000000000E+00 0.  1.
         21   -1    0    0  501  502 -0.00000000000E+00 -0.00000000000E+00 -0.47722933581E+02  0.47722933581E+02  0.00000000000E+00 0.  1.
      99926    2    1    2    0    0  0.00000000000E+00  0.00000000000E+00  0.10547049860E+04  0.11501508532E+04  0.45874216891E+03 0.  0.
      99925    2    3    3    0    0 -0.10727689183E+03 -0.21010725082E+02  0.55945420873E+03  0.62778065630E+03  0.26300144233E+03 0.  0.
         25    1    4    4    0    0 -0.18029272255E+02 -0.77459677283E+01  0.30489437370E+03  0.33014109391E+03  0.12509000000E+03 0.  0.
         25    1    4    4    0    0 -0.89247619571E+02 -0.13264757354E+02  0.25455983503E+03  0.29763956238E+03  0.12509000000E+03 0.  0.
         25    1    3    3    0    0  0.10727689183E+03  0.21010725082E+02  0.49525077729E+03  0.52237019689E+03  0.12509000000E+03 0.  0.
<mgrwt>
<rscale>  2 0.45874217E+03</rscale>
<asrwt>0</asrwt>
<pdfrwt beam="1">  1       21 0.16212174E+00 0.45874217E+03</pdfrwt>
<pdfrwt beam="2">  1       21 0.70180792E-02 0.45874217E+03</pdfrwt>
<totfact> 0.32809926E+04</totfact>
</mgrwt>
</event>
<event>
 7    0  0.4737014E-002  0.4565799E+03  0.7546771E-02  0.1025778E+00
         21   -1    0    0  502  501  0.00000000000E+00  0.00000000000E+00  0.40465529458E+03  0.40465529458E+03  0.00000000000E+00 0.  1.
         21   -1    0    0  501  502 -0.00000000000E+00 -0.00000000000E+00 -0.12879181799E+03  0.12879181799E+03  0.00000000000E+00 0.  1.
      99926    2    1    2    0    0  0.14210854715E-13  0.00000000000E+00  0.27586347660E+03  0.53344711257E+03  0.45657985521E+03 0.  0.
      99925    2    3    3    0    0 -0.77286028037E+02  0.76263175704E+02  0.21643667481E+03  0.35746911687E+03  0.26296412914E+03 0.  0.
         25    1    4    4    0    0 -0.18579371424E+02  0.45177146431E+02  0.61973130208E+02  0.14789977880E+03  0.12509000000E+03 0.  0.
         25    1    3    3    0    0  0.77286028037E+02 -0.76263175704E+02  0.59426801780E+02  0.17597799569E+03  0.12509000000E+03 0.  0.
         25    1    4    4    0    0 -0.58706656613E+02  0.31086029274E+02  0.15446354461E+03  0.20956933807E+03  0.12509000000E+03 0.  0.
<mgrwt>
<rscale>  2 0.45657986E+03</rscale>
<asrwt>0</asrwt>
<pdfrwt beam="1">  1       21 0.59508131E-01 0.45657986E+03</pdfrwt>
<pdfrwt beam="2">  1       21 0.18939973E-01 0.45657986E+03</pdfrwt>
<totfact> 0.62191387E+04</totfact>
</mgrwt>
</event>
<event>
 7    0  0.4737014E-002  0.4307895E+03  0.7546771E-02  0.1033611E+00
         21   -1    0    0  502  501  0.00000000000E+00  0.00000000000E+00  0.10503231684E+03  0.10503231684E+03  0.00000000000E+00 0. -1.
         21   -1    0    0  501  502 -0.00000000000E+00 -0.00000000000E+00 -0.44172028499E+03  0.44172028499E+03  0.00000000000E+00 0. -1.
      99926    2    1    2    0    0  0.00000000000E+00  0.00000000000E+00 -0.33668796816E+03  0.54675260183E+03  0.43078953063E+03 0.  0.
      99925    2    3    3    0    0 -0.48990306374E+02 -0.69358941818E+02 -0.18483174192E+03  0.33246649757E+03  0.26298381368E+03 0.  0.
         25    1    4    4    0    0 -0.40240976774E+01 -0.15153786769E+02 -0.50319157709E+02  0.13574003222E+03  0.12509000000E+03 0.  0.
         25    1    3    3    0    0  0.48990306374E+02  0.69358941818E+02 -0.15185622624E+03  0.21428610425E+03  0.12509000000E+03 0.  0.
         25    1    4    4    0    0 -0.44966208697E+02 -0.54205155049E+02 -0.13451258421E+03  0.19672646535E+03  0.12509000000E+03 0.  0.
<mgrwt>
<rscale>  2 0.43078953E+03</rscale>
<asrwt>0</asrwt>
<pdfrwt beam="1">  1       21 0.15445929E-01 0.43078953E+03</pdfrwt>
<pdfrwt beam="2">  1       21 0.64958866E-01 0.43078953E+03</pdfrwt>
<totfact> 0.75546418E+04</totfact>
</mgrwt>
</event>
<event>
 7    0  0.4737014E-002  0.4561469E+03  0.7546771E-02  0.1025905E+00
         21   -1    0    0  502  501  0.00000000000E+00  0.00000000000E+00  0.95113647234E+02  0.95113647234E+02  0.00000000000E+00 0. -1.
         21   -1    0    0  501  502 -0.00000000000E+00 -0.00000000000E+00 -0.54689847908E+03  0.54689847908E+03  0.00000000000E+00 0. -1.
      99926    2    1    2    0    0  0.00000000000E+00  0.00000000000E+00 -0.45178483184E+03  0.64201212631E+03  0.45614694567E+03 0.  0.
      99925    2    3    3    0    0 -0.89378695267E+02  0.39572569329E+02 -0.36730604696E+03  0.46218244966E+03  0.26295312362E+03 0.  0.
         25    1    4    4    0    0 -0.67036512947E+02  0.16789421881E+01 -0.14210494757E+03  0.20084331490E+03  0.12509000000E+03 0.  0.
         25    1    4    4    0    0 -0.22342182320E+02  0.37893627141E+02 -0.22520109939E+03  0.26133913476E+03  0.12509000000E+03 0.  0.
         25    1    3    3    0    0  0.89378695267E+02 -0.39572569329E+02 -0.84478784879E+02  0.17982967665E+03  0.12509000000E+03 0.  0.
<mgrwt>
<rscale>  2 0.45614695E+03</rscale>
<asrwt>0</asrwt>
<pdfrwt beam="1">  1       21 0.13987301E-01 0.45614695E+03</pdfrwt>
<pdfrwt beam="2">  1       21 0.80426246E-01 0.45614695E+03</pdfrwt>
<totfact> 0.55658570E+04</totfact>
</mgrwt>
</event>
<event>
 7    0  0.4737014E-002  0.4627300E+03  0.7546771E-02  0.1023992E+00
         21   -1    0    0  502  501  0.00000000000E+00  0.00000000000E+00  0.29017636049E+03  0.29017636049E+03  0.00000000000E+00 0.  1.
         21   -1    0    0  501  502 -0.00000000000E+00 -0.00000000000E+00 -0.18447323132E+03  0.18447323132E+03  0.00000000000E+00 0.  1.
      99926    2    1    2    0    0 -0.14210854715E-13  0.00000000000E+00  0.10570312917E+03  0.47464959181E+03  0.46273003306E+03 0.  0.
      99925    2    3    3    0    0 -0.11135582754E+03 -0.83204945082E+01  0.11197347931E+03  0.30685156933E+03  0.26296477821E+03 0.  0.
         25    1    4    4    0    0 -0.53346052641E+02 -0.14567448850E+02  0.97716662480E+02  0.16808945870E+03  0.12509000000E+03 0.  0.
         25    1    3    3    0    0  0.11135582754E+03  0.83204945082E+01 -0.62703501385E+01  0.16779802248E+03  0.12509000000E+03 0.  0.
         25    1    4    4    0    0 -0.58009774904E+02  0.62469543415E+01  0.14256816826E+02  0.13876211064E+03  0.12509000000E+03 0.  0.
<mgrwt>
<rscale>  2 0.46273003E+03</rscale>
<asrwt>0</asrwt>
<pdfrwt beam="1">  1       21 0.42672994E-01 0.46273003E+03</pdfrwt>
<pdfrwt beam="2">  1       21 0.27128416E-01 0.46273003E+03</pdfrwt>
<totfact> 0.63130678E+04</totfact>
</mgrwt>
</event>
<event>
 7    0  0.4737014E-002  0.4624614E+03  0.7546771E-02  0.1024070E+00
         21   -1    0    0  502  501  0.00000000000E+00  0.00000000000E+00  0.10924704290E+04  0.10924704290E+04  0.00000000000E+00 0. -1.
         21   -1    0    0  501  502 -0.00000000000E+00 -0.00000000000E+00 -0.48941952874E+02  0.48941952874E+02  0.00000000000E+00 0. -1.
      99926    2    1    2    0    0  0.00000000000E+00  0.00000000000E+00  0.10435284761E+04  0.11414123818E+04  0.46246139839E+03 0.  0.
      99925    2    3    3    0    0 -0.49653624176E+02  0.86081502747E+02  0.81841244240E+03  0.86536846462E+03  0.26303639705E+03 0.  0.
         25    1    4    4    0    0  0.15576151556E+02  0.46306594975E+02  0.37091222633E+03  0.39447472033E+03  0.12509000000E+03 0.  0.
         25    1    3    3    0    0  0.49653624176E+02 -0.86081502747E+02  0.22511603368E+03  0.27604391721E+03  0.12509000000E+03 0.  0.
         25    1    4    4    0    0 -0.65229775733E+02  0.39774907772E+02  0.44750021607E+03  0.47089374429E+03  0.12509000000E+03 0.  0.
<mgrwt>
<rscale>  2 0.46246140E+03</rscale>
<asrwt>0</asrwt>
<pdfrwt beam="1">  1       21 0.16065740E+00 0.46246140E+03</pdfrwt>
<pdfrwt beam="2">  1       21 0.71973467E-02 0.46246140E+03</pdfrwt>
<totfact> 0.32159013E+04</totfact>
</mgrwt>
</event>
<event>
 7    0  0.4737014E-002  0.4593761E+03  0.7546771E-02  0.1024962E+00
         21   -1    0    0  502  501  0.00000000000E+00  0.00000000000E+00  0.42259989200E+02  0.42259989200E+02  0.00000000000E+00 0. -1.
         21   -1    0    0  501  502 -0.00000000000E+00 -0.00000000000E+00 -0.12483820137E+04  0.12483820137E+04  0.00000000000E+00 0. -1.
      99926    2    1    2    0    0  0.53290705182E-14  0.00000000000E+00 -0.12061220245E+04  0.12906420029E+04  0.45937614399E+03 0.  0.
      99925    2    3    3    0    0  0.65309838974E+01 -0.87217219806E+02 -0.97535202045E+03  0.10139620433E+04  0.26297901867E+03 0.  0.
         25    1    4    4    0    0 -0.34623625869E+02 -0.57438867508E+02 -0.48080870699E+03  0.50132079529E+03  0.12509000000E+03 0.  0.
         25    1    3    3    0    0 -0.65309838974E+01  0.87217219806E+02 -0.23077000408E+03  0.27667995964E+03  0.12509000000E+03 0.  0.
         25    1    4    4    0    0  0.41154609767E+02 -0.29778352298E+02 -0.49454331346E+03  0.51264124801E+03  0.12509000000E+03 0.  0.
<mgrwt>
<rscale>  2 0.45937614E+03</rscale>
<asrwt>0</asrwt>
<pdfrwt beam="1">  1       21 0.62147035E-02 0.45937614E+03</pdfrwt>
<pdfrwt beam="2">  1       21 0.18358561E+00 0.45937614E+03</pdfrwt>
<totfact> 0.28408099E+04</totfact>
</mgrwt>
</event>
<event>
 7    0  0.4737014E-002  0.4561005E+03  0.7546771E-02  0.1025918E+00
         21   -1    0    0  502  501  0.00000000000E+00  0.00000000000E+00  0.31955915364E+03  0.31955915364E+03  0.00000000000E+00 0. -1.
         21   -1    0    0  501  502 -0.00000000000E+00 -0.00000000000E+00 -0.16274579968E+03  0.16274579968E+03  0.00000000000E+00 0. -1.
      99926    2    1    2    0    0  0.00000000000E+00  0.00000000000E+00  0.15681335397E+03  0.48230495332E+03  0.45610047140E+03 0.  0.
      99925    2    3    3    0    0 -0.19656894112E+02  0.84662381207E+02  0.19320523232E+02  0.27710773384E+03  0.26241436939E+03 0.  0.
         25    1    4    4    0    0 -0.10468261303E+02  0.12523272125E+02 -0.18635573027E+02  0.12751944762E+03  0.12509000000E+03 0.  0.
         25    1    4    4    0    0 -0.91886328088E+01  0.72139109082E+02  0.37956096259E+02  0.14958828622E+03  0.12509000000E+03 0.  0.
         25    1    3    3    0    0  0.19656894112E+02 -0.84662381207E+02  0.13749283073E+03  0.20519721948E+03  0.12509000000E+03 0.  0.
<mgrwt>
<rscale>  2 0.45610047E+03</rscale>
<asrwt>0</asrwt>
<pdfrwt beam="1">  1       21 0.46993993E-01 0.45610047E+03</pdfrwt>
<pdfrwt beam="2">  1       21 0.23933206E-01 0.45610047E+03</pdfrwt>
<totfact> 0.65954674E+04</totfact>
</mgrwt>
</event>
<event>
 7    0  0.4737014E-002  0.4597817E+03  0.7546771E-02  0.1024845E+00
         21   -1    0    0  502  501  0.00000000000E+00  0.00000000000E+00  0.47628169027E+03  0.47628169027E+03  0.00000000000E+00 0. -1.
         21   -1    0    0  501  502 -0.00000000000E+00 -0.00000000000E+00 -0.11096331053E+03  0.11096331053E+03  0.00000000000E+00 0. -1.
      99926    2    1    2    0    0  0.00000000000E+00 -0.14210854715E-13  0.36531837973E+03  0.58724500080E+03  0.45978165730E+03 0.  0.
      99925    2    3    3    0    0  0.67908292266E+02  0.95264361645E+02  0.24469891049E+03  0.37776135175E+03  0.26294342989E+03 0.  0.
         25    1    3    3    0    0 -0.67908292266E+02 -0.95264361645E+02  0.12061946925E+03  0.20948364905E+03  0.12509000000E+03 0.  0.
         25    1    4    4    0    0  0.86959633114E+01  0.32513665258E+02  0.15220718185E+03  0.19986818785E+03  0.12509000000E+03 0.  0.
         25    1    4    4    0    0  0.59212328955E+02  0.62750696387E+02  0.92491728638E+02  0.17789316390E+03  0.12509000000E+03 0.  0.
<mgrwt>
<rscale>  2 0.45978166E+03</rscale>
<asrwt>0</asrwt>
<pdfrwt beam="1">  1       21 0.70041424E-01 0.45978166E+03</pdfrwt>
<pdfrwt beam="2">  1       21 0.16318134E-01 0.45978166E+03</pdfrwt>
<totfact> 0.57274700E+04</totfact>
</mgrwt>
</event>
<event>
 7    0  0.4737014E-002  0.4486424E+03  0.7546771E-02  0.1028128E+00
         21   -1    0    0  502  501  0.00000000000E+00  0.00000000000E+00  0.34888220511E+02  0.34888220511E+02  0.00000000000E+00 0.  1.
         21   -1    0    0  501  502 -0.00000000000E+00 -0.00000000000E+00 -0.14423207049E+04  0.14423207049E+04  0.00000000000E+00 0.  1.
      99926    2    1    2    0    0  0.14210854715E-13  0.14210854715E-13 -0.14074324843E+04  0.14772089254E+04  0.44864240905E+03 0.  0.
      99925    2    3    3    0    0  0.66905228511E+02  0.81595829337E+02 -0.82904333728E+03  0.87611350656E+03  0.26292172281E+03 0.  0.
         25    1    4    4    0    0  0.60492696520E+02  0.70824882891E+02 -0.41185289317E+03  0.44039282928E+03  0.12509000000E+03 0.  0.
         25    1    3    3    0    0 -0.66905228511E+02 -0.81595829337E+02 -0.57838914707E+03  0.60109541881E+03  0.12509000000E+03 0.  0.
         25    1    4    4    0    0  0.64125319914E+01  0.10770946446E+02 -0.41719044410E+03  0.43572067727E+03  0.12509000000E+03 0.  0.
<mgrwt>
<rscale>  2 0.44864241E+03</rscale>
<asrwt>0</asrwt>
<pdfrwt beam="1">  1       21 0.51306209E-02 0.44864241E+03</pdfrwt>
<pdfrwt beam="2">  1       21 0.21210598E+00 0.44864241E+03</pdfrwt>
<totfact> 0.25583597E+04</totfact>
</mgrwt>
</event>
<event>
 7    0  0.4737014E-002  0.4572018E+03  0.7546771E-02  0.1025596E+00
         21   -1    0    0  502  501  0.00000000000E+00  0.00000000000E+00  0.37519073566E+02  0.37519073566E+02  0.00000000000E+00 0. -1.
         21   -1    0    0  501  502 -0.00000000000E+00 -0.00000000000E+00 -0.13928480704E+04  0.13928480704E+04  0.00000000000E+00 0. -1.
      99926    2    1    2    0    0  0.00000000000E+00  0.00000000000E+00 -0.13553289968E+04  0.14303671440E+04  0.45720179011E+03 0.  0.
      99925    2    3    3    0    0  0.10411974150E+03 -0.41624912840E+02 -0.93290789023E+03  0.97576770123E+03  0.26311959478E+03 0.  0.
         25    1    3    3    0    0 -0.10411974150E+03  0.41624912840E+02 -0.42242110660E+03  0.45459944274E+03  0.12509000000E+03 0.  0.
         25    1    4    4    0    0  0.22468541494E+02  0.67278658347E+01 -0.36486548075E+03  0.38642518898E+03  0.12509000000E+03 0.  0.
         25    1    4    4    0    0  0.81651200002E+02 -0.48352778674E+02 -0.56804240949E+03  0.58934251225E+03  0.12509000000E+03 0.  0.
<mgrwt>
<rscale>  2 0.45720179E+03</rscale>
<asrwt>0</asrwt>
<pdfrwt beam="1">  1       21 0.55175123E-02 0.45720179E+03</pdfrwt>
<pdfrwt beam="2">  1       21 0.20483054E+00 0.45720179E+03</pdfrwt>
<totfact> 0.25101721E+04</totfact>
</mgrwt>
</event>
<event>
 7    0  0.4737014E-002  0.4547996E+03  0.7546771E-02  0.1026300E+00
         21   -1    0    0  502  501  0.00000000000E+00  0.00000000000E+00  0.37148229437E+03  0.37148229437E+03  0.00000000000E+00 0. -1.
         21   -1    0    0  501  502 -0.00000000000E+00 -0.00000000000E+00 -0.13920087464E+03  0.13920087464E+03  0.00000000000E+00 0. -1.
      99926    2    1    2    0    0  0.17763568394E-14  0.00000000000E+00  0.23228141972E+03  0.51068316901E+03  0.45479956152E+03 0.  0.
      99925    2    3    3    0    0  0.12815129948E+02  0.10942475491E+03  0.11621958655E+03  0.30756777874E+03  0.26258892148E+03 0.  0.
         25    1    3    3    0    0 -0.12815129948E+02 -0.10942475491E+03  0.11606183318E+03  0.20311539026E+03  0.12509000000E+03 0.  0.
         25    1    4    4    0    0 -0.19904928939E+02  0.69483702942E+02  0.88526681149E+02  0.16943633774E+03  0.12509000000E+03 0.  0.
         25    1    4    4    0    0  0.32720058887E+02  0.39941051964E+02  0.27692905397E+02  0.13813144101E+03  0.12509000000E+03 0.  0.
<mgrwt>
<rscale>  2 0.45479956E+03</rscale>
<asrwt>0</asrwt>
<pdfrwt beam="1">  1       21 0.54629749E-01 0.45479956E+03</pdfrwt>
<pdfrwt beam="2">  1       21 0.20470717E-01 0.45479956E+03</pdfrwt>
<totfact> 0.64629209E+04</totfact>
</mgrwt>
</event>
<event>
 7    0  0.4737014E-002  0.4583820E+03  0.7546771E-02  0.1025252E+00
         21   -1    0    0  502  501  0.00000000000E+00  0.00000000000E+00  0.42628883857E+03  0.42628883857E+03  0.00000000000E+00 0.  1.
         21   -1    0    0  501  502 -0.00000000000E+00 -0.00000000000E+00 -0.12322284259E+03  0.12322284259E+03  0.00000000000E+00 0.  1.
      99926    2    1    2    0    0  0.00000000000E+00  0.00000000000E+00  0.30306599598E+03  0.54951168116E+03  0.45838203479E+03 0.  0.
      99925    2    3    3    0    0 -0.44140457192E+02 -0.10723352398E+03  0.20073186060E+03  0.35059664405E+03  0.26301581384E+03 0.  0.
         25    1    4    4    0    0 -0.40402992793E+02 -0.24023781990E+02  0.67277392310E+02  0.14961049276E+03  0.12509000000E+03 0.  0.
         25    1    4    4    0    0 -0.37374643990E+01 -0.83209741992E+02  0.13345446829E+03  0.20098615129E+03  0.12509000000E+03 0.  0.
         25    1    3    3    0    0  0.44140457192E+02  0.10723352398E+03  0.10233413537E+03  0.19891503711E+03  0.12509000000E+03 0.  0.
<mgrwt>
<rscale>  2 0.45838203E+03</rscale>
<asrwt>0</asrwt>
<pdfrwt beam="1">  1       21 0.62689535E-01 0.45838203E+03</pdfrwt>
<pdfrwt beam="2">  1       21 0.18121006E-01 0.45838203E+03</pdfrwt>
<totfact> 0.60269777E+04</totfact>
</mgrwt>
</event>
<event>
 7    0  0.4737014E-002  0.4507795E+03  0.7546771E-02  0.1027490E+00
         21   -1    0    0  502  501  0.00000000000E+00  0.00000000000E+00  0.21061669633E+04  0.21061669633E+04  0.00000000000E+00 0.  1.
         21   -1    0    0  501  502 -0.00000000000E+00 -0.00000000000E+00 -0.24119901902E+02  0.24119901902E+02  0.00000000000E+00 0.  1.
      99926    2    1    2    0    0  0.00000000000E+00  0.35527136788E-14  0.20820470614E+04  0.21302868652E+04  0.45077950505E+03 0.  0.
      99925    2    3    3    0    0  0.10693568589E+03  0.18535508683E+02  0.12527505266E+04  0.12846160919E+04  0.26282278403E+03 0.  0.
         25    1    3    3    0    0 -0.10693568589E+03 -0.18535508683E+02  0.82929653484E+03  0.84567077329E+03  0.12509000000E+03 0.  0.
         25    1    4    4    0    0  0.47478198461E+02  0.33672712190E+02  0.76563652386E+03  0.77796839631E+03  0.12509000000E+03 0.  0.
         25    1    4    4    0    0  0.59457487433E+02 -0.15137203507E+02  0.48711400269E+03  0.50664769560E+03  0.12509000000E+03 0.  0.
<mgrwt>
<rscale>  2 0.45077951E+03</rscale>
<asrwt>0</asrwt>
<pdfrwt beam="1">  1       21 0.30973031E+00 0.45077951E+03</pdfrwt>
<pdfrwt beam="2">  1       21 0.35470458E-02 0.45077951E+03</pdfrwt>
<totfact> 0.12088258E+04</totfact>
</mgrwt>
</event>
<event>
 7    0  0.4737014E-002  0.4489233E+03  0.7546771E-02  0.1028044E+00
         21   -1    0    0  502  501  0.00000000000E+00  0.00000000000E+00  0.11330706318E+03  0.11330706318E+03  0.00000000000E+00 0.  1.
         21   -1    0    0  501  502 -0.00000000000E+00 -0.00000000000E+00 -0.44465929016E+03  0.44465929016E+03  0.00000000000E+00 0.  1.
      99926    2    1    2    0    0  0.00000000000E+00  0.00000000000E+00 -0.33135222698E+03  0.55796635335E+03  0.44892332657E+03 0.  0.
      99925    2    3    3    0    0  0.76618167588E+02  0.75193494704E+02 -0.21090282749E+03  0.35380962143E+03  0.26301490513E+03 0.  0.
         25    1    3    3    0    0 -0.76618167588E+02 -0.75193494704E+02 -0.12044939949E+03  0.20415673192E+03  0.12509000000E+03 0.  0.
         25    1    4    4    0    0  0.78712840219E+02  0.48044677249E+02 -0.10366507347E+03  0.18680995098E+03  0.12509000000E+03 0.  0.
         25    1    4    4    0    0 -0.20946726309E+01  0.27148817455E+02 -0.10723775402E+03  0.16699967045E+03  0.12509000000E+03 0.  0.
<mgrwt>
<rscale>  2 0.44892333E+03</rscale>
<asrwt>0</asrwt>
<pdfrwt beam="1">  1       21 0.16662803E-01 0.44892333E+03</pdfrwt>
<pdfrwt beam="2">  1       21 0.65391072E-01 0.44892333E+03</pdfrwt>
<totfact> 0.64382498E+04</totfact>
</mgrwt>
</event>
<event>
 7    0  0.4737014E-002  0.4606428E+03  0.7546771E-02  0.1024595E+00
         21   -1    0    0  502  501  0.00000000000E+00  0.00000000000E+00  0.65000280484E+02  0.65000280484E+02  0.00000000000E+00 0. -1.
         21   -1    0    0  501  502 -0.00000000000E+00 -0.00000000000E+00 -0.81611884729E+03  0.81611884729E+03  0.00000000000E+00 0. -1.
      99926    2    1    2    0    0  0.14210854715E-13  0.00000000000E+00 -0.75111856681E+03  0.88111912777E+03  0.46064282902E+03 0.  0.
      99925    2    3    3    0    0 -0.71193614425E+02 -0.77629931843E+02 -0.36662456288E+03  0.46329370465E+03  0.26293069355E+03 0.  0.
         25    1    4    4    0    0 -0.73578797110E+02 -0.27430473251E+02 -0.17489469081E+03  0.22891468109E+03  0.12509000000E+03 0.  0.
         25    1    3    3    0    0  0.71193614425E+02  0.77629931843E+02 -0.38449400392E+03  0.41782542312E+03  0.12509000000E+03 0.  0.
         25    1    4    4    0    0  0.23851826851E+01 -0.50199458592E+02 -0.19172987208E+03  0.23437902356E+03  0.12509000000E+03 0.  0.
<mgrwt>
<rscale>  2 0.46064283E+03</rscale>
<asrwt>0</asrwt>
<pdfrwt beam="1">  1       21 0.95588647E-02 0.46064283E+03</pdfrwt>
<pdfrwt beam="2">  1       21 0.12001748E+00 0.46064283E+03</pdfrwt>
<totfact> 0.42165568E+04</totfact>
</mgrwt>
</event>
<event>
 7    0  0.4737014E-002  0.4562472E+03  0.7546771E-02  0.1025875E+00
         21   -1    0    0  502  501  0.00000000000E+00  0.00000000000E+00  0.87988142530E+03  0.87988142530E+03  0.00000000000E+00 0. -1.
         21   -1    0    0  501  502 -0.00000000000E+00 -0.00000000000E+00 -0.59144774191E+02  0.59144774191E+02  0.00000000000E+00 0. -1.
      99926    2    1    2    0    0 -0.14210854715E-13  0.00000000000E+00  0.82073665111E+03  0.93902619949E+03  0.45624724970E+03 0.  0.
      99925    2    3    3    0    0  0.87558826784E+02  0.66960225595E+02  0.45341073187E+03  0.53563301784E+03  0.26300421682E+03 0.  0.
         25    1    4    4    0    0  0.10590641070E+02  0.39595214144E+02  0.16743188944E+03  0.21298095775E+03  0.12509000000E+03 0.  0.
         25    1    3    3    0    0 -0.87558826784E+02 -0.66960225595E+02  0.36732591924E+03  0.40339318165E+03  0.12509000000E+03 0.  0.
         25    1    4    4    0    0  0.76968185713E+02  0.27365011451E+02  0.28597884243E+03  0.32265206009E+03  0.12509000000E+03 0.  0.
<mgrwt>
<rscale>  2 0.45624725E+03</rscale>
<asrwt>0</asrwt>
<pdfrwt beam="1">  1       21 0.12939432E+00 0.45624725E+03</pdfrwt>
<pdfrwt beam="2">  1       21 0.86977614E-02 0.45624725E+03</pdfrwt>
<totfact> 0.41185180E+04</totfact>
</mgrwt>
</event>
<event>
 7    0  0.4737014E-002  0.4512948E+03  0.7546771E-02  0.1027337E+00
         21   -1    0    0  502  501  0.00000000000E+00  0.00000000000E+00  0.11656789084E+03  0.11656789084E+03  0.00000000000E+00 0.  1.
         21   -1    0    0  501  502 -0.00000000000E+00 -0.00000000000E+00 -0.43679906464E+03  0.43679906464E+03  0.00000000000E+00 0.  1.
      99926    2    1    2    0    0  0.00000000000E+00  0.14210854715E-13 -0.32023117380E+03  0.55336695548E+03  0.45129478475E+03 0.  0.
      99925    2    3    3    0    0  0.86068682666E+02 -0.67877470414E+02 -0.19098848196E+03  0.34273374200E+03  0.26263025062E+03 0.  0.
         25    1    4    4    0    0  0.34021282086E+02 -0.52721670171E+02 -0.13778085337E+03  0.19638761110E+03  0.12509000000E+03 0.  0.
         25    1    3    3    0    0 -0.86068682666E+02  0.67877470414E+02 -0.12924269184E+03  0.21063321348E+03  0.12509000000E+03 0.  0.
         25    1    4    4    0    0  0.52047400580E+02 -0.15155800243E+02 -0.53207628593E+02  0.14634613090E+03  0.12509000000E+03 0.  0.
<mgrwt>
<rscale>  2 0.45129478E+03</rscale>
<asrwt>0</asrwt>
<pdfrwt beam="1">  1       21 0.17142337E-01 0.45129478E+03</pdfrwt>
<pdfrwt beam="2">  1       21 0.64235156E-01 0.45129478E+03</pdfrwt>
<totfact> 0.63485116E+04</totfact>
</mgrwt>
</event>
<event>
 7    0  0.4737014E-002  0.4485506E+03  0.7546771E-02  0.1028155E+00
         21   -1    0    0  502  501  0.00000000000E+00  0.00000000000E+00  0.62590073144E+02  0.62590073144E+02  0.00000000000E+00 0. -1.
         21   -1    0    0  501  502 -0.00000000000E+00 -0.00000000000E+00 -0.80363234759E+03  0.80363234759E+03  0.00000000000E+00 0. -1.
      99926    2    1    2    0    0  0.14210854715E-13 -0.35527136788E-14 -0.74104227444E+03  0.86622242073E+03  0.44855058763E+03 0.  0.
      99925    2    3    3    0    0 -0.62016681837E+02 -0.26686045955E+02 -0.30789884257E+03  0.41035077811E+03  0.26273151688E+03 0.  0.
         25    1    4    4    0    0  0.50000328161E+01  0.68203115921E+01 -0.13741687323E+03  0.18601726298E+03  0.12509000000E+03 0.  0.
         25    1    3    3    0    0  0.62016681837E+02  0.26686045955E+02 -0.43314343187E+03  0.45587164262E+03  0.12509000000E+03 0.  0.
         25    1    4    4    0    0 -0.67016714653E+02 -0.33506357547E+02 -0.17048196934E+03  0.22433351513E+03  0.12509000000E+03 0.  0.
<mgrwt>
<rscale>  2 0.44855059E+03</rscale>
<asrwt>0</asrwt>
<pdfrwt beam="1">  1       21 0.92044221E-02 0.44855059E+03</pdfrwt>
<pdfrwt beam="2">  1       21 0.11818123E+00 0.44855059E+03</pdfrwt>
<totfact> 0.47057484E+04</totfact>
</mgrwt>
</event>
<event>
 7    0  0.4737014E-002  0.4476549E+03  0.7546771E-02  0.1028424E+00
         21   -1    0    0  502  501  0.00000000000E+00  0.00000000000E+00  0.16113843172E+03  0.16113843172E+03  0.00000000000E+00 0. -1.
         21   -1    0    0  501  502 -0.00000000000E+00 -0.00000000000E+00 -0.31090486698E+03  0.31090486698E+03  0.00000000000E+00 0. -1.
      99926    2    1    2    0    0  0.00000000000E+00 -0.71054273576E-14 -0.14976643527E+03  0.47204329870E+03  0.44765487902E+03 0.  0.
      99925    2    3    3    0    0 -0.84461087514E+02 -0.61891326814E+02 -0.76443019966E+02  0.29319128453E+03  0.26297030704E+03 0.  0.
         25    1    4    4    0    0 -0.16003220664E+02 -0.44958988048E+01 -0.12853007114E+02  0.12684251681E+03  0.12509000000E+03 0.  0.
         25    1    4    4    0    0 -0.68457866850E+02 -0.57395428009E+02 -0.63590012851E+02  0.16634876773E+03  0.12509000000E+03 0.  0.
         25    1    3    3    0    0  0.84461087514E+02  0.61891326814E+02 -0.73323415300E+02  0.17885201416E+03  0.12509000000E+03 0.  0.
<mgrwt>
<rscale>  2 0.44765488E+03</rscale>
<asrwt>0</asrwt>
<pdfrwt beam="1">  1       21 0.23696829E-01 0.44765488E+03</pdfrwt>
<pdfrwt beam="2">  1       21 0.45721303E-01 0.44765488E+03</pdfrwt>
<totfact> 0.71353590E+04</totfact>
</mgrwt>
</event>
<event>
 7    0  0.4737014E-002  0.4557924E+03  0.7546771E-02  0.1026009E+00
         21   -1    0    0  502  501  0.00000000000E+00  0.00000000000E+00  0.33940639588E+02  0.33940639588E+02  0.00000000000E+00 0. -1.
         21   -1    0    0  501  502 -0.00000000000E+00 -0.00000000000E+00 -0.15302212594E+04  0.15302212594E+04  0.00000000000E+00 0. -1.
      99926    2    1    2    0    0  0.00000000000E+00  0.00000000000E+00 -0.14962806199E+04  0.15641618990E+04  0.45579244512E+03 0.  0.
      99925    2    3    3    0    0  0.66008926286E+02  0.41250855720E+02 -0.12262003971E+04  0.12565100726E+04  0.26304246313E+03 0.  0.
         25    1    4    4    0    0  0.20988402967E+02  0.54997537150E+02 -0.70644893245E+03  0.71984918171E+03  0.12509000000E+03 0.  0.
         25    1    4    4    0    0  0.45020523319E+02 -0.13746681429E+02 -0.51975146461E+03  0.53666089092E+03  0.12509000000E+03 0.  0.
         25    1    3    3    0    0 -0.66008926286E+02 -0.41250855720E+02 -0.27008022280E+03  0.30765182641E+03  0.12509000000E+03 0.  0.
<mgrwt>
<rscale>  2 0.45579245E+03</rscale>
<asrwt>0</asrwt>
<pdfrwt beam="1">  1       21 0.49912726E-02 0.45579245E+03</pdfrwt>
<pdfrwt beam="2">  1       21 0.22503245E+00 0.45579245E+03</pdfrwt>
<totfact> 0.22113154E+04</totfact>
</mgrwt>
</event>
<event>
 7    0  0.4737014E-002  0.4546494E+03  0.7546771E-02  0.1026345E+00
         21   -1    0    0  502  501  0.00000000000E+00  0.00000000000E+00  0.10401720182E+03  0.10401720182E+03  0.00000000000E+00 0.  1.
         21   -1    0    0  501  502 -0.00000000000E+00 -0.00000000000E+00 -0.49680745110E+03  0.49680745110E+03  0.00000000000E+00 0.  1.
      99926    2    1    2    0    0  0.00000000000E+00  0.00000000000E+00 -0.39279024928E+03  0.60082465293E+03  0.45464940738E+03 0.  0.
      99925    2    3    3    0    0 -0.66195773585E+02  0.53711020762E+02 -0.14968078974E+03  0.31443947242E+03  0.26306099827E+03 0.  0.
         25    1    4    4    0    0 -0.24192601622E+02  0.46104075121E+02 -0.11519116265E+03  0.17784088329E+03  0.12509000000E+03 0.  0.
         25    1    4    4    0    0 -0.42003171963E+02  0.76069456412E+01 -0.34489627086E+02  0.13659858913E+03  0.12509000000E+03 0.  0.
         25    1    3    3    0    0  0.66195773585E+02 -0.53711020762E+02 -0.24310945955E+03  0.28638518050E+03  0.12509000000E+03 0.  0.
<mgrwt>
<rscale>  2 0.45464941E+03</rscale>
<asrwt>0</asrwt>
<pdfrwt beam="1">  1       21 0.15296648E-01 0.45464941E+03</pdfrwt>
<pdfrwt beam="2">  1       21 0.73059918E-01 0.45464941E+03</pdfrwt>
<totfact> 0.58790220E+04</totfact>
</mgrwt>
</event>
<event>
 7    0  0.4737014E-002  0.4529655E+03  0.7546771E-02  0.1026841E+00
         21   -1    0    0  502  501  0.00000000000E+00  0.00000000000E+00  0.57953246569E+02  0.57953246569E+02  0.00000000000E+00 0.  1.
         21   -1    0    0  501  502 -0.00000000000E+00 -0.00000000000E+00 -0.88510019813E+03  0.88510019813E+03  0.00000000000E+00 0.  1.
      99926    2    1    2    0    0  0.00000000000E+00  0.00000000000E+00 -0.82714695156E+03  0.94305344470E+03  0.45296547339E+03 0.  0.
      99925    2    3    3    0    0  0.10257107861E+03 -0.17953189238E+02 -0.44040006476E+03  0.52345386686E+03  0.26307525638E+03 0.  0.
         25    1    3    3    0    0 -0.10257107861E+03  0.17953189238E+02 -0.38674688681E+03  0.41959957784E+03  0.12509000000E+03 0.  0.
         25    1    4    4    0    0  0.45786352774E+02 -0.16127717684E+02 -0.14436529873E+03  0.19709221435E+03  0.12509000000E+03 0.  0.
         25    1    4    4    0    0  0.56784725838E+02 -0.18254715531E+01 -0.29603476603E+03  0.32636165251E+03  0.12509000000E+03 0.  0.
<mgrwt>
<rscale>  2 0.45296547E+03</rscale>
<asrwt>0</asrwt>
<pdfrwt beam="1">  1       21 0.85225371E-02 0.45296547E+03</pdfrwt>
<pdfrwt beam="2">  1       21 0.13016178E+00 0.45296547E+03</pdfrwt>
<totfact> 0.42089062E+04</totfact>
</mgrwt>
</event>
<event>
 7    0  0.4737014E-002  0.4377260E+03  0.7546771E-02  0.1031447E+00
         21   -1    0    0  502  501  0.00000000000E+00  0.00000000000E+00  0.76192317782E+02  0.76192317782E+02  0.00000000000E+00 0.  1.
         21   -1    0    0  501  502 -0.00000000000E+00 -0.00000000000E+00 -0.62868563214E+03  0.62868563214E+03  0.00000000000E+00 0.  1.
      99926    2    1    2    0    0  0.00000000000E+00  0.00000000000E+00 -0.55249331436E+03  0.70487794993E+03  0.43772601234E+03 0.  0.
      99925    2    3    3    0    0  0.79612161750E+02  0.16918638407E+02 -0.43556820540E+03  0.51529069870E+03  0.26302187358E+03 0.  0.
         25    1    4    4    0    0 -0.21416190742E+01  0.11800593143E+02 -0.19075614532E+03  0.22842779080E+03  0.12509000000E+03 0.  0.
         25    1    3    3    0    0 -0.79612161750E+02 -0.16918638407E+02 -0.11692510896E+03  0.18958725123E+03  0.12509000000E+03 0.  0.
         25    1    4    4    0    0  0.81753780824E+02  0.51180452641E+01 -0.24481206008E+03  0.28686290790E+03  0.12509000000E+03 0.  0.
<mgrwt>
<rscale>  2 0.43772601E+03</rscale>
<asrwt>0</asrwt>
<pdfrwt beam="1">  1       21 0.11204753E-01 0.43772601E+03</pdfrwt>
<pdfrwt beam="2">  1       21 0.92453768E-01 0.43772601E+03</pdfrwt>
<totfact> 0.60445224E+04</totfact>
</mgrwt>
</event>
<event>
 7    0  0.4737014E-002  0.4635498E+03  0.7546771E-02  0.1023757E+00
         21   -1    0    0  502  501  0.00000000000E+00  0.00000000000E+00  0.19585091878E+03  0.19585091878E+03  0.00000000000E+00 0. -1.
         21   -1    0    0  501  502 -0.00000000000E+00 -0.00000000000E+00 -0.27428827989E+03  0.27428827989E+03  0.00000000000E+00 0. -1.
      99926    2    1    2    0    0  0.00000000000E+00  0.00000000000E+00 -0.78437361111E+02  0.47013919868E+03  0.46354983175E+03 0.  0.
      99925    2    3    3    0    0  0.74741979841E+02 -0.94819332972E+02 -0.43066352033E+02  0.29272531580E+03  0.26316597496E+03 0.  0.
         25    1    4    4    0    0  0.68060149873E+02 -0.39780940625E+02 -0.49011403889E+02  0.15577012887E+03  0.12509000000E+03 0.  0.
         25    1    4    4    0    0  0.66818299689E+01 -0.55038392348E+02  0.59450518560E+01  0.13695518692E+03  0.12509000000E+03 0.  0.
         25    1    3    3    0    0 -0.74741979841E+02  0.94819332972E+02 -0.35371009078E+02  0.17741388288E+03  0.12509000000E+03 0.  0.
<mgrwt>
<rscale>  2 0.46354983E+03</rscale>
<asrwt>0</asrwt>
<pdfrwt beam="1">  1       21 0.28801606E-01 0.46354983E+03</pdfrwt>
<pdfrwt beam="2">  1       21 0.40336511E-01 0.46354983E+03</pdfrwt>
<totfact> 0.63035871E+04</totfact>
</mgrwt>
</event>
<event>
 7    0  0.4737014E-002  0.4352902E+03  0.7546771E-02  0.1032202E+00
         21   -1    0    0  502  501  0.00000000000E+00  0.00000000000E+00  0.25824796563E+03  0.25824796563E+03  0.00000000000E+00 0.  1.
         21   -1    0    0  501  502 -0.00000000000E+00 -0.00000000000E+00 -0.18342602954E+03  0.18342602954E+03  0.00000000000E+00 0.  1.
      99926    2    1    2    0    0  0.00000000000E+00 -0.17763568394E-14  0.74821936090E+02  0.44167399516E+03  0.43529024326E+03 0.  0.
      99925    2    3    3    0    0 -0.20450770115E+02  0.10002613970E+02 -0.44150761072E+02  0.26754675130E+03  0.26289482335E+03 0.  0.
         25    1    4    4    0    0 -0.25517975578E+02  0.39484749406E+02 -0.76549447343E+01  0.13385185390E+03  0.12509000000E+03 0.  0.
         25    1    3    3    0    0  0.20450770115E+02 -0.10002613970E+02  0.11897269716E+03  0.17412724386E+03  0.12509000000E+03 0.  0.
         25    1    4    4    0    0  0.50672054625E+01 -0.29482135436E+02 -0.36495816338E+02  0.13369489740E+03  0.12509000000E+03 0.  0.
<mgrwt>
<rscale>  2 0.43529024E+03</rscale>
<asrwt>0</asrwt>
<pdfrwt beam="1">  1       21 0.37977642E-01 0.43529024E+03</pdfrwt>
<pdfrwt beam="2">  1       21 0.26974416E-01 0.43529024E+03</pdfrwt>
<totfact> 0.81631537E+04</totfact>
</mgrwt>
</event>
<event>
 7    0  0.4737014E-002  0.4525331E+03  0.7546771E-02  0.1026969E+00
         21   -1    0    0  502  501  0.00000000000E+00  0.00000000000E+00  0.79064610980E+02  0.79064610980E+02  0.00000000000E+00 0.  1.
         21   -1    0    0  501  502 -0.00000000000E+00 -0.00000000000E+00 -0.64752805414E+03  0.64752805414E+03  0.00000000000E+00 0.  1.
      99926    2    1    2    0    0 -0.14210854715E-13  0.14210854715E-13 -0.56846344316E+03  0.72659266512E+03  0.45253310906E+03 0.  0.
      99925    2    3    3    0    0 -0.70846633059E+02  0.81352410881E+02 -0.40036130411E+03  0.49091640958E+03  0.26281607104E+03 0.  0.
         25    1    4    4    0    0 -0.21893519777E+02  0.13100954759E+01 -0.19702115584E+03  0.23440538924E+03  0.12509000000E+03 0.  0.
         25    1    4    4    0    0 -0.48953113283E+02  0.80042315405E+02 -0.20334014827E+03  0.25651102034E+03  0.12509000000E+03 0.  0.
         25    1    3    3    0    0  0.70846633059E+02 -0.81352410881E+02 -0.16810213906E+03  0.23567625554E+03  0.12509000000E+03 0.  0.
<mgrwt>
<rscale>  2 0.45253311E+03</rscale>
<asrwt>0</asrwt>
<pdfrwt beam="1">  1       21 0.11627149E-01 0.45253311E+03</pdfrwt>
<pdfrwt beam="2">  1       21 0.95224710E-01 0.45253311E+03</pdfrwt>
<totfact> 0.52493856E+04</totfact>
</mgrwt>
</event>
<event>
 7    0  0.4737014E-002  0.4375588E+03  0.7546771E-02  0.1031498E+00
         21   -1    0    0  502  501  0.00000000000E+00  0.00000000000E+00  0.66459310399E+03  0.66459310399E+03  0.00000000000E+00 0. -1.
         21   -1    0    0  501  502 -0.00000000000E+00 -0.00000000000E+00 -0.72020662978E+02  0.72020662978E+02  0.00000000000E+00 0. -1.
      99926    2    1    2    0    0 -0.17763568394E-14  0.14210854715E-13  0.59257244101E+03  0.73661376697E+03  0.43755884615E+03 0.  0.
      99925    2    3    3    0    0  0.27983539706E+01  0.83565548916E+02  0.45852086833E+03  0.53509859635E+03  0.26286515435E+03 0.  0.
         25    1    3    3    0    0 -0.27983539706E+01 -0.83565548916E+02  0.13405157268E+03  0.20151517062E+03  0.12509000000E+03 0.  0.
         25    1    4    4    0    0  0.30594057076E+02  0.48366247323E+02  0.18042001861E+03  0.22687922211E+03  0.12509000000E+03 0.  0.
         25    1    4    4    0    0 -0.27795703106E+02  0.35199301592E+02  0.27810084972E+03  0.30821937425E+03  0.12509000000E+03 0.  0.
<mgrwt>
<rscale>  2 0.43755885E+03</rscale>
<asrwt>0</asrwt>
<pdfrwt beam="1">  1       21 0.97734277E-01 0.43755885E+03</pdfrwt>
<pdfrwt beam="2">  1       21 0.10591274E-01 0.43755885E+03</pdfrwt>
<totfact> 0.58589928E+04</totfact>
</mgrwt>
</event>
<event>
 7    0  0.4737014E-002  0.4357967E+03  0.7546771E-02  0.1032044E+00
         21   -1    0    0  502  501  0.00000000000E+00  0.00000000000E+00  0.15871866582E+03  0.15871866582E+03  0.00000000000E+00 0.  1.
         21   -1    0    0  501  502 -0.00000000000E+00 -0.00000000000E+00 -0.29914365614E+03  0.29914365614E+03  0.00000000000E+00 0.  1.
      99926    2    1    2    0    0  0.00000000000E+00  0.00000000000E+00 -0.14042499032E+03  0.45786232196E+03  0.43579665897E+03 0.  0.
      99925    2    3    3    0    0 -0.60657628691E+02 -0.58679888464E+02 -0.13355726895E+03  0.30680818953E+03  0.26300388561E+03 0.  0.
         25    1    4    4    0    0 -0.43405886478E+02 -0.61389243302E+02 -0.97290337414E+02  0.17540133417E+03  0.12509000000E+03 0.  0.
         25    1    4    4    0    0 -0.17251742213E+02  0.27093548383E+01 -0.36266931535E+02  0.13140685536E+03  0.12509000000E+03 0.  0.
         25    1    3    3    0    0  0.60657628691E+02  0.58679888464E+02 -0.68677213707E+01  0.15105413243E+03  0.12509000000E+03 0.  0.
<mgrwt>
<rscale>  2 0.43579666E+03</rscale>
<asrwt>0</asrwt>
<pdfrwt beam="1">  1       21 0.23340981E-01 0.43579666E+03</pdfrwt>
<pdfrwt beam="2">  1       21 0.43991713E-01 0.43579666E+03</pdfrwt>
<totfact> 0.79836979E+04</totfact>
</mgrwt>
</event>
<event>
 7    0  0.4737014E-002  0.4511888E+03  0.7546771E-02  0.1027368E+00
         21   -1    0    0  502  501  0.00000000000E+00  0.00000000000E+00  0.32728864529E+02  0.32728864529E+02  0.00000000000E+00 0.  1.
         21   -1    0    0  501  502 -0.00000000000E+00 -0.00000000000E+00 -0.15549831298E+04  0.15549831298E+04  0.00000000000E+00 0.  1.
      99926    2    1    2    0    0  0.00000000000E+00  0.00000000000E+00 -0.15222542652E+04  0.15877119943E+04  0.45118879507E+03 0.  0.
      99925    2    3    3    0    0  0.92356272786E+01 -0.73737945213E+01 -0.57784892599E+03  0.63498505411E+03  0.26297712451E+03 0.  0.
         25    1    3    3    0    0 -0.92356272786E+01  0.73737945213E+01 -0.94440533925E+03  0.95272694018E+03  0.12509000000E+03 0.  0.
         25    1    4    4    0    0 -0.19977469059E+02  0.72651779866E+01 -0.35945095052E+03  0.38118811105E+03  0.12509000000E+03 0.  0.
         25    1    4    4    0    0  0.29213096338E+02 -0.14638972508E+02 -0.21839797547E+03  0.25379694306E+03  0.12509000000E+03 0.  0.
<mgrwt>
<rscale>  2 0.45118880E+03</rscale>
<asrwt>0</asrwt>
<pdfrwt beam="1">  1       21 0.48130681E-02 0.45118880E+03</pdfrwt>
<pdfrwt beam="2">  1       21 0.22867400E+00 0.45118880E+03</pdfrwt>
<totfact> 0.22363417E+04</totfact>
</mgrwt>
</event>
<event>
 6    0  0.4737014E-002  0.4514911E+03  0.7546771E-02  0.1027278E+00
         21   -1    0    0  502  501  0.00000000000E+00  0.00000000000E+00  0.81209104723E+02  0.81209104723E+02  0.00000000000E+00 0. -1.
         21   -1    0    0  501  502 -0.00000000000E+00 -0.00000000000E+00 -0.62752887215E+03  0.62752887215E+03  0.00000000000E+00 0. -1.
      99926    2    1    2    0    0  0.00000000000E+00  0.35527136788E-14 -0.54631976743E+03  0.70873797687E+03  0.45149112016E+03 0.  0.
         25    1    3    3    0    0  0.69213795666E+02 -0.52352292156E+02 -0.24181090150E+03  0.28574697231E+03  0.12509000000E+03 0.  0.
         25    1    3    3    0    0 -0.88702577622E+02  0.29556669659E+02 -0.11498150989E+03  0.19393297738E+03  0.12509000000E+03 0.  0.
         25    1    3    3    0    0  0.19488781955E+02  0.22795622498E+02 -0.18952735604E+03  0.22905802718E+03  0.12509000000E+03 0.  0.
<mgrwt>
<rscale>  2 0.45149112E+03</rscale>
<asrwt>0</asrwt>
<pdfrwt beam="1">  1       21 0.11942516E-01 0.45149112E+03</pdfrwt>
<pdfrwt beam="2">  1       21 0.92283653E-01 0.45149112E+03</pdfrwt>
<totfact> 0.53903921E+04</totfact>
</mgrwt>
</event>
<event>
 7    0  0.4737014E-002  0.4824237E+03  0.7546771E-02  0.1018471E+00
         21   -1    0    0  502  501  0.00000000000E+00  0.00000000000E+00  0.15427730482E+03  0.15427730482E+03  0.00000000000E+00 0.  1.
         21   -1    0    0  501  502 -0.00000000000E+00 -0.00000000000E+00 -0.37713367521E+03  0.37713367521E+03  0.00000000000E+00 0.  1.
      99926    2    1    2    0    0  0.00000000000E+00  0.00000000000E+00 -0.22285637040E+03  0.53141098003E+03  0.48242374306E+03 0.  0.
      99925    2    3    3    0    0  0.13634761555E+03 -0.34964155508E+01 -0.15394551494E+03  0.33392905354E+03  0.26307127179E+03 0.  0.
         25    1    4    4    0    0  0.11211981987E+03 -0.12283695097E+02 -0.93264749655E+02  0.19252938685E+03  0.12509000000E+03 0.  0.
         25    1    3    3    0    0 -0.13634761555E+03  0.34964155508E+01 -0.68910855458E+02  0.19748192648E+03  0.12509000000E+03 0.  0.
         25    1    4    4    0    0  0.24227795680E+02  0.87872795458E+01 -0.60680765284E+02  0.14139966669E+03  0.12509000000E+03 0.  0.
<mgrwt>
<rscale>  2 0.48242374E+03</rscale>
<asrwt>0</asrwt>
<pdfrwt beam="1">  1       21 0.22687840E-01 0.48242374E+03</pdfrwt>
<pdfrwt beam="2">  1       21 0.55460833E-01 0.48242374E+03</pdfrwt>
<totfact> 0.51066013E+04</totfact>
</mgrwt>
</event>
<event>
 7    0  0.4737014E-002  0.4504312E+03  0.7546771E-02  0.1027594E+00
         21   -1    0    0  502  501  0.00000000000E+00  0.00000000000E+00  0.47733791092E+03  0.47733791092E+03  0.00000000000E+00 0. -1.
         21   -1    0    0  501  502 -0.00000000000E+00 -0.00000000000E+00 -0.10626030008E+03  0.10626030008E+03  0.00000000000E+00 0. -1.
      99926    2    1    2    0    0  0.00000000000E+00 -0.17763568394E-14  0.37107761084E+03  0.58359821100E+03  0.45043121408E+03 0.  0.
      99925    2    3    3    0    0 -0.10846037041E+03 -0.65837170421E+01  0.24015059885E+03  0.37241964237E+03  0.26309139593E+03 0.  0.
         25    1    3    3    0    0  0.10846037041E+03  0.65837170421E+01  0.13092701199E+03  0.21117856863E+03  0.12509000000E+03 0.  0.
         25    1    4    4    0    0 -0.77453749632E+02 -0.31304559227E+02  0.15499357812E+03  0.21598512939E+03  0.12509000000E+03 0.  0.
         25    1    4    4    0    0 -0.31006620782E+02  0.24720842185E+02  0.85157020733E+02  0.15643451298E+03  0.12509000000E+03 0.  0.
<mgrwt>
<rscale>  2 0.45043121E+03</rscale>
<asrwt>0</asrwt>
<pdfrwt beam="1">  1       21 0.70196751E-01 0.45043121E+03</pdfrwt>
<pdfrwt beam="2">  1       21 0.15626515E-01 0.45043121E+03</pdfrwt>
<totfact> 0.61904979E+04</totfact>
</mgrwt>
</event>
<event>
 7    0  0.4737014E-002  0.4582609E+03  0.7546771E-02  0.1025287E+00
         21   -1    0    0  502  501  0.00000000000E+00  0.00000000000E+00  0.17038654941E+03  0.17038654941E+03  0.00000000000E+00 0. -1.
         21   -1    0    0  501  502 -0.00000000000E+00 -0.00000000000E+00 -0.30812733597E+03  0.30812733597E+03  0.00000000000E+00 0. -1.
      99926    2    1    2    0    0  0.71054273576E-14  0.00000000000E+00 -0.13774078656E+03  0.47851388537E+03  0.45826085826E+03 0.  0.
      99925    2    3    3    0    0 -0.43448792221E+02  0.82953278056E+02 -0.14902846051E+02  0.27975344762E+03  0.26319356518E+03 0.  0.
         25    1    4    4    0    0 -0.50009980192E+02  0.18100360139E+02  0.10879865017E+02  0.13636165414E+03  0.12509000000E+03 0.  0.
         25    1    4    4    0    0  0.65611879714E+01  0.64852917917E+02 -0.25782711068E+02  0.14339179349E+03  0.12509000000E+03 0.  0.
         25    1    3    3    0    0  0.43448792221E+02 -0.82953278056E+02 -0.12283794051E+03  0.19876043775E+03  0.12509000000E+03 0.  0.
<mgrwt>
<rscale>  2 0.45826086E+03</rscale>
<asrwt>0</asrwt>
<pdfrwt beam="1">  1       21 0.25056846E-01 0.45826086E+03</pdfrwt>
<pdfrwt beam="2">  1       21 0.45312843E-01 0.45826086E+03</pdfrwt>
<totfact> 0.65107108E+04</totfact>
</mgrwt>
</event>
<event>
 7    0  0.4737014E-002  0.4585365E+03  0.7546771E-02  0.1025207E+00
         21   -1    0    0  502  501  0.00000000000E+00  0.00000000000E+00  0.99247427946E+02  0.99247427946E+02  0.00000000000E+00 0. -1.
         21   -1    0    0  501  502 -0.00000000000E+00 -0.00000000000E+00 -0.52962506295E+03  0.52962506295E+03  0.00000000000E+00 0. -1.
      99926    2    1    2    0    0  0.00000000000E+00  0.00000000000E+00 -0.43037763500E+03  0.62887249089E+03  0.45853647739E+03 0.  0.
      99925    2    3    3    0    0 -0.19220635399E+02  0.11491001129E+03 -0.26734879666E+03  0.39265298757E+03  0.26292060788E+03 0.  0.
         25    1    4    4    0    0 -0.41119729990E+01  0.15926988381E+02 -0.10025229124E+03  0.16114778087E+03  0.12509000000E+03 0.  0.
         25    1    4    4    0    0 -0.15108662400E+02  0.98983022911E+02 -0.16709650543E+03  0.23150520670E+03  0.12509000000E+03 0.  0.
         25    1    3    3    0    0  0.19220635399E+02 -0.11491001129E+03 -0.16302883833E+03  0.23621950332E+03  0.12509000000E+03 0.  0.
<mgrwt>
<rscale>  2 0.45853648E+03</rscale>
<asrwt>0</asrwt>
<pdfrwt beam="1">  1       21 0.14595210E-01 0.45853648E+03</pdfrwt>
<pdfrwt beam="2">  1       21 0.77886038E-01 0.45853648E+03</pdfrwt>
<totfact> 0.55373147E+04</totfact>
</mgrwt>
</event>
<event>
 7    0  0.4737014E-002  0.4576288E+03  0.7546771E-02  0.1025471E+00
         21   -1    0    0  502  501  0.00000000000E+00  0.00000000000E+00  0.14224083476E+03  0.14224083476E+03  0.00000000000E+00 0.  1.
         21   -1    0    0  501  502 -0.00000000000E+00 -0.00000000000E+00 -0.36808023681E+03  0.36808023681E+03  0.00000000000E+00 0.  1.
      99926    2    1    2    0    0  0.00000000000E+00  0.00000000000E+00 -0.22583940204E+03  0.51032107157E+03  0.45762884587E+03 0.  0.
      99925    2    3    3    0    0 -0.10232769019E+03 -0.53839719729E+02 -0.14128673344E+03  0.32014658993E+03  0.26298712211E+03 0.  0.
         25    1    3    3    0    0  0.10232769019E+03  0.53839719729E+02 -0.84552668601E+02  0.19017448164E+03  0.12509000000E+03 0.  0.
         25    1    4    4    0    0 -0.46929020910E+02 -0.42244039000E+02 -0.11289350247E+03  0.17994260984E+03  0.12509000000E+03 0.  0.
         25    1    4    4    0    0 -0.55398669276E+02 -0.11595680729E+02 -0.28393230971E+02  0.14020398009E+03  0.12509000000E+03 0.  0.
<mgrwt>
<rscale>  2 0.45762885E+03</rscale>
<asrwt>0</asrwt>
<pdfrwt beam="1">  1       21 0.20917770E-01 0.45762885E+03</pdfrwt>
<pdfrwt beam="2">  1       21 0.54129446E-01 0.45762885E+03</pdfrwt>
<totfact> 0.63222092E+04</totfact>
</mgrwt>
</event>
<event>
 7    0  0.4737014E-002  0.4501908E+03  0.7546771E-02  0.1027665E+00
         21   -1    0    0  502  501  0.00000000000E+00  0.00000000000E+00  0.40646400795E+03  0.40646400795E+03  0.00000000000E+00 0.  1.
         21   -1    0    0  501  502 -0.00000000000E+00 -0.00000000000E+00 -0.12465543523E+03  0.12465543523E+03  0.00000000000E+00 0.  1.
      99926    2    1    2    0    0  0.00000000000E+00  0.00000000000E+00  0.28180857273E+03  0.53111944318E+03  0.45019083872E+03 0.  0.
      99925    2    3    3    0    0 -0.76634716398E+02 -0.76218608634E+02  0.19040228600E+03  0.34221530503E+03  0.26301355178E+03 0.  0.
         25    1    4    4    0    0 -0.37215045080E+02 -0.15193159722E+02  0.49871687129E+02  0.14053641862E+03  0.12509000000E+03 0.  0.
         25    1    4    4    0    0 -0.39419671319E+02 -0.61025448911E+02  0.14053059887E+03  0.20167888640E+03  0.12509000000E+03 0.  0.
         25    1    3    3    0    0  0.76634716398E+02  0.76218608634E+02  0.91406286725E+02  0.18890413816E+03  0.12509000000E+03 0.  0.
<mgrwt>
<rscale>  2 0.45019084E+03</rscale>
<asrwt>0</asrwt>
<pdfrwt beam="1">  1       21 0.59774119E-01 0.45019084E+03</pdfrwt>
<pdfrwt beam="2">  1       21 0.18331682E-01 0.45019084E+03</pdfrwt>
<totfact> 0.65593201E+04</totfact>
</mgrwt>
</event>
<event>
 7    0  0.4737014E-002  0.4444678E+03  0.7546771E-02  0.1029385E+00
         21   -1    0    0  502  501  0.00000000000E+00  0.00000000000E+00  0.38518064494E+02  0.38518064494E+02  0.00000000000E+00 0.  1.
         21   -1    0    0  501  502 -0.00000000000E+00 -0.00000000000E+00 -0.12822009008E+04  0.12822009008E+04  0.00000000000E+00 0.  1.
      99926    2    1    2    0    0  0.00000000000E+00  0.17763568394E-14 -0.12436828363E+04  0.13207189653E+04  0.44446775807E+03 0.  0.
      99925    2    3    3    0    0  0.51593210450E+02 -0.28139242286E+01 -0.52543840917E+03  0.58983433504E+03  0.26296243729E+03 0.  0.
         25    1    4    4    0    0  0.18206805062E+02 -0.19150350159E+02 -0.18181524275E+03  0.22226676372E+03  0.12509000000E+03 0.  0.
         25    1    3    3    0    0 -0.51593210450E+02  0.28139242286E+01 -0.71824442713E+03  0.73088463025E+03  0.12509000000E+03 0.  0.
         25    1    4    4    0    0  0.33386405388E+02  0.16336425931E+02 -0.34362316643E+03  0.36756757132E+03  0.12509000000E+03 0.  0.
<mgrwt>
<rscale>  2 0.44446776E+03</rscale>
<asrwt>0</asrwt>
<pdfrwt beam="1">  1       21 0.56644206E-02 0.44446776E+03</pdfrwt>
<pdfrwt beam="2">  1       21 0.18855898E+00 0.44446776E+03</pdfrwt>
<totfact> 0.30979416E+04</totfact>
</mgrwt>
</event>
<event>
 7    0  0.4737014E-002  0.4492404E+03  0.7546771E-02  0.1027949E+00
         21   -1    0    0  502  501  0.00000000000E+00  0.00000000000E+00  0.33767974915E+04  0.33767974915E+04  0.00000000000E+00 0.  1.
         21   -1    0    0  501  502 -0.00000000000E+00 -0.00000000000E+00 -0.14941445078E+02  0.14941445078E+02  0.00000000000E+00 0.  1.
      99926    2    1    2    0    0  0.00000000000E+00  0.00000000000E+00  0.33618560464E+04  0.33917389365E+04  0.44924040004E+03 0.  0.
      99925    2    3    3    0    0 -0.46119320887E+02  0.44207221303E+02  0.14723828607E+04  0.14970522348E+04  0.26300729098E+03 0.  0.
         25    1    4    4    0    0 -0.63637510169E+02  0.18233404575E+02  0.74348135241E+03  0.75683169809E+03  0.12509000000E+03 0.  0.
         25    1    4    4    0    0  0.17518189282E+02  0.25973816728E+02  0.72890150831E+03  0.74022053675E+03  0.12509000000E+03 0.  0.
         25    1    3    3    0    0  0.46119320887E+02 -0.44207221303E+02  0.18894731857E+04  0.18946867017E+04  0.12509000000E+03 0.  0.
<mgrwt>
<rscale>  2 0.44924040E+03</rscale>
<asrwt>0</asrwt>
<pdfrwt beam="1">  1       21 0.49658734E+00 0.44924040E+03</pdfrwt>
<pdfrwt beam="2">  1       21 0.21972737E-02 0.44924040E+03</pdfrwt>
<totfact> 0.16646701E+03</totfact>
</mgrwt>
</event>
<event>
 7    0  0.4737014E-002  0.4463300E+03  0.7546771E-02  0.1028822E+00
         21   -1    0    0  502  501  0.00000000000E+00  0.00000000000E+00  0.32532890499E+03  0.32532890499E+03  0.00000000000E+00 0. -1.
         21   -1    0    0  501  502 -0.00000000000E+00 -0.00000000000E+00 -0.15308391185E+03  0.15308391185E+03  0.00000000000E+00 0. -1.
      99926    2    1    2    0    0 -0.71054273576E-14 -0.14210854715E-13  0.17224499314E+03  0.47841281684E+03  0.44633001877E+03 0.  0.
      99925    2    3    3    0    0 -0.44967247697E+02 -0.70024016610E+02  0.41044560594E+02  0.27894733645E+03  0.26306186400E+03 0.  0.
         25    1    3    3    0    0  0.44967247697E+02  0.70024016610E+02  0.13120043254E+03  0.19946548039E+03  0.12509000000E+03 0.  0.
         25    1    4    4    0    0 -0.34956912582E+02 -0.15646614061E+02  0.54087701924E+02  0.14156196477E+03  0.12509000000E+03 0.  0.
         25    1    4    4    0    0 -0.10010335116E+02 -0.54377402549E+02 -0.13043141330E+02  0.13738537168E+03  0.12509000000E+03 0.  0.
<mgrwt>
<rscale>  2 0.44633002E+03</rscale>
<asrwt>0</asrwt>
<pdfrwt beam="1">  1       21 0.47842486E-01 0.44633002E+03</pdfrwt>
<pdfrwt beam="2">  1       21 0.22512340E-01 0.44633002E+03</pdfrwt>
<totfact> 0.71619412E+04</totfact>
</mgrwt>
</event>
<event>
 7    0  0.4737014E-002  0.4537458E+03  0.7546771E-02  0.1026611E+00
         21   -1    0    0  502  501  0.00000000000E+00  0.00000000000E+00  0.77774875534E+02  0.77774875534E+02  0.00000000000E+00 0.  1.
         21   -1    0    0  501  502 -0.00000000000E+00 -0.00000000000E+00 -0.66179882556E+03  0.66179882556E+03  0.00000000000E+00 0.  1.
      99926    2    1    2    0    0  0.14210854715E-13  0.00000000000E+00 -0.58402395002E+03  0.73957370109E+03  0.45374583761E+03 0.  0.
      99925    2    3    3    0    0 -0.97017614242E+02 -0.29847307023E+02 -0.44506226014E+03  0.52682704762E+03  0.26298867559E+03 0.  0.
         25    1    4    4    0    0 -0.60774690988E+02 -0.58326499420E+01 -0.29811944635E+03  0.32901412623E+03  0.12509000000E+03 0.  0.
         25    1    3    3    0    0  0.97017614242E+02  0.29847307023E+02 -0.13896168988E+03  0.21274665347E+03  0.12509000000E+03 0.  0.
         25    1    4    4    0    0 -0.36242923254E+02 -0.24014657081E+02 -0.14694281380E+03  0.19781292139E+03  0.12509000000E+03 0.  0.
<mgrwt>
<rscale>  2 0.45374584E+03</rscale>
<asrwt>0</asrwt>
<pdfrwt beam="1">  1       21 0.11437482E-01 0.45374584E+03</pdfrwt>
<pdfrwt beam="2">  1       21 0.97323353E-01 0.45374584E+03</pdfrwt>
<totfact> 0.51310510E+04</totfact>
</mgrwt>
</event>
<event>
 7    0  0.4737014E-002  0.4631956E+03  0.7546771E-02  0.1023858E+00
         21   -1    0    0  502  501  0.00000000000E+00  0.00000000000E+00  0.23795824083E+03  0.23795824083E+03  0.00000000000E+00 0. -1.
         21   -1    0    0  501  502 -0.00000000000E+00 -0.00000000000E+00 -0.22540739264E+03  0.22540739264E+03  0.00000000000E+00 0. -1.
      99926    2    1    2    0    0  0.14210854715E-13 -0.71054273576E-14  0.12550848188E+02  0.46336563347E+03  0.46319562443E+03 0.  0.
      99925    2    3    3    0    0  0.96853544711E+02 -0.62681160002E+02 -0.27516173103E+02  0.28854454997E+03  0.26304235513E+03 0.  0.
         25    1    4    4    0    0  0.91542305363E+02 -0.31780445694E+02 -0.17481090259E+02  0.15919512246E+03  0.12509000000E+03 0.  0.
         25    1    4    4    0    0  0.53112393482E+01 -0.30900714308E+02 -0.10035082844E+02  0.12934942750E+03  0.12509000000E+03 0.  0.
         25    1    3    3    0    0 -0.96853544711E+02  0.62681160002E+02  0.40067021290E+02  0.17482108350E+03  0.12509000000E+03 0.  0.
<mgrwt>
<rscale>  2 0.46319562E+03</rscale>
<asrwt>0</asrwt>
<pdfrwt beam="1">  1       21 0.34993859E-01 0.46319562E+03</pdfrwt>
<pdfrwt beam="2">  1       21 0.33148146E-01 0.46319562E+03</pdfrwt>
<totfact> 0.63670684E+04</totfact>
</mgrwt>
</event>
<event>
 7    0  0.4737014E-002  0.4581412E+03  0.7546771E-02  0.1025322E+00
         21   -1    0    0  502  501  0.00000000000E+00  0.00000000000E+00  0.12977748440E+03  0.12977748440E+03  0.00000000000E+00 0.  1.
         21   -1    0    0  501  502 -0.00000000000E+00 -0.00000000000E+00 -0.40433307957E+03  0.40433307957E+03  0.00000000000E+00 0.  1.
      99926    2    1    2    0    0  0.00000000000E+00  0.00000000000E+00 -0.27455559517E+03  0.53411056397E+03  0.45814115696E+03 0.  0.
      99925    2    3    3    0    0  0.10145165646E+03 -0.40330938157E+02 -0.21823920660E+03  0.35878781332E+03  0.26302342200E+03 0.  0.
         25    1    4    4    0    0  0.25994965671E+02 -0.77740794693E+01 -0.61296580127E+02  0.14191882675E+03  0.12509000000E+03 0.  0.
         25    1    3    3    0    0 -0.10145165646E+03  0.40330938157E+02 -0.56316388576E+02  0.17532275064E+03  0.12509000000E+03 0.  0.
         25    1    4    4    0    0  0.75456690789E+02 -0.32556858687E+02 -0.15694262647E+03  0.21686898657E+03  0.12509000000E+03 0.  0.
<mgrwt>
<rscale>  2 0.45814116E+03</rscale>
<asrwt>0</asrwt>
<pdfrwt beam="1">  1       21 0.19084924E-01 0.45814116E+03</pdfrwt>
<pdfrwt beam="2">  1       21 0.59460747E-01 0.45814116E+03</pdfrwt>
<totfact> 0.61386566E+04</totfact>
</mgrwt>
</event>
<event>
 7    0  0.4737014E-002  0.4565326E+03  0.7546771E-02  0.1025792E+00
         21   -1    0    0  502  501  0.00000000000E+00  0.00000000000E+00  0.10603637761E+03  0.10603637761E+03  0.00000000000E+00 0.  1.
         21   -1    0    0  501  502 -0.00000000000E+00 -0.00000000000E+00 -0.49139278339E+03  0.49139278339E+03  0.00000000000E+00 0.  1.
      99926    2    1    2    0    0  0.14210854715E-13  0.35527136788E-14 -0.38535640578E+03  0.59742916100E+03  0.45653263074E+03 0.  0.
      99925    2    3    3    0    0  0.63818397838E+02  0.30050586056E+02 -0.36046715146E+03  0.45168003165E+03  0.26287346402E+03 0.  0.
         25    1    4    4    0    0 -0.75012679158E+01  0.36059028933E+01 -0.17861060223E+03  0.21821669708E+03  0.12509000000E+03 0.  0.
         25    1    4    4    0    0  0.71319665754E+02  0.26444683163E+02 -0.18185654923E+03  0.23346333457E+03  0.12509000000E+03 0.  0.
         25    1    3    3    0    0 -0.63818397838E+02 -0.30050586056E+02 -0.24889254324E+02  0.14574912935E+03  0.12509000000E+03 0.  0.
<mgrwt>
<rscale>  2 0.45653263E+03</rscale>
<asrwt>0</asrwt>
<pdfrwt beam="1">  1       21 0.15593585E-01 0.45653263E+03</pdfrwt>
<pdfrwt beam="2">  1       21 0.72263644E-01 0.45653263E+03</pdfrwt>
<totfact> 0.58129593E+04</totfact>
</mgrwt>
</event>
<event>
 7    0  0.4737014E-002  0.4197664E+03  0.7546771E-02  0.1037142E+00
         21   -1    0    0  502  501  0.00000000000E+00  0.00000000000E+00  0.19340112191E+03  0.19340112191E+03  0.00000000000E+00 0.  1.
         21   -1    0    0  501  502 -0.00000000000E+00 -0.00000000000E+00 -0.22776987271E+03  0.22776987271E+03  0.00000000000E+00 0.  1.
      99926    2    1    2    0    0  0.88817841970E-15  0.00000000000E+00 -0.34368750797E+02  0.42117099462E+03  0.41976635844E+03 0.  0.
      99925    2    3    3    0    0 -0.55068046543E+01  0.29073679188E+02  0.47258532723E+02  0.26890108546E+03  0.26305668805E+03 0.  0.
         25    1    4    4    0    0 -0.42349484997E+02  0.23453574816E+02  0.21061860713E+02  0.13577429480E+03  0.12509000000E+03 0.  0.
         25    1    4    4    0    0  0.36842680342E+02  0.56201043724E+01  0.26196672010E+02  0.13312679066E+03  0.12509000000E+03 0.  0.
         25    1    3    3    0    0  0.55068046543E+01 -0.29073679188E+02 -0.81627283520E+02  0.15226990915E+03  0.12509000000E+03 0.  0.
<mgrwt>
<rscale>  2 0.41976636E+03</rscale>
<asrwt>0</asrwt>
<pdfrwt beam="1">  1       21 0.28441342E-01 0.41976636E+03</pdfrwt>
<pdfrwt beam="2">  1       21 0.33495569E-01 0.41976636E+03</pdfrwt>
<totfact> 0.95167890E+04</totfact>
</mgrwt>
</event>
<event>
 7    0  0.4737014E-002  0.4392896E+03  0.7546771E-02  0.1030965E+00
         21   -1    0    0  502  501  0.00000000000E+00  0.00000000000E+00  0.44668944833E+02  0.44668944833E+02  0.00000000000E+00 0.  1.
         21   -1    0    0  501  502 -0.00000000000E+00 -0.00000000000E+00 -0.10800308880E+04  0.10800308880E+04  0.00000000000E+00 0.  1.
      99926    2    1    2    0    0  0.00000000000E+00  0.00000000000E+00 -0.10353619432E+04  0.11246998328E+04  0.43928960905E+03 0.  0.
      99925    2    3    3    0    0  0.93694889058E+02 -0.13693554719E+02 -0.72269055997E+03  0.77487538022E+03  0.26302844660E+03 0.  0.
         25    1    4    4    0    0  0.55300625693E+02  0.75779990934E+00 -0.25945406908E+03  0.29329619078E+03  0.12509000000E+03 0.  0.
         25    1    3    3    0    0 -0.93694889058E+02  0.13693554719E+02 -0.31267138320E+03  0.34982445261E+03  0.12509000000E+03 0.  0.
         25    1    4    4    0    0  0.38394263365E+02 -0.14451354629E+02 -0.46323649089E+03  0.48157918944E+03  0.12509000000E+03 0.  0.
<mgrwt>
<rscale>  2 0.43928961E+03</rscale>
<asrwt>0</asrwt>
<pdfrwt beam="1">  1       21 0.65689637E-02 0.43928961E+03</pdfrwt>
<pdfrwt beam="2">  1       21 0.15882804E+00 0.43928961E+03</pdfrwt>
<totfact> 0.39226964E+04</totfact>
</mgrwt>
</event>
<event>
 7    0  0.4737014E-002  0.4571955E+03  0.7546771E-02  0.1025598E+00
         21   -1    0    0  502  501  0.00000000000E+00  0.00000000000E+00  0.69678899798E+02  0.69678899798E+02  0.00000000000E+00 0.  1.
         21   -1    0    0  501  502 -0.00000000000E+00 -0.00000000000E+00 -0.74996791310E+03  0.74996791310E+03  0.00000000000E+00 0.  1.
      99926    2    1    2    0    0 -0.71054273576E-14  0.00000000000E+00 -0.68028901330E+03  0.81964681290E+03  0.45719553396E+03 0.  0.
      99925    2    3    3    0    0  0.42329235267E+02 -0.10356543579E+03 -0.37799968776E+03  0.47389559007E+03  0.26301274246E+03 0.  0.
         25    1    4    4    0    0  0.56996628219E+02 -0.65672340457E+02 -0.23024224644E+03  0.27608055360E+03  0.12509000000E+03 0.  0.
         25    1    4    4    0    0 -0.14667392951E+02 -0.37893095334E+02 -0.14775744132E+03  0.19781503648E+03  0.12509000000E+03 0.  0.
         25    1    3    3    0    0 -0.42329235267E+02  0.10356543579E+03 -0.30228932554E+03  0.34575122283E+03  0.12509000000E+03 0.  0.
<mgrwt>
<rscale>  2 0.45719553E+03</rscale>
<asrwt>0</asrwt>
<pdfrwt beam="1">  1       21 0.10246897E-01 0.45719553E+03</pdfrwt>
<pdfrwt beam="2">  1       21 0.11028940E+00 0.45719553E+03</pdfrwt>
<totfact> 0.46031014E+04</totfact>
</mgrwt>
</event>
<event>
 7    0  0.4737014E-002  0.4499945E+03  0.7546771E-02  0.1027724E+00
         21   -1    0    0  502  501  0.00000000000E+00  0.00000000000E+00  0.10545965676E+03  0.10545965676E+03  0.00000000000E+00 0. -1.
         21   -1    0    0  501  502 -0.00000000000E+00 -0.00000000000E+00 -0.48002970592E+03  0.48002970592E+03  0.00000000000E+00 0. -1.
      99926    2    1    2    0    0 -0.14210854715E-13  0.00000000000E+00 -0.37457004916E+03  0.58548936268E+03  0.44999452450E+03 0.  0.
      99925    2    3    3    0    0 -0.76133712161E+02 -0.29384817208E+02 -0.14416826748E+03  0.31091278190E+03  0.26310161343E+03 0.  0.
         25    1    4    4    0    0 -0.42049551939E+02 -0.55542614730E+02 -0.76990786916E+02  0.16256763589E+03  0.12509000000E+03 0.  0.
         25    1    3    3    0    0  0.76133712161E+02  0.29384817208E+02 -0.23040178168E+03  0.27457658078E+03  0.12509000000E+03 0.  0.
         25    1    4    4    0    0 -0.34084160223E+02  0.26157797522E+02 -0.67177480564E+02  0.14834514601E+03  0.12509000000E+03 0.  0.
<mgrwt>
<rscale>  2 0.44999452E+03</rscale>
<asrwt>0</asrwt>
<pdfrwt beam="1">  1       21 0.15508773E-01 0.44999452E+03</pdfrwt>
<pdfrwt beam="2">  1       21 0.70592604E-01 0.44999452E+03</pdfrwt>
<totfact> 0.61997199E+04</totfact>
</mgrwt>
</event>
<event>
 7    0  0.4737014E-002  0.4468258E+03  0.7546771E-02  0.1028673E+00
         21   -1    0    0  502  501  0.00000000000E+00  0.00000000000E+00  0.10639353948E+03  0.10639353948E+03  0.00000000000E+00 0.  1.
         21   -1    0    0  501  502 -0.00000000000E+00 -0.00000000000E+00 -0.46913865265E+03  0.46913865265E+03  0.00000000000E+00 0.  1.
      99926    2    1    2    0    0  0.00000000000E+00  0.00000000000E+00 -0.36274511316E+03  0.57553219213E+03  0.44682579050E+03 0.  0.
      99925    2    3    3    0    0  0.16796749732E+02  0.56382980365E+02 -0.34264415882E+03  0.43584422650E+03  0.26285737373E+03 0.  0.
         25    1    4    4    0    0  0.45526864832E+02  0.41648551774E+02 -0.19343043522E+03  0.23847460799E+03  0.12509000000E+03 0.  0.
         25    1    3    3    0    0 -0.16796749732E+02 -0.56382980365E+02 -0.20100954340E+02  0.13968796563E+03  0.12509000000E+03 0.  0.
         25    1    4    4    0    0 -0.28730115100E+02  0.14734428591E+02 -0.14921372360E+03  0.19736961851E+03  0.12509000000E+03 0.  0.
<mgrwt>
<rscale>  2 0.44682579E+03</rscale>
<asrwt>0</asrwt>
<pdfrwt beam="1">  1       21 0.15646109E-01 0.44682579E+03</pdfrwt>
<pdfrwt beam="2">  1       21 0.68990977E-01 0.44682579E+03</pdfrwt>
<totfact> 0.64263883E+04</totfact>
</mgrwt>
</event>
<event>
 7    0  0.4737014E-002  0.4545160E+03  0.7546771E-02  0.1026384E+00
         21   -1    0    0  502  501  0.00000000000E+00  0.00000000000E+00  0.46947654328E+03  0.46947654328E+03  0.00000000000E+00 0. -1.
         21   -1    0    0  501  502 -0.00000000000E+00 -0.00000000000E+00 -0.11000804271E+03  0.11000804271E+03  0.00000000000E+00 0. -1.
      99926    2    1    2    0    0  0.00000000000E+00  0.00000000000E+00  0.35946850057E+03  0.57948458599E+03  0.45451598707E+03 0.  0.
      99925    2    3    3    0    0  0.11155591131E+03 -0.14986569880E+02  0.23690009149E+03  0.37130235421E+03  0.26282021663E+03 0.  0.
         25    1    4    4    0    0  0.51331643014E+02  0.36162214296E+01  0.16654650798E+03  0.21455363444E+03  0.12509000000E+03 0.  0.
         25    1    4    4    0    0  0.60224268299E+02 -0.18602791310E+02  0.70353583510E+02  0.15674871977E+03  0.12509000000E+03 0.  0.
         25    1    3    3    0    0 -0.11155591131E+03  0.14986569880E+02  0.12256840908E+03  0.20818223178E+03  0.12509000000E+03 0.  0.
<mgrwt>
<rscale>  2 0.45451599E+03</rscale>
<asrwt>0</asrwt>
<pdfrwt beam="1">  1       21 0.69040668E-01 0.45451599E+03</pdfrwt>
<pdfrwt beam="2">  1       21 0.16177653E-01 0.45451599E+03</pdfrwt>
<totfact> 0.60189138E+04</totfact>
</mgrwt>
</event>
<event>
 7    0  0.4737014E-002  0.4568337E+03  0.7546771E-02  0.1025704E+00
         21   -1    0    0  502  501  0.00000000000E+00  0.00000000000E+00  0.29254218247E+03  0.29254218247E+03  0.00000000000E+00 0. -1.
         21   -1    0    0  501  502 -0.00000000000E+00 -0.00000000000E+00 -0.17834781646E+03  0.17834781646E+03  0.00000000000E+00 0. -1.
      99926    2    1    2    0    0  0.00000000000E+00  0.00000000000E+00  0.11419436600E+03  0.47088999893E+03  0.45683370921E+03 0.  0.
      99925    2    3    3    0    0  0.57097671124E+02  0.99219458871E+02  0.74583649218E+02  0.29676027129E+03  0.26343745523E+03 0.  0.
         25    1    3    3    0    0 -0.57097671124E+02 -0.99219458871E+02  0.39610716787E+02  0.17412972765E+03  0.12509000000E+03 0.  0.
         25    1    4    4    0    0  0.63306260247E+02  0.36045745935E+02  0.19526628280E+02  0.14606770929E+03  0.12509000000E+03 0.  0.
         25    1    4    4    0    0 -0.62085891224E+01  0.63173712936E+02  0.55057020938E+02  0.15069256199E+03  0.12509000000E+03 0.  0.
<mgrwt>
<rscale>  2 0.45683371E+03</rscale>
<asrwt>0</asrwt>
<pdfrwt beam="1">  1       21 0.43020909E-01 0.45683371E+03</pdfrwt>
<pdfrwt beam="2">  1       21 0.26227620E-01 0.45683371E+03</pdfrwt>
<totfact> 0.66398459E+04</totfact>
</mgrwt>
</event>
<event>
 7    0  0.4737014E-002  0.4525821E+03  0.7546771E-02  0.1026955E+00
         21   -1    0    0  502  501  0.00000000000E+00  0.00000000000E+00  0.85620797020E+02  0.85620797020E+02  0.00000000000E+00 0.  1.
         21   -1    0    0  501  502 -0.00000000000E+00 -0.00000000000E+00 -0.59807468491E+03  0.59807468491E+03  0.00000000000E+00 0.  1.
      99926    2    1    2    0    0  0.00000000000E+00  0.35527136788E-14 -0.51245388789E+03  0.68369548193E+03  0.45258206416E+03 0.  0.
      99925    2    3    3    0    0 -0.98402127261E+02  0.29234328656E+02 -0.25981108828E+03  0.38367295458E+03  0.26299336467E+03 0.  0.
         25    1    3    3    0    0  0.98402127261E+02 -0.29234328656E+02 -0.25264279961E+03  0.30002252735E+03  0.12509000000E+03 0.  0.
         25    1    4    4    0    0 -0.18562006095E+02  0.40500619025E+02 -0.10901205447E+03  0.17180216626E+03  0.12509000000E+03 0.  0.
         25    1    4    4    0    0 -0.79840121166E+02 -0.11266290369E+02 -0.15079903381E+03  0.21187078832E+03  0.12509000000E+03 0.  0.
<mgrwt>
<rscale>  2 0.45258206E+03</rscale>
<asrwt>0</asrwt>
<pdfrwt beam="1">  1       21 0.12591294E-01 0.45258206E+03</pdfrwt>
<pdfrwt beam="2">  1       21 0.87952156E-01 0.45258206E+03</pdfrwt>
<totfact> 0.54833880E+04</totfact>
</mgrwt>
</event>
<event>
 7    0  0.4737014E-002  0.4516673E+03  0.7546771E-02  0.1027226E+00
         21   -1    0    0  502  501  0.00000000000E+00  0.00000000000E+00  0.72499564813E+03  0.72499564813E+03  0.00000000000E+00 0.  1.
         21   -1    0    0  501  502 -0.00000000000E+00 -0.00000000000E+00 -0.70346413188E+02  0.70346413188E+02  0.00000000000E+00 0.  1.
      99926    2    1    2    0    0  0.00000000000E+00  0.71054273576E-14  0.65464923494E+03  0.79534206131E+03  0.45166732635E+03 0.  0.
      99925    2    3    3    0    0 -0.79511416094E+02  0.35817040718E+02  0.53188513166E+03  0.59957827802E+03  0.26265451167E+03 0.  0.
         25    1    3    3    0    0  0.79511416094E+02 -0.35817040718E+02  0.12276410328E+03  0.19576378329E+03  0.12509000000E+03 0.  0.
         25    1    4    4    0    0 -0.15242628564E+02 -0.41052159443E+01  0.19335016889E+03  0.23082674549E+03  0.12509000000E+03 0.  0.
         25    1    4    4    0    0 -0.64268787530E+02  0.39922256662E+02  0.33853496277E+03  0.36875153253E+03  0.12509000000E+03 0.  0.
<mgrwt>
<rscale>  2 0.45166733E+03</rscale>
<asrwt>0</asrwt>
<pdfrwt beam="1">  1       21 0.10661700E+00 0.45166733E+03</pdfrwt>
<pdfrwt beam="2">  1       21 0.10345061E-01 0.45166733E+03</pdfrwt>
<totfact> 0.49266944E+04</totfact>
</mgrwt>
</event>
<event>
 7    0  0.4737014E-002  0.4577130E+03  0.7546771E-02  0.1025447E+00
         21   -1    0    0  502  501  0.00000000000E+00  0.00000000000E+00  0.31548924633E+03  0.31548924633E+03  0.00000000000E+00 0.  1.
         21   -1    0    0  501  502 -0.00000000000E+00 -0.00000000000E+00 -0.16601293824E+03  0.16601293824E+03  0.00000000000E+00 0.  1.
      99926    2    1    2    0    0  0.00000000000E+00  0.14210854715E-13  0.14947630808E+03  0.48150218457E+03  0.45771299639E+03 0.  0.
      99925    2    3    3    0    0  0.93282191442E+02 -0.64367142026E+02  0.11698029755E+03  0.30960630035E+03  0.26330016139E+03 0.  0.
         25    1    4    4    0    0  0.41526846452E+02  0.88176082756E+00  0.27300524751E+02  0.13460342949E+03  0.12509000000E+03 0.  0.
         25    1    3    3    0    0 -0.93282191442E+02  0.64367142026E+02  0.32496010529E+02  0.17189588422E+03  0.12509000000E+03 0.  0.
         25    1    4    4    0    0  0.51755344991E+02 -0.65248902853E+02  0.89679772802E+02  0.17500287086E+03  0.12509000000E+03 0.  0.
<mgrwt>
<rscale>  2 0.45771300E+03</rscale>
<asrwt>0</asrwt>
<pdfrwt beam="1">  1       21 0.46395477E-01 0.45771300E+03</pdfrwt>
<pdfrwt beam="2">  1       21 0.24413667E-01 0.45771300E+03</pdfrwt>
<totfact> 0.65176049E+04</totfact>
</mgrwt>
</event>
<event>
 7    0  0.4737014E-002  0.4587473E+03  0.7546771E-02  0.1025145E+00
         21   -1    0    0  502  501  0.00000000000E+00  0.00000000000E+00  0.12603502274E+04  0.12603502274E+04  0.00000000000E+00 0. -1.
         21   -1    0    0  501  502 -0.00000000000E+00 -0.00000000000E+00 -0.41744173267E+02  0.41744173267E+02  0.00000000000E+00 0. -1.
      99926    2    1    2    0    0  0.14210854715E-13  0.14210854715E-13  0.12186060541E+04  0.13020944007E+04  0.45874733032E+03 0.  0.
      99925    2    3    3    0    0 -0.73018708478E+02 -0.66613905724E+02  0.58839492237E+03  0.65203077076E+03  0.26299505153E+03 0.  0.
         25    1    4    4    0    0  0.34164048798E+01 -0.17666955500E+02  0.26922117224E+03  0.29740770135E+03  0.12509000000E+03 0.  0.
         25    1    3    3    0    0  0.73018708478E+02  0.66613905724E+02  0.63021113176E+03  0.65006362990E+03  0.12509000000E+03 0.  0.
         25    1    4    4    0    0 -0.76435113358E+02 -0.48946950224E+02  0.31917375013E+03  0.35462306942E+03  0.12509000000E+03 0.  0.
<mgrwt>
<rscale>  2 0.45874733E+03</rscale>
<asrwt>0</asrwt>
<pdfrwt beam="1">  1       21 0.18534560E+00 0.45874733E+03</pdfrwt>
<pdfrwt beam="2">  1       21 0.61388499E-02 0.45874733E+03</pdfrwt>
<totfact> 0.28222420E+04</totfact>
</mgrwt>
</event>
<event>
 7    0  0.4737014E-002  0.4201148E+03  0.7546771E-02  0.1037029E+00
         21   -1    0    0  502  501  0.00000000000E+00  0.00000000000E+00  0.17804170305E+04  0.17804170305E+04  0.00000000000E+00 0.  1.
         21   -1    0    0  501  502 -0.00000000000E+00 -0.00000000000E+00 -0.24783024168E+02  0.24783024168E+02  0.00000000000E+00 0.  1.
      99926    2    1    2    0    0 -0.35527136788E-14 -0.17763568394E-14  0.17556340063E+04  0.18052000546E+04  0.42011483332E+03 0.  0.
      99925    2    3    3    0    0 -0.28590490782E+02  0.11270920376E+02  0.84526060450E+03  0.88575908936E+03  0.26298141582E+03 0.  0.
         25    1    4    4    0    0 -0.36415820162E+02 -0.28116179269E+02  0.41283778747E+03  0.43381929228E+03  0.12509000000E+03 0.  0.
         25    1    4    4    0    0  0.78253293804E+01  0.39387099646E+02  0.43242281703E+03  0.45193979708E+03  0.12509000000E+03 0.  0.
         25    1    3    3    0    0  0.28590490782E+02 -0.11270920376E+02  0.91037340179E+03  0.91944096526E+03  0.12509000000E+03 0.  0.
<mgrwt>
<rscale>  2 0.42011483E+03</rscale>
<asrwt>0</asrwt>
<pdfrwt beam="1">  1       21 0.26182595E+00 0.42011483E+03</pdfrwt>
<pdfrwt beam="2">  1       21 0.36445636E-02 0.42011483E+03</pdfrwt>
<totfact> 0.22715412E+04</totfact>
</mgrwt>
</event>
<event>
 7    0  0.4737014E-002  0.4567542E+03  0.7546771E-02  0.1025727E+00
         21   -1    0    0  502  501  0.00000000000E+00  0.00000000000E+00  0.24045618986E+03  0.24045618986E+03  0.00000000000E+00 0. -1.
         21   -1    0    0  501  502 -0.00000000000E+00 -0.00000000000E+00 -0.21690478549E+03  0.21690478549E+03  0.00000000000E+00 0. -1.
      99926    2    1    2    0    0  0.00000000000E+00  0.00000000000E+00  0.23551404361E+02  0.45736097535E+03  0.45675419333E+03 0.  0.
      99925    2    3    3    0    0 -0.51696829276E+02 -0.77547719774E+02 -0.52304053453E+02  0.28390271069E+03  0.26301867639E+03 0.  0.
         25    1    4    4    0    0 -0.90433852767E+01 -0.49769582237E+02  0.97417619889E+01  0.13528194321E+03  0.12509000000E+03 0.  0.
         25    1    3    3    0    0  0.51696829276E+02  0.77547719774E+02  0.75855457815E+02  0.17345826466E+03  0.12509000000E+03 0.  0.
         25    1    4    4    0    0 -0.42653444000E+02 -0.27778137536E+02 -0.62045815442E+02  0.14862076747E+03  0.12509000000E+03 0.  0.
<mgrwt>
<rscale>  2 0.45675419E+03</rscale>
<asrwt>0</asrwt>
<pdfrwt beam="1">  1       21 0.35361205E-01 0.45675419E+03</pdfrwt>
<pdfrwt beam="2">  1       21 0.31897762E-01 0.45675419E+03</pdfrwt>
<totfact> 0.67424545E+04</totfact>
</mgrwt>
</event>
<event>
 7    0  0.4737014E-002  0.4708545E+03  0.7546771E-02  0.1021679E+00
         21   -1    0    0  502  501  0.00000000000E+00  0.00000000000E+00  0.67611020866E+02  0.67611020866E+02  0.00000000000E+00 0. -1.
         21   -1    0    0  501  502 -0.00000000000E+00 -0.00000000000E+00 -0.81977756940E+03  0.81977756940E+03  0.00000000000E+00 0. -1.
      99926    2    1    2    0    0  0.00000000000E+00  0.00000000000E+00 -0.75216654854E+03  0.88738859027E+03  0.47085453529E+03 0.  0.
      99925    2    3    3    0    0 -0.25890856372E+02 -0.68689635739E+02 -0.66324175186E+03  0.71726002105E+03  0.26302797166E+03 0.  0.
         25    1    4    4    0    0  0.18747699330E+02 -0.71270351823E+01 -0.30651079966E+03  0.33166044272E+03  0.12509000000E+03 0.  0.
         25    1    3    3    0    0  0.25890856372E+02  0.68689635739E+02 -0.88924796675E+02  0.17012856922E+03  0.12509000000E+03 0.  0.
         25    1    4    4    0    0 -0.44638555703E+02 -0.61562600556E+02 -0.35673095220E+03  0.38559957832E+03  0.12509000000E+03 0.  0.
<mgrwt>
<rscale>  2 0.47085454E+03</rscale>
<asrwt>0</asrwt>
<pdfrwt beam="1">  1       21 0.99427982E-02 0.47085454E+03</pdfrwt>
<pdfrwt beam="2">  1       21 0.12055551E+00 0.47085454E+03</pdfrwt>
<totfact> 0.38744323E+04</totfact>
</mgrwt>
</event>
<event>
 7    0  0.4737014E-002  0.4831329E+03  0.7546771E-02  0.1018278E+00
         21   -1    0    0  502  501  0.00000000000E+00  0.00000000000E+00  0.93302285964E+03  0.93302285964E+03  0.00000000000E+00 0.  1.
         21   -1    0    0  501  502 -0.00000000000E+00 -0.00000000000E+00 -0.62543314046E+02  0.62543314046E+02  0.00000000000E+00 0.  1.
      99926    2    1    2    0    0  0.35527136788E-14  0.00000000000E+00  0.87047954559E+03  0.99556617368E+03  0.48313286670E+03 0.  0.
      99925    2    3    3    0    0 -0.24148106604E+02 -0.16755476248E+02  0.25668207804E+03  0.36846274019E+03  0.26270748882E+03 0.  0.
         25    1    3    3    0    0  0.24148106604E+02  0.16755476248E+02  0.61379746754E+03  0.62710343349E+03  0.12509000000E+03 0.  0.
         25    1    4    4    0    0  0.24857846644E+02 -0.24113619831E+02  0.12519522807E+03  0.18033505603E+03  0.12509000000E+03 0.  0.
         25    1    4    4    0    0 -0.49005953248E+02  0.73581435828E+01  0.13148684997E+03  0.18812768416E+03  0.12509000000E+03 0.  0.
<mgrwt>
<rscale>  2 0.48313287E+03</rscale>
<asrwt>0</asrwt>
<pdfrwt beam="1">  1       21 0.13720924E+00 0.48313287E+03</pdfrwt>
<pdfrwt beam="2">  1       21 0.91975468E-02 0.48313287E+03</pdfrwt>
<totfact> 0.31763019E+04</totfact>
</mgrwt>
</event>
<event>
 7    0  0.4737014E-002  0.4312984E+03  0.7546771E-02  0.1033451E+00
         21   -1    0    0  502  501  0.00000000000E+00  0.00000000000E+00  0.60750512004E+03  0.60750512004E+03  0.00000000000E+00 0. -1.
         21   -1    0    0  501  502 -0.00000000000E+00 -0.00000000000E+00 -0.76550116284E+02  0.76550116284E+02  0.00000000000E+00 0. -1.
      99926    2    1    2    0    0  0.00000000000E+00  0.00000000000E+00  0.53095500376E+03  0.68405523633E+03  0.43129844694E+03 0.  0.
      99925    2    3    3    0    0 -0.49138650208E+02  0.74208785250E+02  0.34928195081E+03  0.44620201053E+03  0.26301483283E+03 0.  0.
         25    1    4    4    0    0 -0.45548821084E+02  0.74099440271E+02  0.19943541563E+03  0.25097293730E+03  0.12509000000E+03 0.  0.
         25    1    3    3    0    0  0.49138650208E+02 -0.74208785250E+02  0.18167305295E+03  0.23785322579E+03  0.12509000000E+03 0.  0.
         25    1    4    4    0    0 -0.35898291239E+01  0.10934497910E+00  0.14984653518E+03  0.19522907323E+03  0.12509000000E+03 0.  0.
<mgrwt>
<rscale>  2 0.43129845E+03</rscale>
<asrwt>0</asrwt>
<pdfrwt beam="1">  1       21 0.89338986E-01 0.43129845E+03</pdfrwt>
<pdfrwt beam="2">  1       21 0.11257370E-01 0.43129845E+03</pdfrwt>
<totfact> 0.65101319E+04</totfact>
</mgrwt>
</event>
<event>
 7    0  0.4737014E-002  0.4210003E+03  0.7546771E-02  0.1036741E+00
         21   -1    0    0  502  501  0.00000000000E+00  0.00000000000E+00  0.27074182746E+03  0.27074182746E+03  0.00000000000E+00 0.  1.
         21   -1    0    0  501  502 -0.00000000000E+00 -0.00000000000E+00 -0.16366258364E+03  0.16366258364E+03  0.00000000000E+00 0.  1.
      99926    2    1    2    0    0  0.35527136788E-14  0.00000000000E+00  0.10707924382E+03  0.43440441110E+03  0.42100027069E+03 0.  0.
      99925    2    3    3    0    0  0.99502175873E+01  0.50951764668E+02  0.10848644521E+02  0.26826312937E+03  0.26296829531E+03 0.  0.
         25    1    4    4    0    0  0.35797885111E+02  0.42204875986E+02  0.26337512543E+02  0.13929792821E+03  0.12509000000E+03 0.  0.
         25    1    4    4    0    0 -0.25847667523E+02  0.87468886820E+01 -0.15488868022E+02  0.12896520116E+03  0.12509000000E+03 0.  0.
         25    1    3    3    0    0 -0.99502175873E+01 -0.50951764668E+02  0.96230599302E+02  0.16614128173E+03  0.12509000000E+03 0.  0.
<mgrwt>
<rscale>  2 0.42100027E+03</rscale>
<asrwt>0</asrwt>
<pdfrwt beam="1">  1       21 0.39814974E-01 0.42100027E+03</pdfrwt>
<pdfrwt beam="2">  1       21 0.24068027E-01 0.42100027E+03</pdfrwt>
<totfact> 0.92786249E+04</totfact>
</mgrwt>
</event>
<event>
 7    0  0.4737014E-002  0.4605083E+03  0.7546771E-02  0.1024634E+00
         21   -1    0    0  502  501  0.00000000000E+00  0.00000000000E+00  0.81955059631E+03  0.81955059631E+03  0.00000000000E+00 0.  1.
         21   -1    0    0  501  502 -0.00000000000E+00 -0.00000000000E+00 -0.64690308890E+02  0.64690308890E+02  0.00000000000E+00 0.  1.
      99926    2    1    2    0    0  0.00000000000E+00  0.00000000000E+00  0.75486028742E+03  0.88424090520E+03  0.46050833315E+03 0.  0.
      99925    2    3    3    0    0  0.94929034011E+02  0.44163660983E+02  0.57791676105E+03  0.64357834045E+03  0.26314130641E+03 0.  0.
         25    1    4    4    0    0  0.87436734433E+02  0.38994622354E+02  0.30792272974E+03  0.34587523573E+03  0.12509000000E+03 0.  0.
         25    1    4    4    0    0  0.74922995777E+01  0.51690386288E+01  0.26999403131E+03  0.29770310472E+03  0.12509000000E+03 0.  0.
         25    1    3    3    0    0 -0.94929034011E+02 -0.44163660983E+02  0.17694352636E+03  0.24066256475E+03  0.12509000000E+03 0.  0.
<mgrwt>
<rscale>  2 0.46050833E+03</rscale>
<asrwt>0</asrwt>
<pdfrwt beam="1">  1       21 0.12052214E+00 0.46050833E+03</pdfrwt>
<pdfrwt beam="2">  1       21 0.95132812E-02 0.46050833E+03</pdfrwt>
<totfact> 0.42077380E+04</totfact>
</mgrwt>
</event>
<event>
 7    0  0.4737014E-002  0.4303377E+03  0.7546771E-02  0.1033753E+00
         21   -1    0    0  502  501  0.00000000000E+00  0.00000000000E+00  0.76783202631E+02  0.76783202631E+02  0.00000000000E+00 0. -1.
         21   -1    0    0  501  502 -0.00000000000E+00 -0.00000000000E+00 -0.60296573530E+03  0.60296573530E+03  0.00000000000E+00 0. -1.
      99926    2    1    2    0    0  0.00000000000E+00  0.00000000000E+00 -0.52618253266E+03  0.67974893793E+03  0.43033772892E+03 0.  0.
      99925    2    3    3    0    0 -0.51427770285E+02  0.70851185096E+02 -0.35182465566E+03  0.44798853717E+03  0.26315097400E+03 0.  0.
         25    1    3    3    0    0  0.51427770285E+02 -0.70851185096E+02 -0.17435787700E+03  0.23176040076E+03  0.12509000000E+03 0.  0.
         25    1    4    4    0    0 -0.16838123455E+02  0.68586850848E+02 -0.14728738302E+03  0.20573954361E+03  0.12509000000E+03 0.  0.
         25    1    4    4    0    0 -0.34589646830E+02  0.22643342487E+01 -0.20453727265E+03  0.24224899356E+03  0.12509000000E+03 0.  0.
<mgrwt>
<rscale>  2 0.43033773E+03</rscale>
<asrwt>0</asrwt>
<pdfrwt beam="1">  1       21 0.11291647E-01 0.43033773E+03</pdfrwt>
<pdfrwt beam="2">  1       21 0.88671433E-01 0.43033773E+03</pdfrwt>
<totfact> 0.65913889E+04</totfact>
</mgrwt>
</event>
<event>
 7    0  0.4737014E-002  0.4600447E+03  0.7546771E-02  0.1024768E+00
         21   -1    0    0  502  501  0.00000000000E+00  0.00000000000E+00  0.29129541910E+02  0.29129541910E+02  0.00000000000E+00 0.  1.
         21   -1    0    0  501  502 -0.00000000000E+00 -0.00000000000E+00 -0.18163787391E+04  0.18163787391E+04  0.00000000000E+00 0.  1.
      99926    2    1    2    0    0  0.00000000000E+00  0.00000000000E+00 -0.17872491972E+04  0.18455082810E+04  0.46004469612E+03 0.  0.
      99925    2    3    3    0    0 -0.10676703908E+03  0.31250923716E+02 -0.96321354916E+03  0.10046408252E+04  0.26295822020E+03 0.  0.
         25    1    4    4    0    0 -0.43130317415E+02  0.19741978277E+02 -0.60776175243E+03  0.62231167899E+03  0.12509000000E+03 0.  0.
         25    1    3    3    0    0  0.10676703908E+03 -0.31250923716E+02 -0.82403564806E+03  0.84086745581E+03  0.12509000000E+03 0.  0.
         25    1    4    4    0    0 -0.63636721663E+02  0.11508945440E+02 -0.35545179673E+03  0.38232914625E+03  0.12509000000E+03 0.  0.
<mgrwt>
<rscale>  2 0.46004470E+03</rscale>
<asrwt>0</asrwt>
<pdfrwt beam="1">  1       21 0.42837558E-02 0.46004470E+03</pdfrwt>
<pdfrwt beam="2">  1       21 0.26711454E+00 0.46004470E+03</pdfrwt>
<totfact> 0.15773853E+04</totfact>
</mgrwt>
</event>
<event>
 7    0  0.4737014E-002  0.4532732E+03  0.7546771E-02  0.1026750E+00
         21   -1    0    0  502  501  0.00000000000E+00  0.00000000000E+00  0.64320523299E+02  0.64320523299E+02  0.00000000000E+00 0.  1.
         21   -1    0    0  501  502 -0.00000000000E+00 -0.00000000000E+00 -0.79856560761E+03  0.79856560761E+03  0.00000000000E+00 0.  1.
      99926    2    1    2    0    0  0.88817841970E-15 -0.35527136788E-14 -0.73424508431E+03  0.86288613091E+03  0.45327324108E+03 0.  0.
      99925    2    3    3    0    0 -0.79595653010E+01 -0.17609567351E+02 -0.25369232306E+03  0.36594356281E+03  0.26302365833E+03 0.  0.
         25    1    3    3    0    0  0.79595653010E+01  0.17609567351E+02 -0.48055276125E+03  0.49694256809E+03  0.12509000000E+03 0.  0.
         25    1    4    4    0    0  0.68717074136E+01 -0.46232139567E+02 -0.14499755840E+03  0.19712034683E+03  0.12509000000E+03 0.  0.
         25    1    4    4    0    0 -0.14831272715E+02  0.28622572216E+02 -0.10869476466E+03  0.16882321599E+03  0.12509000000E+03 0.  0.
<mgrwt>
<rscale>  2 0.45327324E+03</rscale>
<asrwt>0</asrwt>
<pdfrwt beam="1">  1       21 0.94589010E-02 0.45327324E+03</pdfrwt>
<pdfrwt beam="2">  1       21 0.11743611E+00 0.45327324E+03</pdfrwt>
<totfact> 0.45481110E+04</totfact>
</mgrwt>
</event>
<event>
 6    0  0.4737014E-002  0.4493691E+03  0.7546771E-02  0.1027910E+00
         21   -1    0    0  502  501  0.00000000000E+00  0.00000000000E+00  0.10447330535E+03  0.10447330535E+03  0.00000000000E+00 0.  1.
         21   -1    0    0  501  502 -0.00000000000E+00 -0.00000000000E+00 -0.48321581033E+03  0.48321581033E+03  0.00000000000E+00 0.  1.
      99926    2    1    2    0    0 -0.54400928207E-14  0.00000000000E+00 -0.37874250497E+03  0.58768911568E+03  0.44936912624E+03 0.  0.
         25    1    3    3    0    0 -0.41386917291E+02 -0.62850186708E+02 -0.10172016514E+03  0.17792561083E+03  0.12509000000E+03 0.  0.
         25    1    3    3    0    0  0.78230893090E+00  0.80712284696E+02 -0.21924255714E+03  0.26500922978E+03  0.12509000000E+03 0.  0.
         25    1    3    3    0    0  0.40604608360E+02 -0.17862097987E+02 -0.57779782695E+02  0.14475427508E+03  0.12509000000E+03 0.  0.
<mgrwt>
<rscale>  2 0.44936913E+03</rscale>
<asrwt>0</asrwt>
<pdfrwt beam="1">  1       21 0.15363721E-01 0.44936913E+03</pdfrwt>
<pdfrwt beam="2">  1       21 0.71061151E-01 0.44936913E+03</pdfrwt>
<totfact> 0.62163267E+04</totfact>
</mgrwt>
</event>
<event>
 7    0  0.4737014E-002  0.4528926E+03  0.7546771E-02  0.1026863E+00
         21   -1    0    0  502  501  0.00000000000E+00  0.00000000000E+00  0.15669521987E+03  0.15669521987E+03  0.00000000000E+00 0.  1.
         21   -1    0    0  501  502 -0.00000000000E+00 -0.00000000000E+00 -0.32724629099E+03  0.32724629099E+03  0.00000000000E+00 0.  1.
      99926    2    1    2    0    0  0.00000000000E+00  0.00000000000E+00 -0.17055107111E+03  0.48394151086E+03  0.45289261208E+03 0.  0.
      99925    2    3    3    0    0  0.17635107774E+02 -0.30774787070E+02 -0.22031705357E+03  0.34472137706E+03  0.26274538847E+03 0.  0.
         25    1    4    4    0    0  0.47799842009E+02 -0.23585362388E+02 -0.12101433642E+03  0.18202492119E+03  0.12509000000E+03 0.  0.
         25    1    4    4    0    0 -0.30164734235E+02 -0.71894246817E+01 -0.99302717148E+02  0.16269645587E+03  0.12509000000E+03 0.  0.
         25    1    3    3    0    0 -0.17635107774E+02  0.30774787070E+02  0.49765982459E+02  0.13922013380E+03  0.12509000000E+03 0.  0.
<mgrwt>
<rscale>  2 0.45289261E+03</rscale>
<asrwt>0</asrwt>
<pdfrwt beam="1">  1       21 0.23043415E-01 0.45289261E+03</pdfrwt>
<pdfrwt beam="2">  1       21 0.48124454E-01 0.45289261E+03</pdfrwt>
<totfact> 0.67537083E+04</totfact>
</mgrwt>
</event>
<event>
 7    0  0.4737014E-002  0.4635559E+03  0.7546771E-02  0.1023755E+00
         21   -1    0    0  502  501  0.00000000000E+00  0.00000000000E+00  0.20959015191E+03  0.20959015191E+03  0.00000000000E+00 0.  1.
         21   -1    0    0  501  502 -0.00000000000E+00 -0.00000000000E+00 -0.25631460464E+03  0.25631460464E+03  0.00000000000E+00 0.  1.
      99926    2    1    2    0    0  0.00000000000E+00 -0.14210854715E-13 -0.46724452724E+02  0.46590475655E+03  0.46355589490E+03 0.  0.
      99925    2    3    3    0    0 -0.69976591100E+02  0.69627732548E+02 -0.99582855393E+02  0.29801710580E+03  0.26296902064E+03 0.  0.
         25    1    4    4    0    0 -0.20355985108E+02  0.59803999399E+01 -0.74269318480E+02  0.14701554707E+03  0.12509000000E+03 0.  0.
         25    1    4    4    0    0 -0.49620605991E+02  0.63647332608E+02 -0.25313536913E+02  0.15100155873E+03  0.12509000000E+03 0.  0.
         25    1    3    3    0    0  0.69976591100E+02 -0.69627732548E+02  0.52858402669E+02  0.16788765075E+03  0.12509000000E+03 0.  0.
<mgrwt>
<rscale>  2 0.46355589E+03</rscale>
<asrwt>0</asrwt>
<pdfrwt beam="1">  1       21 0.30822081E-01 0.46355589E+03</pdfrwt>
<pdfrwt beam="2">  1       21 0.37693324E-01 0.46355589E+03</pdfrwt>
<totfact> 0.63320052E+04</totfact>
</mgrwt>
</event>
<event>
 7    0  0.4737014E-002  0.4387573E+03  0.7546771E-02  0.1031129E+00
         21   -1    0    0  502  501  0.00000000000E+00  0.00000000000E+00  0.16813772278E+03  0.16813772278E+03  0.00000000000E+00 0.  1.
         21   -1    0    0  501  502 -0.00000000000E+00 -0.00000000000E+00 -0.28623558646E+03  0.28623558646E+03  0.00000000000E+00 0.  1.
      99926    2    1    2    0    0  0.00000000000E+00  0.00000000000E+00 -0.11809786368E+03  0.45437330923E+03  0.43875733468E+03 0.  0.
      99925    2    3    3    0    0  0.12038013120E+02  0.72356053562E+02 -0.14136106682E+03  0.30750943700E+03  0.26305662961E+03 0.  0.
         25    1    4    4    0    0 -0.75377507072E+01 -0.21205145371E+01 -0.52934766162E+02  0.13605481188E+03  0.12509000000E+03 0.  0.
         25    1    3    3    0    0 -0.12038013120E+02 -0.72356053562E+02  0.23263203146E+02  0.14686387223E+03  0.12509000000E+03 0.  0.
         25    1    4    4    0    0  0.19575763827E+02  0.74476568100E+02 -0.88426300661E+02  0.17145462512E+03  0.12509000000E+03 0.  0.
<mgrwt>
<rscale>  2 0.43875733E+03</rscale>
<asrwt>0</asrwt>
<pdfrwt beam="1">  1       21 0.24726136E-01 0.43875733E+03</pdfrwt>
<pdfrwt beam="2">  1       21 0.42093469E-01 0.43875733E+03</pdfrwt>
<totfact> 0.78218199E+04</totfact>
</mgrwt>
</event>
<event>
 7    0  0.4737014E-002  0.4627037E+03  0.7546771E-02  0.1024000E+00
         21   -1    0    0  502  501  0.00000000000E+00  0.00000000000E+00  0.32569151235E+03  0.32569151235E+03  0.00000000000E+00 0. -1.
         21   -1    0    0  501  502 -0.00000000000E+00 -0.00000000000E+00 -0.16433854701E+03  0.16433854701E+03  0.00000000000E+00 0. -1.
      99926    2    1    2    0    0  0.35527136788E-14  0.14210854715E-13  0.16135296535E+03  0.49003005936E+03  0.46270366289E+03 0.  0.
      99925    2    3    3    0    0  0.24852120515E+02  0.76749928647E+02  0.63349763018E+01  0.27512016087E+03  0.26295016933E+03 0.  0.
         25    1    4    4    0    0  0.16858439972E+02  0.55169915950E+02 -0.33635174199E+02  0.14179830629E+03  0.12509000000E+03 0.  0.
         25    1    4    4    0    0  0.79936805436E+01  0.21580012697E+02  0.39970150501E+02  0.13332185458E+03  0.12509000000E+03 0.  0.
         25    1    3    3    0    0 -0.24852120515E+02 -0.76749928647E+02  0.15501798905E+03  0.21490989849E+03  0.12509000000E+03 0.  0.
<mgrwt>
<rscale>  2 0.46270366E+03</rscale>
<asrwt>0</asrwt>
<pdfrwt beam="1">  1       21 0.47895811E-01 0.46270366E+03</pdfrwt>
<pdfrwt beam="2">  1       21 0.24167433E-01 0.46270366E+03</pdfrwt>
<totfact> 0.62091944E+04</totfact>
</mgrwt>
</event>
<event>
 7    0  0.4737014E-002  0.4510844E+03  0.7546771E-02  0.1027399E+00
         21   -1    0    0  502  501  0.00000000000E+00  0.00000000000E+00  0.13574834281E+03  0.13574834281E+03  0.00000000000E+00 0.  1.
         21   -1    0    0  501  502 -0.00000000000E+00 -0.00000000000E+00 -0.37473218612E+03  0.37473218612E+03  0.00000000000E+00 0.  1.
      99926    2    1    2    0    0  0.00000000000E+00 -0.44408920985E-15 -0.23898384331E+03  0.51048052894E+03  0.45108435249E+03 0.  0.
      99925    2    3    3    0    0 -0.10364242867E+03  0.32459232843E+01 -0.11023772506E+03  0.30317553598E+03  0.26269899230E+03 0.  0.
         25    1    4    4    0    0 -0.41885778510E+02  0.98617115549E+01 -0.94626474070E+02  0.16264485695E+03  0.12509000000E+03 0.  0.
         25    1    4    4    0    0 -0.61756650161E+02 -0.66157882706E+01 -0.15611250987E+02  0.14053067904E+03  0.12509000000E+03 0.  0.
         25    1    3    3    0    0  0.10364242867E+03 -0.32459232843E+01 -0.12874611825E+03  0.20730499295E+03  0.12509000000E+03 0.  0.
<mgrwt>
<rscale>  2 0.45108435E+03</rscale>
<asrwt>0</asrwt>
<pdfrwt beam="1">  1       21 0.19962992E-01 0.45108435E+03</pdfrwt>
<pdfrwt beam="2">  1       21 0.55107674E-01 0.45108435E+03</pdfrwt>
<totfact> 0.66585562E+04</totfact>
</mgrwt>
</event>
<event>
 7    0  0.4737014E-002  0.4524625E+03  0.7546771E-02  0.1026990E+00
         21   -1    0    0  502  501  0.00000000000E+00  0.00000000000E+00  0.23205744023E+03  0.23205744023E+03  0.00000000000E+00 0.  1.
         21   -1    0    0  501  502 -0.00000000000E+00 -0.00000000000E+00 -0.22055128789E+03  0.22055128789E+03  0.00000000000E+00 0.  1.
      99926    2    1    2    0    0  0.00000000000E+00  0.00000000000E+00  0.11506152337E+02  0.45260872812E+03  0.45246245063E+03 0.  0.
      99925    2    3    3    0    0  0.10735330566E+03  0.13608477884E+02  0.31003729931E+02  0.28606267882E+03  0.26298422393E+03 0.  0.
         25    1    3    3    0    0 -0.10735330566E+03 -0.13608477884E+02 -0.19497577594E+02  0.16654604930E+03  0.12509000000E+03 0.  0.
         25    1    4    4    0    0  0.94948473412E+02  0.31763078326E+01  0.43188238731E+01  0.15713517071E+03  0.12509000000E+03 0.  0.
         25    1    4    4    0    0  0.12404832249E+02  0.10432170051E+02  0.26684906058E+02  0.12892750811E+03  0.12509000000E+03 0.  0.
<mgrwt>
<rscale>  2 0.45246245E+03</rscale>
<asrwt>0</asrwt>
<pdfrwt beam="1">  1       21 0.34126094E-01 0.45246245E+03</pdfrwt>
<pdfrwt beam="2">  1       21 0.32434013E-01 0.45246245E+03</pdfrwt>
<totfact> 0.70130547E+04</totfact>
</mgrwt>
</event>
<event>
 7    0  0.4737014E-002  0.4527590E+03  0.7546771E-02  0.1026902E+00
         21   -1    0    0  502  501  0.00000000000E+00  0.00000000000E+00  0.30934076297E+03  0.30934076297E+03  0.00000000000E+00 0.  1.
         21   -1    0    0  501  502 -0.00000000000E+00 -0.00000000000E+00 -0.16566736775E+03  0.16566736775E+03  0.00000000000E+00 0.  1.
      99926    2    1    2    0    0  0.00000000000E+00  0.00000000000E+00  0.14367339522E+03  0.47500813072E+03  0.45275896431E+03 0.  0.
      99925    2    3    3    0    0  0.89494310301E+02 -0.65700567580E+02  0.91768956856E+02  0.29988710121E+03  0.26303029459E+03 0.  0.
         25    1    4    4    0    0  0.75637024383E+02 -0.13242979219E+02  0.28268735485E+02  0.14947563501E+03  0.12509000000E+03 0.  0.
         25    1    3    3    0    0 -0.89494310301E+02  0.65700567580E+02  0.51904438365E+02  0.17512102952E+03  0.12509000000E+03 0.  0.
         25    1    4    4    0    0  0.13857285917E+02 -0.52457588360E+02  0.63500221371E+02  0.15041146620E+03  0.12509000000E+03 0.  0.
<mgrwt>
<rscale>  2 0.45275896E+03</rscale>
<asrwt>0</asrwt>
<pdfrwt beam="1">  1       21 0.45491289E-01 0.45275896E+03</pdfrwt>
<pdfrwt beam="2">  1       21 0.24362848E-01 0.45275896E+03</pdfrwt>
<totfact> 0.68271495E+04</totfact>
</mgrwt>
</event>
<event>
 7    0  0.4737014E-002  0.4579546E+03  0.7546771E-02  0.1025376E+00
         21   -1    0    0  502  501  0.00000000000E+00  0.00000000000E+00  0.72473472844E+02  0.72473472844E+02  0.00000000000E+00 0.  1.
         21   -1    0    0  501  502 -0.00000000000E+00 -0.00000000000E+00 -0.72344528863E+03  0.72344528863E+03  0.00000000000E+00 0.  1.
      99926    2    1    2    0    0  0.00000000000E+00  0.00000000000E+00 -0.65097181579E+03  0.79591876148E+03  0.45795455006E+03 0.  0.
      99925    2    3    3    0    0 -0.91328985447E+02 -0.13132457462E+02 -0.28650773254E+03  0.39969278921E+03  0.26297186146E+03 0.  0.
         25    1    4    4    0    0 -0.59665805587E+02 -0.33112397583E+02 -0.18916770122E+03  0.23682982607E+03  0.12509000000E+03 0.  0.
         25    1    4    4    0    0 -0.31663179861E+02  0.19979940122E+02 -0.97340031321E+02  0.16286296314E+03  0.12509000000E+03 0.  0.
         25    1    3    3    0    0  0.91328985447E+02  0.13132457462E+02 -0.36446408325E+03  0.39622597227E+03  0.12509000000E+03 0.  0.
<mgrwt>
<rscale>  2 0.45795455E+03</rscale>
<asrwt>0</asrwt>
<pdfrwt beam="1">  1       21 0.10657864E-01 0.45795455E+03</pdfrwt>
<pdfrwt beam="2">  1       21 0.10638901E+00 0.45795455E+03</pdfrwt>
<totfact> 0.46866650E+04</totfact>
</mgrwt>
</event>
<event>
 7    0  0.4737014E-002  0.4579942E+03  0.7546771E-02  0.1025365E+00
         21   -1    0    0  502  501  0.00000000000E+00  0.00000000000E+00  0.67023199235E+03  0.67023199235E+03  0.00000000000E+00 0. -1.
         21   -1    0    0  501  502 -0.00000000000E+00 -0.00000000000E+00 -0.78241071484E+02  0.78241071484E+02  0.00000000000E+00 0. -1.
      99926    2    1    2    0    0  0.14210854715E-13  0.88817841970E-15  0.59199092087E+03  0.74847306384E+03  0.45799418872E+03 0.  0.
      99925    2    3    3    0    0 -0.11451222244E+03  0.42554123925E+01  0.39971640021E+03  0.49205902948E+03  0.26309262679E+03 0.  0.
         25    1    4    4    0    0 -0.20453006450E+02  0.24173292706E+02  0.17169916270E+03  0.21478078155E+03  0.12509000000E+03 0.  0.
         25    1    3    3    0    0  0.11451222244E+03 -0.42554123925E+01  0.19227452066E+03  0.25641403436E+03  0.12509000000E+03 0.  0.
         25    1    4    4    0    0 -0.94059215990E+02 -0.19917880313E+02  0.22801723751E+03  0.27727824792E+03  0.12509000000E+03 0.  0.
<mgrwt>
<rscale>  2 0.45799419E+03</rscale>
<asrwt>0</asrwt>
<pdfrwt beam="1">  1       21 0.98563525E-01 0.45799419E+03</pdfrwt>
<pdfrwt beam="2">  1       21 0.11506040E-01 0.45799419E+03</pdfrwt>
<totfact> 0.49181256E+04</totfact>
</mgrwt>
</event>
<event>
 7    0  0.4737014E-002  0.4504884E+03  0.7546771E-02  0.1027576E+00
         21   -1    0    0  502  501  0.00000000000E+00  0.00000000000E+00  0.40265487910E+02  0.40265487910E+02  0.00000000000E+00 0.  1.
         21   -1    0    0  501  502 -0.00000000000E+00 -0.00000000000E+00 -0.12600108289E+04  0.12600108289E+04  0.00000000000E+00 0.  1.
      99926    2    1    2    0    0  0.00000000000E+00  0.00000000000E+00 -0.12197453409E+04  0.13002763168E+04  0.45048840516E+03 0.  0.
      99925    2    3    3    0    0 -0.97631067977E+02 -0.10032297503E+02 -0.63455869562E+03  0.69387431282E+03  0.26299116215E+03 0.  0.
         25    1    4    4    0    0 -0.30829282951E+02 -0.24042472415E+02 -0.22693233420E+03  0.26205777526E+03  0.12509000000E+03 0.  0.
         25    1    4    4    0    0 -0.66801785026E+02  0.14010174912E+02 -0.40762636142E+03  0.43181653756E+03  0.12509000000E+03 0.  0.
         25    1    3    3    0    0  0.97631067977E+02  0.10032297503E+02 -0.58518664532E+03  0.60640200395E+03  0.12509000000E+03 0.  0.
<mgrwt>
<rscale>  2 0.45048841E+03</rscale>
<asrwt>0</asrwt>
<pdfrwt beam="1">  1       21 0.59213954E-02 0.45048841E+03</pdfrwt>
<pdfrwt beam="2">  1       21 0.18529571E+00 0.45048841E+03</pdfrwt>
<totfact> 0.30150762E+04</totfact>
</mgrwt>
</event>
<event>
 7    0  0.4737014E-002  0.4568325E+03  0.7546771E-02  0.1025704E+00
         21   -1    0    0  502  501  0.00000000000E+00  0.00000000000E+00  0.16716317511E+04  0.16716317511E+04  0.00000000000E+00 0. -1.
         21   -1    0    0  501  502 -0.00000000000E+00 -0.00000000000E+00 -0.31211403412E+02  0.31211403412E+02  0.00000000000E+00 0. -1.
      99926    2    1    2    0    0 -0.23869795029E-14  0.00000000000E+00  0.16404203477E+04  0.17028431545E+04  0.45683245480E+03 0.  0.
      99925    2    3    3    0    0  0.28251707377E+00 -0.30877777808E+02  0.61836738465E+03  0.67270079331E+03  0.26304869882E+03 0.  0.
         25    1    4    4    0    0  0.27493841325E+02 -0.42331404820E+02  0.28158135103E+03  0.31222335674E+03  0.12509000000E+03 0.  0.
         25    1    4    4    0    0 -0.27211324251E+02  0.11453627012E+02  0.33678603362E+03  0.36047743657E+03  0.12509000000E+03 0.  0.
         25    1    3    3    0    0 -0.28251707377E+00  0.30877777808E+02  0.10220529630E+04  0.10301423612E+04  0.12509000000E+03 0.  0.
<mgrwt>
<rscale>  2 0.45683245E+03</rscale>
<asrwt>0</asrwt>
<pdfrwt beam="1">  1       21 0.24582814E+00 0.45683245E+03</pdfrwt>
<pdfrwt beam="2">  1       21 0.45899134E-02 0.45683245E+03</pdfrwt>
<totfact> 0.18931820E+04</totfact>
</mgrwt>
</event>
<event>
 7    0  0.4737014E-002  0.4642011E+03  0.7546771E-02  0.1023570E+00
         21   -1    0    0  502  501  0.00000000000E+00  0.00000000000E+00  0.26944130848E+02  0.26944130848E+02  0.00000000000E+00 0.  1.
         21   -1    0    0  501  502 -0.00000000000E+00 -0.00000000000E+00 -0.19993469760E+04  0.19993469760E+04  0.00000000000E+00 0.  1.
      99926    2    1    2    0    0  0.53290705182E-14 -0.71054273576E-14 -0.19724028452E+04  0.20262911068E+04  0.46420110526E+03 0.  0.
      99925    2    3    3    0    0  0.10119366295E+02  0.60253214798E+02 -0.16897354167E+04  0.17112018581E+04  0.26319796588E+03 0.  0.
         25    1    3    3    0    0 -0.10119366295E+02 -0.60253214798E+02 -0.28266742841E+03  0.31508924871E+03  0.12509000000E+03 0.  0.
         25    1    4    4    0    0 -0.35260196091E+02  0.22705372059E+02 -0.82624073014E+03  0.83670787471E+03  0.12509000000E+03 0.  0.
         25    1    4    4    0    0  0.45379562386E+02  0.37547842738E+02 -0.86349468660E+03  0.87449398343E+03  0.12509000000E+03 0.  0.
<mgrwt>
<rscale>  2 0.46420111E+03</rscale>
<asrwt>0</asrwt>
<pdfrwt beam="1">  1       21 0.39623728E-02 0.46420111E+03</pdfrwt>
<pdfrwt beam="2">  1       21 0.29402157E+00 0.46420111E+03</pdfrwt>
<totfact> 0.12377269E+04</totfact>
</mgrwt>
</event>
<event>
 7    0  0.4737014E-002  0.4249664E+03  0.7546771E-02  0.1035462E+00
         21   -1    0    0  502  501  0.00000000000E+00  0.00000000000E+00  0.10449442947E+04  0.10449442947E+04  0.00000000000E+00 0.  1.
         21   -1    0    0  501  502 -0.00000000000E+00 -0.00000000000E+00 -0.43207194837E+02  0.43207194837E+02  0.00000000000E+00 0.  1.
      99926    2    1    2    0    0 -0.26645352591E-14 -0.17763568394E-14  0.10017370999E+04  0.10881514896E+04  0.42496640684E+03 0.  0.
      99925    2    3    3    0    0 -0.48210860424E+01 -0.42509584932E+01  0.44019071594E+03  0.51280536509E+03  0.26298319822E+03 0.  0.
         25    1    3    3    0    0  0.48210860424E+01  0.42509584932E+01  0.56154638396E+03  0.57534612448E+03  0.12509000000E+03 0.  0.
         25    1    4    4    0    0  0.21318783689E+02  0.30131360782E+02  0.20618777611E+03  0.24397396697E+03  0.12509000000E+03 0.  0.
         25    1    4    4    0    0 -0.26139869731E+02 -0.34382319276E+02  0.23400293983E+03  0.26883139812E+03  0.12509000000E+03 0.  0.
<mgrwt>
<rscale>  2 0.42496641E+03</rscale>
<asrwt>0</asrwt>
<pdfrwt beam="1">  1       21 0.15366826E+00 0.42496641E+03</pdfrwt>
<pdfrwt beam="2">  1       21 0.63539999E-02 0.42496641E+03</pdfrwt>
<totfact> 0.45717001E+04</totfact>
</mgrwt>
</event>
<event>
 7    0  0.4737014E-002  0.4477468E+03  0.7546771E-02  0.1028396E+00
         21   -1    0    0  502  501  0.00000000000E+00  0.00000000000E+00  0.27952436179E+03  0.27952436179E+03  0.00000000000E+00 0. -1.
         21   -1    0    0  501  502 -0.00000000000E+00 -0.00000000000E+00 -0.17930204701E+03  0.17930204701E+03  0.00000000000E+00 0. -1.
      99926    2    1    2    0    0  0.00000000000E+00  0.00000000000E+00  0.10022231478E+03  0.45882640880E+03  0.44774675994E+03 0.  0.
      99925    2    3    3    0    0 -0.21831976045E+02  0.80265074768E+02 -0.42403839336E+01  0.27585351210E+03  0.26297920427E+03 0.  0.
         25    1    3    3    0    0  0.21831976045E+02 -0.80265074768E+02  0.10446269871E+03  0.18297289670E+03  0.12509000000E+03 0.  0.
         25    1    4    4    0    0 -0.17078882132E+02  0.73107328087E+02  0.22594742356E+02  0.14762926579E+03  0.12509000000E+03 0.  0.
         25    1    4    4    0    0 -0.47530939135E+01  0.71577466807E+01 -0.26835126290E+02  0.12822424631E+03  0.12509000000E+03 0.  0.
<mgrwt>
<rscale>  2 0.44774676E+03</rscale>
<asrwt>0</asrwt>
<pdfrwt beam="1">  1       21 0.41106524E-01 0.44774676E+03</pdfrwt>
<pdfrwt beam="2">  1       21 0.26367948E-01 0.44774676E+03</pdfrwt>
<totfact> 0.72349935E+04</totfact>
</mgrwt>
</event>
<event>
 7    0  0.4737014E-002  0.4560130E+03  0.7546771E-02  0.1025944E+00
         21   -1    0    0  502  501  0.00000000000E+00  0.00000000000E+00  0.47446991541E+03  0.47446991541E+03  0.00000000000E+00 0.  1.
         21   -1    0    0  501  502 -0.00000000000E+00 -0.00000000000E+00 -0.10956853185E+03  0.10956853185E+03  0.00000000000E+00 0.  1.
      99926    2    1    2    0    0  0.13877787808E-15  0.00000000000E+00  0.36490138356E+03  0.58403844726E+03  0.45601303507E+03 0.  0.
      99925    2    3    3    0    0 -0.14157540345E+00 -0.22686733370E+02  0.37275910372E+03  0.45666513852E+03  0.26282882532E+03 0.  0.
         25    1    3    3    0    0  0.14157540345E+00  0.22686733370E+02 -0.78577201565E+01  0.12737330874E+03  0.12509000000E+03 0.  0.
         25    1    4    4    0    0  0.35700270552E+01 -0.96874234085E+00  0.25220795352E+03  0.28154936241E+03  0.12509000000E+03 0.  0.
         25    1    4    4    0    0 -0.37116024587E+01 -0.21717991029E+02  0.12055115020E+03  0.17511577611E+03  0.12509000000E+03 0.  0.
<mgrwt>
<rscale>  2 0.45601304E+03</rscale>
<asrwt>0</asrwt>
<pdfrwt beam="1">  1       21 0.69774987E-01 0.45601304E+03</pdfrwt>
<pdfrwt beam="2">  1       21 0.16113020E-01 0.45601304E+03</pdfrwt>
<totfact> 0.59196193E+04</totfact>
</mgrwt>
</event>
<event>
 7    0  0.4737014E-002  0.4557572E+03  0.7546771E-02  0.1026019E+00
         21   -1    0    0  502  501  0.00000000000E+00  0.00000000000E+00  0.20805228720E+04  0.20805228720E+04  0.00000000000E+00 0.  1.
         21   -1    0    0  501  502 -0.00000000000E+00 -0.00000000000E+00 -0.24959422690E+02  0.24959422690E+02  0.00000000000E+00 0.  1.
      99926    2    1    2    0    0  0.00000000000E+00  0.00000000000E+00  0.20555634493E+04  0.21054822947E+04  0.45575717121E+03 0.  0.
      99925    2    3    3    0    0 -0.85424108947E+02 -0.45694004161E+02  0.10170241679E+04  0.10549602495E+04  0.26309266318E+03 0.  0.
         25    1    4    4    0    0 -0.35493097189E+02 -0.50005311746E+02  0.40546139751E+03  0.42872688756E+03  0.12509000000E+03 0.  0.
         25    1    4    4    0    0 -0.49931011758E+02  0.43113075850E+01  0.61156277043E+03  0.62623336192E+03  0.12509000000E+03 0.  0.
         25    1    3    3    0    0  0.85424108947E+02  0.45694004161E+02  0.10385392813E+04  0.10505220452E+04  0.12509000000E+03 0.  0.
<mgrwt>
<rscale>  2 0.45575717E+03</rscale>
<asrwt>0</asrwt>
<pdfrwt beam="1">  1       21 0.30595913E+00 0.45575717E+03</pdfrwt>
<pdfrwt beam="2">  1       21 0.36705048E-02 0.45575717E+03</pdfrwt>
<totfact> 0.11992301E+04</totfact>
</mgrwt>
</event>
<event>
 7    0  0.4737014E-002  0.4522041E+03  0.7546771E-02  0.1027067E+00
         21   -1    0    0  502  501  0.00000000000E+00  0.00000000000E+00  0.10023406219E+04  0.10023406219E+04  0.00000000000E+00 0. -1.
         21   -1    0    0  501  502 -0.00000000000E+00 -0.00000000000E+00 -0.51002769210E+02  0.51002769210E+02  0.00000000000E+00 0. -1.
      99926    2    1    2    0    0 -0.14210854715E-13  0.00000000000E+00  0.95133785268E+03  0.10533433911E+04  0.45220414597E+03 0.  0.
      99925    2    3    3    0    0 -0.93865309589E+02 -0.11635610260E+02  0.46681033970E+03  0.54406890449E+03  0.26296957204E+03 0.  0.
         25    1    4    4    0    0 -0.83260230367E+02  0.86851645566E+00  0.29314900173E+03  0.32941898184E+03  0.12509000000E+03 0.  0.
         25    1    4    4    0    0 -0.10605079223E+02 -0.12504126716E+02  0.17366133797E+03  0.21464992266E+03  0.12509000000E+03 0.  0.
         25    1    3    3    0    0  0.93865309589E+02  0.11635610260E+02  0.48452751298E+03  0.50927448661E+03  0.12509000000E+03 0.  0.
<mgrwt>
<rscale>  2 0.45220415E+03</rscale>
<asrwt>0</asrwt>
<pdfrwt beam="1">  1       21 0.14740302E+00 0.45220415E+03</pdfrwt>
<pdfrwt beam="2">  1       21 0.75004078E-02 0.45220415E+03</pdfrwt>
<totfact> 0.37976916E+04</totfact>
</mgrwt>
</event>
<event>
 7    0  0.4737014E-002  0.4515164E+03  0.7546771E-02  0.1027271E+00
         21   -1    0    0  502  501  0.00000000000E+00  0.00000000000E+00  0.31652113616E+04  0.31652113616E+04  0.00000000000E+00 0. -1.
         21   -1    0    0  501  502 -0.00000000000E+00 -0.00000000000E+00 -0.16102168902E+02  0.16102168902E+02  0.00000000000E+00 0. -1.
      99926    2    1    2    0    0  0.31086244690E-14  0.17763568394E-14  0.31491091927E+04  0.31813135305E+04  0.45151641367E+03 0.  0.
      99925    2    3    3    0    0 -0.25640125101E+01 -0.61656827886E+01  0.27605732924E+04  0.27730829048E+04  0.26301958980E+03 0.  0.
         25    1    4    4    0    0 -0.28126305426E+02 -0.15021324565E+02  0.16811709469E+04  0.16861198030E+04  0.12509000000E+03 0.  0.
         25    1    4    4    0    0  0.25562292916E+02  0.88556417762E+01  0.10794023455E+04  0.10869631018E+04  0.12509000000E+03 0.  0.
         25    1    3    3    0    0  0.25640125101E+01  0.61656827886E+01  0.38853590029E+03  0.40823062565E+03  0.12509000000E+03 0.  0.
<mgrwt>
<rscale>  2 0.45151641E+03</rscale>
<asrwt>0</asrwt>
<pdfrwt beam="1">  1       21 0.46547183E+00 0.45151641E+03</pdfrwt>
<pdfrwt beam="2">  1       21 0.23679682E-02 0.45151641E+03</pdfrwt>
<totfact> 0.24234192E+03</totfact>
</mgrwt>
</event>
<event>
 7    0  0.4737014E-002  0.4214480E+03  0.7546771E-02  0.1036596E+00
         21   -1    0    0  502  501  0.00000000000E+00  0.00000000000E+00  0.40226795491E+03  0.40226795491E+03  0.00000000000E+00 0. -1.
         21   -1    0    0  501  502 -0.00000000000E+00 -0.00000000000E+00 -0.11038565948E+03  0.11038565948E+03  0.00000000000E+00 0. -1.
      99926    2    1    2    0    0  0.00000000000E+00  0.00000000000E+00  0.29188229543E+03  0.51265361439E+03  0.42144804420E+03 0.  0.
      99925    2    3    3    0    0  0.60558420138E+02  0.47554946797E+02  0.20166424474E+03  0.34027148079E+03  0.26303501253E+03 0.  0.
         25    1    4    4    0    0  0.64637674428E+02  0.24477882179E+01  0.97006225983E+02  0.17100215379E+03  0.12509000000E+03 0.  0.
         25    1    3    3    0    0 -0.60558420138E+02 -0.47554946797E+02  0.90218050689E+02  0.17238213360E+03  0.12509000000E+03 0.  0.
         25    1    4    4    0    0 -0.40792542893E+01  0.45107158579E+02  0.10465801876E+03  0.16926932700E+03  0.12509000000E+03 0.  0.
<mgrwt>
<rscale>  2 0.42144804E+03</rscale>
<asrwt>0</asrwt>
<pdfrwt beam="1">  1       21 0.59157052E-01 0.42144804E+03</pdfrwt>
<pdfrwt beam="2">  1       21 0.16233185E-01 0.42144804E+03</pdfrwt>
<totfact> 0.84784962E+04</totfact>
</mgrwt>
</event>
<event>
 7    0  0.4737014E-002  0.4503679E+03  0.7546771E-02  0.1027612E+00
         21   -1    0    0  502  501  0.00000000000E+00  0.00000000000E+00  0.14233426488E+03  0.14233426488E+03  0.00000000000E+00 0. -1.
         21   -1    0    0  501  502 -0.00000000000E+00 -0.00000000000E+00 -0.35625866397E+03  0.35625866397E+03  0.00000000000E+00 0. -1.
      99926    2    1    2    0    0  0.00000000000E+00  0.00000000000E+00 -0.21392439908E+03  0.49859292885E+03  0.45036791646E+03 0.  0.
      99925    2    3    3    0    0  0.47893483473E+01 -0.79829624380E+02 -0.21678859010E+03  0.35009572862E+03  0.26300954282E+03 0.  0.
         25    1    3    3    0    0 -0.47893483473E+01  0.79829624380E+02  0.28641910141E+01  0.14849720023E+03  0.12509000000E+03 0.  0.
         25    1    4    4    0    0  0.99746974691E+00 -0.48322916863E+02 -0.59691329164E+02  0.14678781325E+03  0.12509000000E+03 0.  0.
         25    1    4    4    0    0  0.37918786004E+01 -0.31506707517E+02 -0.15709726093E+03  0.20330791538E+03  0.12509000000E+03 0.  0.
<mgrwt>
<rscale>  2 0.45036792E+03</rscale>
<asrwt>0</asrwt>
<pdfrwt beam="1">  1       21 0.20931510E-01 0.45036792E+03</pdfrwt>
<pdfrwt beam="2">  1       21 0.52390980E-01 0.45036792E+03</pdfrwt>
<totfact> 0.67829544E+04</totfact>
</mgrwt>
</event>
<event>
 7    0  0.4737014E-002  0.4572928E+03  0.7546771E-02  0.1025569E+00
         21   -1    0    0  502  501  0.00000000000E+00  0.00000000000E+00  0.78851238386E+02  0.78851238386E+02  0.00000000000E+00 0. -1.
         21   -1    0    0  501  502 -0.00000000000E+00 -0.00000000000E+00 -0.66301034404E+03  0.66301034404E+03  0.00000000000E+00 0. -1.
      99926    2    1    2    0    0  0.35527136788E-14  0.00000000000E+00 -0.58415910566E+03  0.74186158243E+03  0.45729284574E+03 0.  0.
      99925    2    3    3    0    0 -0.29368975539E+02 -0.10002351204E+03 -0.28713065041E+03  0.40312768833E+03  0.26306022696E+03 0.  0.
         25    1    4    4    0    0 -0.25554665259E+02 -0.88937534544E+02 -0.18078647205E+03  0.23852501451E+03  0.12509000000E+03 0.  0.
         25    1    4    4    0    0 -0.38143102792E+01 -0.11085977495E+02 -0.10634417836E+03  0.16460267383E+03  0.12509000000E+03 0.  0.
         25    1    3    3    0    0  0.29368975539E+02  0.10002351204E+03 -0.29702845524E+03  0.33873389409E+03  0.12509000000E+03 0.  0.
<mgrwt>
<rscale>  2 0.45729285E+03</rscale>
<asrwt>0</asrwt>
<pdfrwt beam="1">  1       21 0.11595770E-01 0.45729285E+03</pdfrwt>
<pdfrwt beam="2">  1       21 0.97501524E-01 0.45729285E+03</pdfrwt>
<totfact> 0.49784943E+04</totfact>
</mgrwt>
</event>
<event>
 7    0  0.4737014E-002  0.4561673E+03  0.7546771E-02  0.1025899E+00
         21   -1    0    0  502  501  0.00000000000E+00  0.00000000000E+00  0.21322200546E+03  0.21322200546E+03  0.00000000000E+00 0.  1.
         21   -1    0    0  501  502 -0.00000000000E+00 -0.00000000000E+00 -0.24398119348E+03  0.24398119348E+03  0.00000000000E+00 0.  1.
      99926    2    1    2    0    0 -0.71054273576E-14 -0.17763568394E-14 -0.30759188018E+02  0.45720319895E+03  0.45616733495E+03 0.  0.
      99925    2    3    3    0    0 -0.45921950177E+02  0.13716908216E+02  0.84638259394E+02  0.28039522953E+03  0.26298454463E+03 0.  0.
         25    1    4    4    0    0 -0.21354798853E+02  0.42998531381E+02  0.62060869950E+02  0.14766164300E+03  0.12509000000E+03 0.  0.
         25    1    3    3    0    0  0.45921950177E+02 -0.13716908216E+02 -0.11539744741E+03  0.17680796941E+03  0.12509000000E+03 0.  0.
         25    1    4    4    0    0 -0.24567151324E+02 -0.29281623166E+02  0.22577389443E+02  0.13273358653E+03  0.12509000000E+03 0.  0.
<mgrwt>
<rscale>  2 0.45616733E+03</rscale>
<asrwt>0</asrwt>
<pdfrwt beam="1">  1       21 0.31356178E-01 0.45616733E+03</pdfrwt>
<pdfrwt beam="2">  1       21 0.35879587E-01 0.45616733E+03</pdfrwt>
<totfact> 0.67751492E+04</totfact>
</mgrwt>
</event>
<event>
 6    0  0.4737014E-002  0.4535068E+03  0.7546771E-02  0.1026681E+00
         21   -1    0    0  502  501  0.00000000000E+00  0.00000000000E+00  0.44299378175E+03  0.44299378175E+03  0.00000000000E+00 0. -1.
         21   -1    0    0  501  502 -0.00000000000E+00 -0.00000000000E+00 -0.11606731676E+03  0.11606731676E+03  0.00000000000E+00 0. -1.
      99926    2    1    2    0    0  0.00000000000E+00  0.71054273576E-14  0.32692646500E+03  0.55906109851E+03  0.45350677873E+03 0.  0.
         25    1    3    3    0    0  0.52185547740E+02 -0.24657605695E+02  0.20333365901E+03  0.24560825291E+03  0.12509000000E+03 0.  0.
         25    1    3    3    0    0 -0.21749931749E+00  0.72237167738E+02  0.59390217531E+02  0.15618246299E+03  0.12509000000E+03 0.  0.
         25    1    3    3    0    0 -0.51968048423E+02 -0.47579562043E+02  0.64202588459E+02  0.15727038261E+03  0.12509000000E+03 0.  0.
<mgrwt>
<rscale>  2 0.45350678E+03</rscale>
<asrwt>0</asrwt>
<pdfrwt beam="1">  1       21 0.65146144E-01 0.45350678E+03</pdfrwt>
<pdfrwt beam="2">  1       21 0.17068723E-01 0.45350678E+03</pdfrwt>
<totfact> 0.62000770E+04</totfact>
</mgrwt>
</event>
<event>
 7    0  0.4737014E-002  0.4473680E+03  0.7546771E-02  0.1028510E+00
         21   -1    0    0  502  501  0.00000000000E+00  0.00000000000E+00  0.55601851860E+02  0.55601851860E+02  0.00000000000E+00 0. -1.
         21   -1    0    0  501  502 -0.00000000000E+00 -0.00000000000E+00 -0.89987164389E+03  0.89987164389E+03  0.00000000000E+00 0. -1.
      99926    2    1    2    0    0 -0.71054273576E-14  0.00000000000E+00 -0.84426979203E+03  0.95547349575E+03  0.44736799097E+03 0.  0.
      99925    2    3    3    0    0  0.52160362151E+02  0.55673135493E+02 -0.37884957801E+03  0.46753529770E+03  0.26313884252E+03 0.  0.
         25    1    4    4    0    0  0.44168080740E+00  0.17215976806E+02 -0.12730343325E+03  0.17930492787E+03  0.12509000000E+03 0.  0.
         25    1    4    4    0    0  0.51718681343E+02  0.38457158688E+02 -0.25154614476E+03  0.28823036984E+03  0.12509000000E+03 0.  0.
         25    1    3    3    0    0 -0.52160362151E+02 -0.55673135493E+02 -0.46542021402E+03  0.48793819805E+03  0.12509000000E+03 0.  0.
<mgrwt>
<rscale>  2 0.44736799E+03</rscale>
<asrwt>0</asrwt>
<pdfrwt beam="1">  1       21 0.81767432E-02 0.44736799E+03</pdfrwt>
<pdfrwt beam="2">  1       21 0.13233406E+00 0.44736799E+03</pdfrwt>
<totfact> 0.43455878E+04</totfact>
</mgrwt>
</event>
<event>
 7    0  0.4737014E-002  0.4564826E+03  0.7546771E-02  0.1025806E+00
         21   -1    0    0  502  501  0.00000000000E+00  0.00000000000E+00  0.38822200681E+03  0.38822200681E+03  0.00000000000E+00 0.  1.
         21   -1    0    0  501  502 -0.00000000000E+00 -0.00000000000E+00 -0.13418636581E+03  0.13418636581E+03  0.00000000000E+00 0.  1.
      99926    2    1    2    0    0  0.00000000000E+00  0.00000000000E+00  0.25403564100E+03  0.52240837262E+03  0.45648264029E+03 0.  0.
      99925    2    3    3    0    0  0.79504945900E+02  0.56810922244E+02  0.91253380082E+02  0.29504502932E+03  0.26301306553E+03 0.  0.
         25    1    4    4    0    0  0.18625598542E+02  0.63005893722E+02  0.48051897479E+02  0.14924191273E+03  0.12509000000E+03 0.  0.
         25    1    3    3    0    0 -0.79504945900E+02 -0.56810922244E+02  0.16278226092E+03  0.22736334331E+03  0.12509000000E+03 0.  0.
         25    1    4    4    0    0  0.60879347358E+02 -0.61949714777E+01  0.43201482604E+02  0.14580311658E+03  0.12509000000E+03 0.  0.
<mgrwt>
<rscale>  2 0.45648264E+03</rscale>
<asrwt>0</asrwt>
<pdfrwt beam="1">  1       21 0.57091471E-01 0.45648264E+03</pdfrwt>
<pdfrwt beam="2">  1       21 0.19733289E-01 0.45648264E+03</pdfrwt>
<totfact> 0.62979405E+04</totfact>
</mgrwt>
</event>
<event>
 7    0  0.4737014E-002  0.4640206E+03  0.7546771E-02  0.1023622E+00
         21   -1    0    0  502  501  0.00000000000E+00  0.00000000000E+00  0.20691476688E+03  0.20691476688E+03  0.00000000000E+00 0. -1.
         21   -1    0    0  501  502 -0.00000000000E+00 -0.00000000000E+00 -0.26014958547E+03  0.26014958547E+03  0.00000000000E+00 0. -1.
      99926    2    1    2    0    0  0.00000000000E+00  0.00000000000E+00 -0.53234818585E+02  0.46706435235E+03  0.46402064967E+03 0.  0.
      99925    2    3    3    0    0 -0.30477904634E+02  0.81417758729E+02  0.52361365570E+02  0.28171113194E+03  0.26279591920E+03 0.  0.
         25    1    3    3    0    0  0.30477904634E+02 -0.81417758729E+02 -0.10559618416E+03  0.18535322041E+03  0.12509000000E+03 0.  0.
         25    1    4    4    0    0 -0.18804219896E+02  0.12877646127E+02 -0.56788616478E+01  0.12727603869E+03  0.12509000000E+03 0.  0.
         25    1    4    4    0    0 -0.11673684738E+02  0.68540112602E+02  0.58040227218E+02  0.15443509325E+03  0.12509000000E+03 0.  0.
<mgrwt>
<rscale>  2 0.46402065E+03</rscale>
<asrwt>0</asrwt>
<pdfrwt beam="1">  1       21 0.30428642E-01 0.46402065E+03</pdfrwt>
<pdfrwt beam="2">  1       21 0.38257292E-01 0.46402065E+03</pdfrwt>
<totfact> 0.63012142E+04</totfact>
</mgrwt>
</event>
<event>
 7    0  0.4737014E-002  0.4526916E+03  0.7546771E-02  0.1026922E+00
         21   -1    0    0  502  501  0.00000000000E+00  0.00000000000E+00  0.58834202485E+02  0.58834202485E+02  0.00000000000E+00 0. -1.
         21   -1    0    0  501  502 -0.00000000000E+00 -0.00000000000E+00 -0.87079326202E+03  0.87079326202E+03  0.00000000000E+00 0. -1.
      99926    2    1    2    0    0  0.00000000000E+00  0.00000000000E+00 -0.81195905954E+03  0.92962746451E+03  0.45269162617E+03 0.  0.
      99925    2    3    3    0    0  0.36923209390E+02  0.67567475187E+02 -0.34786379464E+03  0.44284146420E+03  0.26300314770E+03 0.  0.
         25    1    3    3    0    0 -0.36923209390E+02 -0.67567475187E+02 -0.46409526490E+03  0.48678600031E+03  0.12509000000E+03 0.  0.
         25    1    4    4    0    0  0.33625444640E+02  0.45726699888E+02 -0.12205603046E+03  0.18375740606E+03  0.12509000000E+03 0.  0.
         25    1    4    4    0    0  0.32977647499E+01  0.21840775300E+02 -0.22580776418E+03  0.25908405814E+03  0.12509000000E+03 0.  0.
<mgrwt>
<rscale>  2 0.45269163E+03</rscale>
<asrwt>0</asrwt>
<pdfrwt beam="1">  1       21 0.86520888E-02 0.45269163E+03</pdfrwt>
<pdfrwt beam="2">  1       21 0.12805783E+00 0.45269163E+03</pdfrwt>
<totfact> 0.42743507E+04</totfact>
</mgrwt>
</event>
<event>
 7    0  0.4737014E-002  0.4568422E+03  0.7546771E-02  0.1025701E+00
         21   -1    0    0  502  501  0.00000000000E+00  0.00000000000E+00  0.31948273066E+03  0.31948273066E+03  0.00000000000E+00 0.  1.
         21   -1    0    0  501  502 -0.00000000000E+00 -0.00000000000E+00 -0.16331462933E+03  0.16331462933E+03  0.00000000000E+00 0.  1.
      99926    2    1    2    0    0  0.00000000000E+00  0.14210854715E-13  0.15616810133E+03  0.48279735998E+03  0.45684222105E+03 0.  0.
      99925    2    3    3    0    0 -0.74493681816E+02 -0.80340401673E+02  0.61756098726E+02  0.29157753071E+03  0.26305845722E+03 0.  0.
         25    1    4    4    0    0 -0.87275682740E+01 -0.26962394070E+02  0.57207603322E+02  0.14043987724E+03  0.12509000000E+03 0.  0.
         25    1    3    3    0    0  0.74493681816E+02  0.80340401673E+02  0.94412002602E+02  0.19121982927E+03  0.12509000000E+03 0.  0.
         25    1    4    4    0    0 -0.65766113542E+02 -0.53378007603E+02  0.45484954035E+01  0.15113765347E+03  0.12509000000E+03 0.  0.
<mgrwt>
<rscale>  2 0.45684222E+03</rscale>
<asrwt>0</asrwt>
<pdfrwt beam="1">  1       21 0.46982755E-01 0.45684222E+03</pdfrwt>
<pdfrwt beam="2">  1       21 0.24016857E-01 0.45684222E+03</pdfrwt>
<totfact> 0.65533464E+04</totfact>
</mgrwt>
</event>
<event>
 7    0  0.4737014E-002  0.4475718E+03  0.7546771E-02  0.1028449E+00
         21   -1    0    0  502  501  0.00000000000E+00  0.00000000000E+00  0.10722109999E+03  0.10722109999E+03  0.00000000000E+00 0.  1.
         21   -1    0    0  501  502 -0.00000000000E+00 -0.00000000000E+00 -0.46707351294E+03  0.46707351294E+03  0.00000000000E+00 0.  1.
      99926    2    1    2    0    0  0.00000000000E+00  0.00000000000E+00 -0.35985241295E+03  0.57429461293E+03  0.44757183037E+03 0.  0.
      99925    2    3    3    0    0  0.96768619136E+02  0.43176109938E+02 -0.23575747548E+03  0.36868477921E+03  0.26290404534E+03 0.  0.
         25    1    4    4    0    0  0.71401891045E+02  0.57270627490E+02 -0.12580822150E+03  0.19963309223E+03  0.12509000000E+03 0.  0.
         25    1    4    4    0    0  0.25366728092E+02 -0.14094517552E+02 -0.10994925398E+03  0.16905168698E+03  0.12509000000E+03 0.  0.
         25    1    3    3    0    0 -0.96768619136E+02 -0.43176109938E+02 -0.12409493746E+03  0.20560983372E+03  0.12509000000E+03 0.  0.
<mgrwt>
<rscale>  2 0.44757183E+03</rscale>
<asrwt>0</asrwt>
<pdfrwt beam="1">  1       21 0.15767809E-01 0.44757183E+03</pdfrwt>
<pdfrwt beam="2">  1       21 0.68687280E-01 0.44757183E+03</pdfrwt>
<totfact> 0.63963878E+04</totfact>
</mgrwt>
</event>
<event>
 7    0  0.4737014E-002  0.4476795E+03  0.7546771E-02  0.1028416E+00
         21   -1    0    0  502  501  0.00000000000E+00  0.00000000000E+00  0.43429478083E+03  0.43429478083E+03  0.00000000000E+00 0.  1.
         21   -1    0    0  501  502 -0.00000000000E+00 -0.00000000000E+00 -0.11536917132E+03  0.11536917132E+03  0.00000000000E+00 0.  1.
      99926    2    1    2    0    0  0.00000000000E+00  0.00000000000E+00  0.31892560951E+03  0.54966395215E+03  0.44767947897E+03 0.  0.
      99925    2    3    3    0    0 -0.29060819157E+02  0.91972036601E+02  0.14768354685E+03  0.31669455749E+03  0.26302400272E+03 0.  0.
         25    1    3    3    0    0  0.29060819157E+02 -0.91972036601E+02  0.17124206265E+03  0.23296939466E+03  0.12509000000E+03 0.  0.
         25    1    4    4    0    0 -0.31188433210E+02  0.18943227004E+02  0.99771525173E+02  0.16411407481E+03  0.12509000000E+03 0.  0.
         25    1    4    4    0    0  0.21276140530E+01  0.73028809597E+02  0.47912021681E+02  0.15258048268E+03  0.12509000000E+03 0.  0.
<mgrwt>
<rscale>  2 0.44767948E+03</rscale>
<asrwt>0</asrwt>
<pdfrwt beam="1">  1       21 0.63866879E-01 0.44767948E+03</pdfrwt>
<pdfrwt beam="2">  1       21 0.16966055E-01 0.44767948E+03</pdfrwt>
<totfact> 0.65606838E+04</totfact>
</mgrwt>
</event>
<event>
 7    0  0.4737014E-002  0.4540705E+03  0.7546771E-02  0.1026515E+00
         21   -1    0    0  502  501  0.00000000000E+00  0.00000000000E+00  0.47782470306E+02  0.47782470306E+02  0.00000000000E+00 0. -1.
         21   -1    0    0  501  502 -0.00000000000E+00 -0.00000000000E+00 -0.10787429628E+04  0.10787429628E+04  0.00000000000E+00 0. -1.
      99926    2    1    2    0    0  0.00000000000E+00  0.00000000000E+00 -0.10309604925E+04  0.11265254331E+04  0.45407049492E+03 0.  0.
      99925    2    3    3    0    0 -0.10318668861E+03  0.10831357878E+02 -0.75609984885E+03  0.80721258879E+03  0.26294556672E+03 0.  0.
         25    1    4    4    0    0 -0.92651127973E+02 -0.25446412899E-01 -0.45144866214E+03  0.47753286254E+03  0.12509000000E+03 0.  0.
         25    1    3    3    0    0  0.10318668861E+03 -0.10831357878E+02 -0.27486064369E+03  0.31931284435E+03  0.12509000000E+03 0.  0.
         25    1    4    4    0    0 -0.10535560641E+02  0.10856804291E+02 -0.30465118671E+03  0.32967972625E+03  0.12509000000E+03 0.  0.
<mgrwt>
<rscale>  2 0.45407049E+03</rscale>
<asrwt>0</asrwt>
<pdfrwt beam="1">  1       21 0.70268344E-02 0.45407049E+03</pdfrwt>
<pdfrwt beam="2">  1       21 0.15863866E+00 0.45407049E+03</pdfrwt>
<totfact> 0.34827548E+04</totfact>
</mgrwt>
</event>
<event>
 7    0  0.4737014E-002  0.4571836E+03  0.7546771E-02  0.1025601E+00
         21   -1    0    0  502  501  0.00000000000E+00  0.00000000000E+00  0.13933594941E+04  0.13933594941E+04  0.00000000000E+00 0. -1.
         21   -1    0    0  501  502 -0.00000000000E+00 -0.00000000000E+00 -0.37502319538E+02  0.37502319538E+02  0.00000000000E+00 0. -1.
      99926    2    1    2    0    0 -0.14210854715E-13  0.00000000000E+00  0.13558571746E+04  0.14308618136E+04  0.45718360854E+03 0.  0.
      99925    2    3    3    0    0 -0.86288837501E+02 -0.59010644221E+02  0.70003605187E+03  0.75508309788E+03  0.26300568658E+03 0.  0.
         25    1    3    3    0    0  0.86288837501E+02  0.59010644221E+02  0.65582112269E+03  0.67577871577E+03  0.12509000000E+03 0.  0.
         25    1    4    4    0    0 -0.99433617326E+01 -0.18955710149E+01  0.29540734829E+03  0.32096023610E+03  0.12509000000E+03 0.  0.
         25    1    4    4    0    0 -0.76345475768E+02 -0.57115073206E+02  0.40462870358E+03  0.43412286178E+03  0.12509000000E+03 0.  0.
<mgrwt>
<rscale>  2 0.45718361E+03</rscale>
<asrwt>0</asrwt>
<pdfrwt beam="1">  1       21 0.20490577E+00 0.45718361E+03</pdfrwt>
<pdfrwt beam="2">  1       21 0.55150479E-02 0.45718361E+03</pdfrwt>
<totfact> 0.25092646E+04</totfact>
</mgrwt>
</event>
<event>
 7    0  0.4737014E-002  0.4568932E+03  0.7546771E-02  0.1025686E+00
         21   -1    0    0  502  501  0.00000000000E+00  0.00000000000E+00  0.53069477983E+03  0.53069477983E+03  0.00000000000E+00 0. -1.
         21   -1    0    0  501  502 -0.00000000000E+00 -0.00000000000E+00 -0.98338709255E+02  0.98338709255E+02  0.00000000000E+00 0. -1.
      99926    2    1    2    0    0  0.00000000000E+00  0.00000000000E+00  0.43235607057E+03  0.62903348908E+03  0.45689315887E+03 0.  0.
      99925    2    3    3    0    0 -0.69411202006E+02  0.38239647805E+02  0.15680746952E+03  0.31621608984E+03  0.26291414444E+03 0.  0.
         25    1    3    3    0    0  0.69411202006E+02 -0.38239647805E+02  0.27554860105E+03  0.31281739924E+03  0.12509000000E+03 0.  0.
         25    1    4    4    0    0  0.27278352852E+01  0.86749908192E+01  0.54245688966E+02  0.13664845196E+03  0.12509000000E+03 0.  0.
         25    1    4    4    0    0 -0.72139037291E+02  0.29564656986E+02  0.10256178056E+03  0.17956763788E+03  0.12509000000E+03 0.  0.
<mgrwt>
<rscale>  2 0.45689316E+03</rscale>
<asrwt>0</asrwt>
<pdfrwt beam="1">  1       21 0.78043349E-01 0.45689316E+03</pdfrwt>
<pdfrwt beam="2">  1       21 0.14461575E-01 0.45689316E+03</pdfrwt>
<totfact> 0.56082948E+04</totfact>
</mgrwt>
</event>
<event>
 7    0  0.4737014E-002  0.4388111E+03  0.7546771E-02  0.1031112E+00
         21   -1    0    0  502  501  0.00000000000E+00  0.00000000000E+00  0.15213202260E+04  0.15213202260E+04  0.00000000000E+00 0. -1.
         21   -1    0    0  501  502 -0.00000000000E+00 -0.00000000000E+00 -0.31642781758E+02  0.31642781758E+02  0.00000000000E+00 0. -1.
      99926    2    1    2    0    0 -0.14210854715E-13  0.71054273576E-14  0.14896774443E+04  0.15529630078E+04  0.43881113886E+03 0.  0.
      99925    2    3    3    0    0 -0.71513379284E+02  0.49231712096E+02  0.80366386193E+03  0.85025391567E+03  0.26366302972E+03 0.  0.
         25    1    3    3    0    0  0.71513379284E+02 -0.49231712096E+02  0.68601358236E+03  0.70270909214E+03  0.12509000000E+03 0.  0.
         25    1    4    4    0    0  0.21194719194E+01  0.39357886831E+02  0.34607588823E+03  0.37009399337E+03  0.12509000000E+03 0.  0.
         25    1    4    4    0    0 -0.73632851204E+02  0.98738252643E+01  0.45758797370E+03  0.48015992230E+03  0.12509000000E+03 0.  0.
<mgrwt>
<rscale>  2 0.43881114E+03</rscale>
<asrwt>0</asrwt>
<pdfrwt beam="1">  1       21 0.22372351E+00 0.43881114E+03</pdfrwt>
<pdfrwt beam="2">  1       21 0.46533513E-02 0.43881114E+03</pdfrwt>
<totfact> 0.25578513E+04</totfact>
</mgrwt>
</event>
<event>
 7    0  0.4737014E-002  0.4584282E+03  0.7546771E-02  0.1025238E+00
         21   -1    0    0  502  501  0.00000000000E+00  0.00000000000E+00  0.15044088149E+03  0.15044088149E+03  0.00000000000E+00 0.  1.
         21   -1    0    0  501  502 -0.00000000000E+00 -0.00000000000E+00 -0.34923417239E+03  0.34923417239E+03  0.00000000000E+00 0.  1.
      99926    2    1    2    0    0 -0.71054273576E-14 -0.71054273576E-14 -0.19879329090E+03  0.49967505388E+03  0.45842816990E+03 0.  0.
      99925    2    3    3    0    0 -0.46830214958E+02 -0.56806100336E+02 -0.22303062469E+03  0.35251881541E+03  0.26288182440E+03 0.  0.
         25    1    3    3    0    0  0.46830214958E+02  0.56806100336E+02  0.24237333799E+02  0.14715623846E+03  0.12509000000E+03 0.  0.
         25    1    4    4    0    0 -0.64330808434E+02 -0.32087772871E+02 -0.11598364437E+03  0.18511561777E+03  0.12509000000E+03 0.  0.
         25    1    4    4    0    0  0.17500593476E+02 -0.24718327465E+02 -0.10704698032E+03  0.16740319764E+03  0.12509000000E+03 0.  0.
<mgrwt>
<rscale>  2 0.45842817E+03</rscale>
<asrwt>0</asrwt>
<pdfrwt beam="1">  1       21 0.22123659E-01 0.45842817E+03</pdfrwt>
<pdfrwt beam="2">  1       21 0.51357967E-01 0.45842817E+03</pdfrwt>
<totfact> 0.63546463E+04</totfact>
</mgrwt>
</event>
<event>
 7    0  0.4737014E-002  0.4523204E+03  0.7546771E-02  0.1027032E+00
         21   -1    0    0  502  501  0.00000000000E+00  0.00000000000E+00  0.20531992207E+03  0.20531992207E+03  0.00000000000E+00 0.  1.
         21   -1    0    0  501  502 -0.00000000000E+00 -0.00000000000E+00 -0.24911583453E+03  0.24911583453E+03  0.00000000000E+00 0.  1.
      99926    2    1    2    0    0  0.00000000000E+00  0.14210854715E-13 -0.43795912465E+02  0.45443575660E+03  0.45232043391E+03 0.  0.
      99925    2    3    3    0    0 -0.55747518522E+02 -0.85375513773E+02 -0.70685593336E+02  0.29082852201E+03  0.26303614188E+03 0.  0.
         25    1    4    4    0    0 -0.47406370876E+02 -0.11957029911E+02 -0.14605307702E+02  0.13509684555E+03  0.12509000000E+03 0.  0.
         25    1    4    4    0    0 -0.83411476461E+01 -0.73418483862E+02 -0.56080285635E+02  0.15573167646E+03  0.12509000000E+03 0.  0.
         25    1    3    3    0    0  0.55747518522E+02  0.85375513773E+02  0.26889680872E+02  0.16360723459E+03  0.12509000000E+03 0.  0.
<mgrwt>
<rscale>  2 0.45232043E+03</rscale>
<asrwt>0</asrwt>
<pdfrwt beam="1">  1       21 0.30194106E-01 0.45232043E+03</pdfrwt>
<pdfrwt beam="2">  1       21 0.36634682E-01 0.45232043E+03</pdfrwt>
<totfact> 0.70073316E+04</totfact>
</mgrwt>
</event>
<event>
 7    0  0.4737014E-002  0.4552631E+03  0.7546771E-02  0.1026164E+00
         21   -1    0    0  502  501  0.00000000000E+00  0.00000000000E+00  0.21599450242E+04  0.21599450242E+04  0.00000000000E+00 0. -1.
         21   -1    0    0  501  502 -0.00000000000E+00 -0.00000000000E+00 -0.23989555780E+02  0.23989555780E+02  0.00000000000E+00 0. -1.
      99926    2    1    2    0    0  0.00000000000E+00  0.00000000000E+00  0.21359554684E+04  0.21839345800E+04  0.45526309598E+03 0.  0.
      99925    2    3    3    0    0 -0.29758161115E+02 -0.10941342887E+03  0.13272830984E+04  0.13578260177E+04  0.26297190805E+03 0.  0.
         25    1    3    3    0    0  0.29758161115E+02  0.10941342887E+03  0.80867237002E+03  0.82610856230E+03  0.12509000000E+03 0.  0.
         25    1    4    4    0    0 -0.67103197581E+01 -0.17210112569E+02  0.68797193277E+03  0.69949560738E+03  0.12509000000E+03 0.  0.
         25    1    4    4    0    0 -0.23047841357E+02 -0.92203316300E+02  0.63931116565E+03  0.65833041032E+03  0.12509000000E+03 0.  0.
<mgrwt>
<rscale>  2 0.45526310E+03</rscale>
<asrwt>0</asrwt>
<pdfrwt beam="1">  1       21 0.31763884E+00 0.45526310E+03</pdfrwt>
<pdfrwt beam="2">  1       21 0.35278773E-02 0.45526310E+03</pdfrwt>
<totfact> 0.10910327E+04</totfact>
</mgrwt>
</event>
<event>
 7    0  0.4737014E-002  0.4487704E+03  0.7546771E-02  0.1028089E+00
         21   -1    0    0  502  501  0.00000000000E+00  0.00000000000E+00  0.10585180181E+03  0.10585180181E+03  0.00000000000E+00 0. -1.
         21   -1    0    0  501  502 -0.00000000000E+00 -0.00000000000E+00 -0.47565281197E+03  0.47565281197E+03  0.00000000000E+00 0. -1.
      99926    2    1    2    0    0 -0.80491169285E-15 -0.14210854715E-13 -0.36980101016E+03  0.58150461378E+03  0.44877035188E+03 0.  0.
      99925    2    3    3    0    0 -0.17515142422E+00  0.88685512530E+02 -0.31208043463E+03  0.41766223906E+03  0.26302546921E+03 0.  0.
         25    1    4    4    0    0 -0.15693281809E+02  0.66209179324E+02 -0.11691368137E+03  0.18424508545E+03  0.12509000000E+03 0.  0.
         25    1    4    4    0    0  0.15518130385E+02  0.22476333205E+02 -0.19516675326E+03  0.23341715362E+03  0.12509000000E+03 0.  0.
         25    1    3    3    0    0  0.17515142422E+00 -0.88685512530E+02 -0.57720575539E+02  0.16384237471E+03  0.12509000000E+03 0.  0.
<mgrwt>
<rscale>  2 0.44877035E+03</rscale>
<asrwt>0</asrwt>
<pdfrwt beam="1">  1       21 0.15566442E-01 0.44877035E+03</pdfrwt>
<pdfrwt beam="2">  1       21 0.69948942E-01 0.44877035E+03</pdfrwt>
<totfact> 0.62870844E+04</totfact>
</mgrwt>
</event>
<event>
 7    0  0.4737014E-002  0.4409337E+03  0.7546771E-02  0.1030461E+00
         21   -1    0    0  502  501  0.00000000000E+00  0.00000000000E+00  0.53864831876E+02  0.53864831876E+02  0.00000000000E+00 0. -1.
         21   -1    0    0  501  502 -0.00000000000E+00 -0.00000000000E+00 -0.90236295043E+03  0.90236295043E+03  0.00000000000E+00 0. -1.
      99926    2    1    2    0    0 -0.71054273576E-14  0.00000000000E+00 -0.84849811855E+03  0.95622778230E+03  0.44093368488E+03 0.  0.
      99925    2    3    3    0    0 -0.32244607947E+02 -0.83244751498E+02 -0.44780619385E+03  0.52707637544E+03  0.26326738290E+03 0.  0.
         25    1    4    4    0    0 -0.30692784327E+02 -0.12135312775E+02 -0.26070788028E+03  0.29104195534E+03  0.12509000000E+03 0.  0.
         25    1    4    4    0    0 -0.15518236193E+01 -0.71109438724E+02 -0.18709831357E+03  0.23603442010E+03  0.12509000000E+03 0.  0.
         25    1    3    3    0    0  0.32244607947E+02  0.83244751498E+02 -0.40069192470E+03  0.42915140686E+03  0.12509000000E+03 0.  0.
<mgrwt>
<rscale>  2 0.44093368E+03</rscale>
<asrwt>0</asrwt>
<pdfrwt beam="1">  1       21 0.79212996E-02 0.44093368E+03</pdfrwt>
<pdfrwt beam="2">  1       21 0.13270042E+00 0.44093368E+03</pdfrwt>
<totfact> 0.45714280E+04</totfact>
</mgrwt>
</event>
<event>
 7    0  0.4737014E-002  0.4524050E+03  0.7546771E-02  0.1027007E+00
         21   -1    0    0  502  501  0.00000000000E+00  0.00000000000E+00  0.30335049298E+03  0.30335049298E+03  0.00000000000E+00 0.  1.
         21   -1    0    0  501  502 -0.00000000000E+00 -0.00000000000E+00 -0.16867476438E+03  0.16867476438E+03  0.00000000000E+00 0.  1.
      99926    2    1    2    0    0  0.14210854715E-13 -0.17763568394E-14  0.13467572860E+03  0.47202525736E+03  0.45240500850E+03 0.  0.
      99925    2    3    3    0    0  0.80461597707E+02  0.10900979372E+02  0.16333803655E+03  0.32016368864E+03  0.26312083400E+03 0.  0.
         25    1    3    3    0    0 -0.80461597707E+02 -0.10900979372E+02 -0.28662307951E+02  0.15186156872E+03  0.12509000000E+03 0.  0.
         25    1    4    4    0    0  0.23733132458E+02 -0.25922566526E+02  0.53657751572E+02  0.14057703737E+03  0.12509000000E+03 0.  0.
         25    1    4    4    0    0  0.56728465249E+02  0.36823545898E+02  0.10968028498E+03  0.17958665127E+03  0.12509000000E+03 0.  0.
<mgrwt>
<rscale>  2 0.45240501E+03</rscale>
<asrwt>0</asrwt>
<pdfrwt beam="1">  1       21 0.44610366E-01 0.45240501E+03</pdfrwt>
<pdfrwt beam="2">  1       21 0.24805113E-01 0.45240501E+03</pdfrwt>
<totfact> 0.68688942E+04</totfact>
</mgrwt>
</event>
<event>
 7    0  0.4737014E-002  0.4603512E+03  0.7546771E-02  0.1024679E+00
         21   -1    0    0  502  501  0.00000000000E+00  0.00000000000E+00  0.10736159356E+03  0.10736159356E+03  0.00000000000E+00 0. -1.
         21   -1    0    0  501  502 -0.00000000000E+00 -0.00000000000E+00 -0.49347999323E+03  0.49347999323E+03  0.00000000000E+00 0. -1.
      99926    2    1    2    0    0  0.71054273576E-14  0.00000000000E+00 -0.38611839967E+03  0.60084158680E+03  0.46035116364E+03 0.  0.
      99925    2    3    3    0    0 -0.63091973596E+02  0.22716090356E+02 -0.11491586306E+03  0.29474529173E+03  0.26300667961E+03 0.  0.
         25    1    3    3    0    0  0.63091973596E+02 -0.22716090356E+02 -0.27120253660E+03  0.30609629507E+03  0.12509000000E+03 0.  0.
         25    1    4    4    0    0  0.72311598432E+00  0.20692359587E+02 -0.80364689502E+02  0.15011558234E+03  0.12509000000E+03 0.  0.
         25    1    4    4    0    0 -0.63815089580E+02  0.20237307688E+01 -0.34551173562E+02  0.14462970939E+03  0.12509000000E+03 0.  0.
<mgrwt>
<rscale>  2 0.46035116E+03</rscale>
<asrwt>0</asrwt>
<pdfrwt beam="1">  1       21 0.15788470E-01 0.46035116E+03</pdfrwt>
<pdfrwt beam="2">  1       21 0.72570586E-01 0.46035116E+03</pdfrwt>
<totfact> 0.56211834E+04</totfact>
</mgrwt>
</event>
<event>
 7    0  0.4737014E-002  0.4523704E+03  0.7546771E-02  0.1027018E+00
         21   -1    0    0  502  501  0.00000000000E+00  0.00000000000E+00  0.28283127016E+02  0.28283127016E+02  0.00000000000E+00 0. -1.
         21   -1    0    0  501  502 -0.00000000000E+00 -0.00000000000E+00 -0.18088430337E+04  0.18088430337E+04  0.00000000000E+00 0. -1.
      99926    2    1    2    0    0  0.00000000000E+00  0.71054273576E-14 -0.17805599067E+04  0.18371261607E+04  0.45237036717E+03 0.  0.
      99925    2    3    3    0    0 -0.89662640509E+02 -0.59318725172E+02 -0.12303856716E+04  0.12627592942E+04  0.26297154607E+03 0.  0.
         25    1    3    3    0    0  0.89662640509E+02  0.59318725172E+02 -0.55017423509E+03  0.57436686648E+03  0.12509000000E+03 0.  0.
         25    1    4    4    0    0 -0.46613128711E+02  0.11577970203E+02 -0.57393497693E+03  0.58936889891E+03  0.12509000000E+03 0.  0.
         25    1    4    4    0    0 -0.43049511797E+02 -0.70896695375E+02 -0.65645069467E+03  0.67339039533E+03  0.12509000000E+03 0.  0.
<mgrwt>
<rscale>  2 0.45237037E+03</rscale>
<asrwt>0</asrwt>
<pdfrwt beam="1">  1       21 0.41592832E-02 0.45237037E+03</pdfrwt>
<pdfrwt beam="2">  1       21 0.26600634E+00 0.45237037E+03</pdfrwt>
<totfact> 0.16898895E+04</totfact>
</mgrwt>
</event>
<event>
 7    0  0.4737014E-002  0.4491788E+03  0.7546771E-02  0.1027967E+00
         21   -1    0    0  502  501  0.00000000000E+00  0.00000000000E+00  0.39462381847E+03  0.39462381847E+03  0.00000000000E+00 0.  1.
         21   -1    0    0  501  502 -0.00000000000E+00 -0.00000000000E+00 -0.12781892204E+03  0.12781892204E+03  0.00000000000E+00 0.  1.
      99926    2    1    2    0    0 -0.14210854715E-13  0.00000000000E+00  0.26680489643E+03  0.52244274051E+03  0.44917876658E+03 0.  0.
      99925    2    3    3    0    0 -0.89255172151E+02  0.54366990016E+02  0.19859146620E+03  0.34574289466E+03  0.26301582348E+03 0.  0.
         25    1    4    4    0    0 -0.11724927013E+02  0.50113287372E+02  0.84587822468E+02  0.15953502216E+03  0.12509000000E+03 0.  0.
         25    1    4    4    0    0 -0.77530245138E+02  0.42537026447E+01  0.11400364373E+03  0.18620787250E+03  0.12509000000E+03 0.  0.
         25    1    3    3    0    0  0.89255172151E+02 -0.54366990016E+02  0.68213430235E+02  0.17669984585E+03  0.12509000000E+03 0.  0.
<mgrwt>
<rscale>  2 0.44917877E+03</rscale>
<asrwt>0</asrwt>
<pdfrwt beam="1">  1       21 0.58032914E-01 0.44917877E+03</pdfrwt>
<pdfrwt beam="2">  1       21 0.18796900E-01 0.44917877E+03</pdfrwt>
<totfact> 0.66748339E+04</totfact>
</mgrwt>
</event>
<event>
 7    0  0.4737014E-002  0.4281438E+03  0.7546771E-02  0.1034448E+00
         21   -1    0    0  502  501  0.00000000000E+00  0.00000000000E+00  0.89783207964E+02  0.89783207964E+02  0.00000000000E+00 0.  1.
         21   -1    0    0  501  502 -0.00000000000E+00 -0.00000000000E+00 -0.51041585651E+03  0.51041585651E+03  0.00000000000E+00 0.  1.
      99926    2    1    2    0    0  0.14210854715E-13  0.00000000000E+00 -0.42063264854E+03  0.60019906447E+03  0.42814377488E+03 0.  0.
      99925    2    3    3    0    0  0.78310684323E+02  0.29896026780E+02 -0.24853376874E+03  0.37152491153E+03  0.26312618643E+03 0.  0.
         25    1    4    4    0    0  0.35675867213E+02 -0.10806147793E+02 -0.78321662675E+02  0.15222132333E+03  0.12509000000E+03 0.  0.
         25    1    4    4    0    0  0.42634817110E+02  0.40702174573E+02 -0.17021210607E+03  0.21930358820E+03  0.12509000000E+03 0.  0.
         25    1    3    3    0    0 -0.78310684323E+02 -0.29896026780E+02 -0.17209887980E+03  0.22867415294E+03  0.12509000000E+03 0.  0.
<mgrwt>
<rscale>  2 0.42814377E+03</rscale>
<asrwt>0</asrwt>
<pdfrwt beam="1">  1       21 0.13203413E-01 0.42814377E+03</pdfrwt>
<pdfrwt beam="2">  1       21 0.75061154E-01 0.42814377E+03</pdfrwt>
<totfact> 0.72956071E+04</totfact>
</mgrwt>
</event>
<event>
 7    0  0.4737014E-002  0.4453239E+03  0.7546771E-02  0.1029126E+00
         21   -1    0    0  502  501  0.00000000000E+00  0.00000000000E+00  0.74925570641E+02  0.74925570641E+02  0.00000000000E+00 0. -1.
         21   -1    0    0  501  502 -0.00000000000E+00 -0.00000000000E+00 -0.66170127522E+03  0.66170127522E+03  0.00000000000E+00 0. -1.
      99926    2    1    2    0    0  0.00000000000E+00  0.00000000000E+00 -0.58677570458E+03  0.73662684586E+03  0.44532390746E+03 0.  0.
      99925    2    3    3    0    0  0.65496048523E+01 -0.88368877380E+02 -0.46184121403E+03  0.53886918901E+03  0.26311735039E+03 0.  0.
         25    1    4    4    0    0  0.12705640657E+02 -0.11967252901E+02 -0.26310092893E+03  0.29184628720E+03  0.12509000000E+03 0.  0.
         25    1    3    3    0    0 -0.65496048523E+01  0.88368877380E+02 -0.12493449055E+03  0.19775765685E+03  0.12509000000E+03 0.  0.
         25    1    4    4    0    0 -0.61560358049E+01 -0.76401624478E+02 -0.19874028509E+03  0.24702290181E+03  0.12509000000E+03 0.  0.
<mgrwt>
<rscale>  2 0.44532391E+03</rscale>
<asrwt>0</asrwt>
<pdfrwt beam="1">  1       21 0.11018466E-01 0.44532391E+03</pdfrwt>
<pdfrwt beam="2">  1       21 0.97309014E-01 0.44532391E+03</pdfrwt>
<totfact> 0.55027272E+04</totfact>
</mgrwt>
</event>
<event>
 7    0  0.4737014E-002  0.4599645E+03  0.7546771E-02  0.1024792E+00
         21   -1    0    0  502  501  0.00000000000E+00  0.00000000000E+00  0.48585382589E+03  0.48585382589E+03  0.00000000000E+00 0.  1.
         21   -1    0    0  501  502 -0.00000000000E+00 -0.00000000000E+00 -0.10886369308E+03  0.10886369308E+03  0.00000000000E+00 0.  1.
      99926    2    1    2    0    0 -0.71054273576E-14  0.14210854715E-13  0.37699013280E+03  0.59471751897E+03  0.45996452813E+03 0.  0.
      99925    2    3    3    0    0  0.42221079095E+02 -0.10339983545E+03  0.18783835540E+03  0.34193292987E+03  0.26298428714E+03 0.  0.
         25    1    4    4    0    0  0.40000289925E+02 -0.66257209358E+02  0.13960505371E+03  0.20279822511E+03  0.12509000000E+03 0.  0.
         25    1    3    3    0    0 -0.42221079095E+02  0.10339983545E+03  0.18915177740E+03  0.25278458910E+03  0.12509000000E+03 0.  0.
         25    1    4    4    0    0  0.22207891695E+01 -0.37142626091E+02  0.48233301690E+02  0.13913470476E+03  0.12509000000E+03 0.  0.
<mgrwt>
<rscale>  2 0.45996453E+03</rscale>
<asrwt>0</asrwt>
<pdfrwt beam="1">  1       21 0.71449091E-01 0.45996453E+03</pdfrwt>
<pdfrwt beam="2">  1       21 0.16009367E-01 0.45996453E+03</pdfrwt>
<totfact> 0.56745333E+04</totfact>
</mgrwt>
</event>
<event>
 7    0  0.4737014E-002  0.4548525E+03  0.7546771E-02  0.1026285E+00
         21   -1    0    0  502  501  0.00000000000E+00  0.00000000000E+00  0.31014100725E+03  0.31014100725E+03  0.00000000000E+00 0. -1.
         21   -1    0    0  501  502 -0.00000000000E+00 -0.00000000000E+00 -0.16677155997E+03  0.16677155997E+03  0.00000000000E+00 0. -1.
      99926    2    1    2    0    0  0.88817841970E-15 -0.14210854715E-13  0.14336944728E+03  0.47691256721E+03  0.45485250175E+03 0.  0.
      99925    2    3    3    0    0 -0.10310838950E+01  0.79894963853E+02  0.66487249583E+01  0.27510986060E+03  0.26316717400E+03 0.  0.
         25    1    3    3    0    0  0.10310838950E+01 -0.79894963853E+02  0.13672072232E+03  0.20180270661E+03  0.12509000000E+03 0.  0.
         25    1    4    4    0    0  0.83036476816E+01 -0.16303215704E+01  0.39970028759E+00  0.12537653837E+03  0.12509000000E+03 0.  0.
         25    1    4    4    0    0 -0.93347315766E+01  0.81525285423E+02  0.62490246707E+01  0.14973332223E+03  0.12509000000E+03 0.  0.
<mgrwt>
<rscale>  2 0.45485250E+03</rscale>
<asrwt>0</asrwt>
<pdfrwt beam="1">  1       21 0.45608972E-01 0.45485250E+03</pdfrwt>
<pdfrwt beam="2">  1       21 0.24525229E-01 0.45485250E+03</pdfrwt>
<totfact> 0.67003935E+04</totfact>
</mgrwt>
</event>
<event>
 7    0  0.4737014E-002  0.4576324E+03  0.7546771E-02  0.1025470E+00
         21   -1    0    0  502  501  0.00000000000E+00  0.00000000000E+00  0.57188852385E+02  0.57188852385E+02  0.00000000000E+00 0.  1.
         21   -1    0    0  501  502 -0.00000000000E+00 -0.00000000000E+00 -0.91550801466E+03  0.91550801466E+03  0.00000000000E+00 0.  1.
      99926    2    1    2    0    0 -0.22204460493E-15  0.00000000000E+00 -0.85831916228E+03  0.97269686705E+03  0.45763239705E+03 0.  0.
      99925    2    3    3    0    0  0.15404552278E+01  0.96572805843E+02 -0.67397046941E+03  0.72987876950E+03  0.26297936176E+03 0.  0.
         25    1    3    3    0    0 -0.15404552278E+01 -0.96572805843E+02 -0.18434869287E+03  0.24281809754E+03  0.12509000000E+03 0.  0.
         25    1    4    4    0    0  0.74786795662E+01  0.41655135717E+02 -0.43441226816E+03  0.45404031518E+03  0.12509000000E+03 0.  0.
         25    1    4    4    0    0 -0.59382243384E+01  0.54917670126E+02 -0.23955820124E+03  0.27583845432E+03  0.12509000000E+03 0.  0.
<mgrwt>
<rscale>  2 0.45763240E+03</rscale>
<asrwt>0</asrwt>
<pdfrwt beam="1">  1       21 0.84101250E-02 0.45763240E+03</pdfrwt>
<pdfrwt beam="2">  1       21 0.13463354E+00 0.45763240E+03</pdfrwt>
<totfact> 0.39417680E+04</totfact>
</mgrwt>
</event>
<event>
 7    0  0.4737014E-002  0.4527534E+03  0.7546771E-02  0.1026904E+00
         21   -1    0    0  502  501  0.00000000000E+00  0.00000000000E+00  0.62348487788E+02  0.62348487788E+02  0.00000000000E+00 0. -1.
         21   -1    0    0  501  502 -0.00000000000E+00 -0.00000000000E+00 -0.82193520119E+03  0.82193520119E+03  0.00000000000E+00 0. -1.
      99926    2    1    2    0    0 -0.44408920985E-15  0.00000000000E+00 -0.75958671340E+03  0.88428368898E+03  0.45275342894E+03 0.  0.
      99925    2    3    3    0    0  0.17022381482E+01  0.67216010591E+02 -0.65162839783E+03  0.70589255777E+03  0.26295217161E+03 0.  0.
         25    1    3    3    0    0 -0.17022381482E+01 -0.67216010591E+02 -0.10795831557E+03  0.17839113121E+03  0.12509000000E+03 0.  0.
         25    1    4    4    0    0 -0.79216164862E+01  0.55668471709E+02 -0.42521777734E+03  0.44678786579E+03  0.12509000000E+03 0.  0.
         25    1    4    4    0    0  0.96238546344E+01  0.11547538882E+02 -0.22641062049E+03  0.25910469198E+03  0.12509000000E+03 0.  0.
<mgrwt>
<rscale>  2 0.45275343E+03</rscale>
<asrwt>0</asrwt>
<pdfrwt beam="1">  1       21 0.91688955E-02 0.45275343E+03</pdfrwt>
<pdfrwt beam="2">  1       21 0.12087282E+00 0.45275343E+03</pdfrwt>
<totfact> 0.44701490E+04</totfact>
</mgrwt>
</event>
<event>
 7    0  0.4737014E-002  0.4438081E+03  0.7546771E-02  0.1029585E+00
         21   -1    0    0  502  501  0.00000000000E+00  0.00000000000E+00  0.10102500958E+04  0.10102500958E+04  0.00000000000E+00 0. -1.
         21   -1    0    0  501  502 -0.00000000000E+00 -0.00000000000E+00 -0.48741810141E+02  0.48741810141E+02  0.00000000000E+00 0. -1.
      99926    2    1    2    0    0  0.00000000000E+00  0.17763568394E-14  0.96150828568E+03  0.10589919060E+04  0.44380814939E+03 0.  0.
      99925    2    3    3    0    0  0.29051997472E+02  0.13576306116E+02  0.84330725528E+03  0.88392812806E+03  0.26293245165E+03 0.  0.
         25    1    3    3    0    0 -0.29051997472E+02 -0.13576306116E+02  0.11820103040E+03  0.17506377790E+03  0.12509000000E+03 0.  0.
         25    1    4    4    0    0 -0.13825118097E+02  0.12810359289E+01  0.31568973719E+03  0.33985334074E+03  0.12509000000E+03 0.  0.
         25    1    4    4    0    0  0.42877115569E+02  0.12295270187E+02  0.52761751809E+03  0.54407478733E+03  0.12509000000E+03 0.  0.
<mgrwt>
<rscale>  2 0.44380815E+03</rscale>
<asrwt>0</asrwt>
<pdfrwt beam="1">  1       21 0.14856618E+00 0.44380815E+03</pdfrwt>
<pdfrwt beam="2">  1       21 0.71679139E-02 0.44380815E+03</pdfrwt>
<totfact> 0.40360969E+04</totfact>
</mgrwt>
</event>
<event>
 7    0  0.4737014E-002  0.4477443E+03  0.7546771E-02  0.1028397E+00
         21   -1    0    0  502  501  0.00000000000E+00  0.00000000000E+00  0.39499185148E+03  0.39499185148E+03  0.00000000000E+00 0.  1.
         21   -1    0    0  501  502 -0.00000000000E+00 -0.00000000000E+00 -0.12688552828E+03  0.12688552828E+03  0.00000000000E+00 0.  1.
      99926    2    1    2    0    0  0.71054273576E-14 -0.71054273576E-14  0.26810632320E+03  0.52187737977E+03  0.44774434555E+03 0.  0.
      99925    2    3    3    0    0  0.45387954238E+02 -0.38392915202E+02  0.27246185540E+03  0.38331129052E+03  0.26297908751E+03 0.  0.
         25    1    3    3    0    0 -0.45387954238E+02  0.38392915202E+02 -0.43555321970E+01  0.13856608924E+03  0.12509000000E+03 0.  0.
         25    1    4    4    0    0  0.59888496674E+02 -0.71318836071E+01  0.12438658515E+03  0.18643236431E+03  0.12509000000E+03 0.  0.
         25    1    4    4    0    0 -0.14500542437E+02 -0.31261031594E+02  0.14807527024E+03  0.19687892621E+03  0.12509000000E+03 0.  0.
<mgrwt>
<rscale>  2 0.44774435E+03</rscale>
<asrwt>0</asrwt>
<pdfrwt beam="1">  1       21 0.58087037E-01 0.44774435E+03</pdfrwt>
<pdfrwt beam="2">  1       21 0.18659637E-01 0.44774435E+03</pdfrwt>
<totfact> 0.67562373E+04</totfact>
</mgrwt>
</event>
<event>
 7    0  0.4737014E-002  0.4568599E+03  0.7546771E-02  0.1025696E+00
         21   -1    0    0  502  501  0.00000000000E+00  0.00000000000E+00  0.62094488388E+03  0.62094488388E+03  0.00000000000E+00 0. -1.
         21   -1    0    0  501  502 -0.00000000000E+00 -0.00000000000E+00 -0.84033605283E+02  0.84033605283E+02  0.00000000000E+00 0. -1.
      99926    2    1    2    0    0 -0.35527136788E-14  0.00000000000E+00  0.53691127859E+03  0.70497848916E+03  0.45685987906E+03 0.  0.
      99925    2    3    3    0    0  0.18933801343E+01 -0.11264147778E+03  0.30347645712E+03  0.41717471680E+03  0.26314463116E+03 0.  0.
         25    1    3    3    0    0 -0.18933801343E+01  0.11264147778E+03  0.23343482148E+03  0.28780377236E+03  0.12509000000E+03 0.  0.
         25    1    4    4    0    0 -0.32777624675E+02 -0.53545196774E+02  0.11709516573E+03  0.18248355190E+03  0.12509000000E+03 0.  0.
         25    1    4    4    0    0  0.34671004810E+02 -0.59096281010E+02  0.18638129138E+03  0.23469116490E+03  0.12509000000E+03 0.  0.
<mgrwt>
<rscale>  2 0.45685988E+03</rscale>
<asrwt>0</asrwt>
<pdfrwt beam="1">  1       21 0.91315422E-01 0.45685988E+03</pdfrwt>
<pdfrwt beam="2">  1       21 0.12357883E-01 0.45685988E+03</pdfrwt>
<totfact> 0.51870192E+04</totfact>
</mgrwt>
</event>
<event>
 7    0  0.4737014E-002  0.4697954E+03  0.7546771E-02  0.1021978E+00
         21   -1    0    0  502  501  0.00000000000E+00  0.00000000000E+00  0.48143169296E+03  0.48143169296E+03  0.00000000000E+00 0.  1.
         21   -1    0    0  501  502 -0.00000000000E+00 -0.00000000000E+00 -0.11461011324E+03  0.11461011324E+03  0.00000000000E+00 0.  1.
      99926    2    1    2    0    0  0.00000000000E+00  0.71054273576E-14  0.36682157972E+03  0.59604180620E+03  0.46979544845E+03 0.  0.
      99925    2    3    3    0    0 -0.56788328395E+02  0.34802192562E+02  0.91365404448E+02  0.28626814779E+03  0.26299374224E+03 0.  0.
         25    1    3    3    0    0  0.56788328395E+02 -0.34802192562E+02  0.27545617528E+03  0.30977365841E+03  0.12509000000E+03 0.  0.
         25    1    4    4    0    0 -0.33180046204E+02  0.53071019018E+02  0.68124475594E+02  0.15558245660E+03  0.12509000000E+03 0.  0.
         25    1    4    4    0    0 -0.23608282191E+02 -0.18268826456E+02  0.23240928854E+02  0.13068569119E+03  0.12509000000E+03 0.  0.
<mgrwt>
<rscale>  2 0.46979545E+03</rscale>
<asrwt>0</asrwt>
<pdfrwt beam="1">  1       21 0.70798778E-01 0.46979545E+03</pdfrwt>
<pdfrwt beam="2">  1       21 0.16854429E-01 0.46979545E+03</pdfrwt>
<totfact> 0.52508420E+04</totfact>
</mgrwt>
</event>
<event>
 7    0  0.4737014E-002  0.4537157E+03  0.7546771E-02  0.1026620E+00
         21   -1    0    0  502  501  0.00000000000E+00  0.00000000000E+00  0.15583401541E+03  0.15583401541E+03  0.00000000000E+00 0. -1.
         21   -1    0    0  501  502 -0.00000000000E+00 -0.00000000000E+00 -0.33025191968E+03  0.33025191968E+03  0.00000000000E+00 0. -1.
      99926    2    1    2    0    0 -0.17763568394E-14  0.00000000000E+00 -0.17441790427E+03  0.48608593509E+03  0.45371569397E+03 0.  0.
      99925    2    3    3    0    0 -0.15838610591E+02 -0.10409169855E+03 -0.15090042937E+03  0.32089960690E+03  0.26290620919E+03 0.  0.
         25    1    4    4    0    0 -0.25208101280E+02 -0.13456735704E+02 -0.63460891198E+02  0.14314791273E+03  0.12509000000E+03 0.  0.
         25    1    4    4    0    0  0.93694906883E+01 -0.90634962851E+02 -0.87439538172E+02  0.17775169418E+03  0.12509000000E+03 0.  0.
         25    1    3    3    0    0  0.15838610591E+02  0.10409169855E+03 -0.23517474905E+02  0.16518632819E+03  0.12509000000E+03 0.  0.
<mgrwt>
<rscale>  2 0.45371569E+03</rscale>
<asrwt>0</asrwt>
<pdfrwt beam="1">  1       21 0.22916767E-01 0.45371569E+03</pdfrwt>
<pdfrwt beam="2">  1       21 0.48566459E-01 0.45371569E+03</pdfrwt>
<totfact> 0.66939574E+04</totfact>
</mgrwt>
</event>
<event>
 7    0  0.4737014E-002  0.4563633E+03  0.7546771E-02  0.1025841E+00
         21   -1    0    0  502  501  0.00000000000E+00  0.00000000000E+00  0.13035106832E+04  0.13035106832E+04  0.00000000000E+00 0. -1.
         21   -1    0    0  501  502 -0.00000000000E+00 -0.00000000000E+00 -0.39943560261E+02  0.39943560261E+02  0.00000000000E+00 0. -1.
      99926    2    1    2    0    0  0.00000000000E+00  0.17763568394E-14  0.12635671230E+04  0.13434542435E+04  0.45636326551E+03 0.  0.
      99925    2    3    3    0    0 -0.47188872616E+02  0.86899896389E+01  0.11000040350E+04  0.11320241192E+04  0.26299700340E+03 0.  0.
         25    1    4    4    0    0 -0.42205870764E+02  0.31024918634E+02  0.46307363250E+03  0.48252313760E+03  0.12509000000E+03 0.  0.
         25    1    4    4    0    0 -0.49830018512E+01 -0.22334928995E+02  0.63693040245E+03  0.64950098155E+03  0.12509000000E+03 0.  0.
         25    1    3    3    0    0  0.47188872616E+02 -0.86899896389E+01  0.16356308801E+03  0.21143012434E+03  0.12509000000E+03 0.  0.
<mgrwt>
<rscale>  2 0.45636327E+03</rscale>
<asrwt>0</asrwt>
<pdfrwt beam="1">  1       21 0.19169272E+00 0.45636327E+03</pdfrwt>
<pdfrwt beam="2">  1       21 0.58740538E-02 0.45636327E+03</pdfrwt>
<totfact> 0.27584859E+04</totfact>
</mgrwt>
</event>
<event>
 7    0  0.4737014E-002  0.4558163E+03  0.7546771E-02  0.1026002E+00
         21   -1    0    0  502  501  0.00000000000E+00  0.00000000000E+00  0.10435350685E+03  0.10435350685E+03  0.00000000000E+00 0. -1.
         21   -1    0    0  501  502 -0.00000000000E+00 -0.00000000000E+00 -0.49775169465E+03  0.49775169465E+03  0.00000000000E+00 0. -1.
      99926    2    1    2    0    0  0.00000000000E+00  0.00000000000E+00 -0.39339818780E+03  0.60210520151E+03  0.45581634407E+03 0.  0.
      99925    2    3    3    0    0 -0.50925757833E+02  0.25228361622E+02 -0.11671443192E+03  0.29318561341E+03  0.26287952041E+03 0.  0.
         25    1    3    3    0    0  0.50925757833E+02 -0.25228361622E+02 -0.27668375588E+03  0.30891958809E+03  0.12509000000E+03 0.  0.
         25    1    4    4    0    0 -0.18088640195E+02  0.28215369137E+02 -0.18614376896E+02  0.13083313451E+03  0.12509000000E+03 0.  0.
         25    1    4    4    0    0 -0.32837117639E+02 -0.29870075154E+01 -0.98100055022E+02  0.16235247890E+03  0.12509000000E+03 0.  0.
<mgrwt>
<rscale>  2 0.45581634E+03</rscale>
<asrwt>0</asrwt>
<pdfrwt beam="1">  1       21 0.15346104E-01 0.45581634E+03</pdfrwt>
<pdfrwt beam="2">  1       21 0.73198779E-01 0.45581634E+03</pdfrwt>
<totfact> 0.58172764E+04</totfact>
</mgrwt>
</event>
<event>
 7    0  0.4737014E-002  0.4546051E+03  0.7546771E-02  0.1026358E+00
         21   -1    0    0  502  501  0.00000000000E+00  0.00000000000E+00  0.35149955264E+02  0.35149955264E+02  0.00000000000E+00 0. -1.
         21   -1    0    0  501  502 -0.00000000000E+00 -0.00000000000E+00 -0.14698864727E+04  0.14698864727E+04  0.00000000000E+00 0. -1.
      99926    2    1    2    0    0  0.14210854715E-13 -0.14432899320E-14 -0.14347365175E+04  0.15050364280E+04  0.45460507590E+03 0.  0.
      99925    2    3    3    0    0 -0.10942046591E+03 -0.61066922260E+00 -0.99429921413E+03  0.10342862421E+04  0.26295226190E+03 0.  0.
         25    1    4    4    0    0 -0.25291659340E+02  0.22527467630E+02 -0.38668203073E+03  0.40782061721E+03  0.12509000000E+03 0.  0.
         25    1    4    4    0    0 -0.84128806571E+02 -0.23138136852E+02 -0.60761718340E+03  0.62646562486E+03  0.12509000000E+03 0.  0.
         25    1    3    3    0    0  0.10942046591E+03  0.61066922260E+00 -0.44043730334E+03  0.47075018593E+03  0.12509000000E+03 0.  0.
<mgrwt>
<rscale>  2 0.45460508E+03</rscale>
<asrwt>0</asrwt>
<pdfrwt beam="1">  1       21 0.51691121E-02 0.45460508E+03</pdfrwt>
<pdfrwt beam="2">  1       21 0.21615973E+00 0.45460508E+03</pdfrwt>
<totfact> 0.23728662E+04</totfact>
</mgrwt>
</event>
<event>
 7    0  0.4737014E-002  0.4499775E+03  0.7546771E-02  0.1027729E+00
         21   -1    0    0  502  501  0.00000000000E+00  0.00000000000E+00  0.77911320810E+03  0.77911320810E+03  0.00000000000E+00 0.  1.
         21   -1    0    0  501  502 -0.00000000000E+00 -0.00000000000E+00 -0.64971230588E+02  0.64971230588E+02  0.00000000000E+00 0.  1.
      99926    2    1    2    0    0 -0.14210854715E-13 -0.17763568394E-14  0.71414197752E+03  0.84408443869E+03  0.44997752787E+03 0.  0.
      99925    2    3    3    0    0  0.10009961574E+03  0.73206164361E+01  0.52822046355E+03  0.59854861249E+03  0.26300201310E+03 0.  0.
         25    1    3    3    0    0 -0.10009961574E+03 -0.73206164361E+01  0.18592151396E+03  0.24553582621E+03  0.12509000000E+03 0.  0.
         25    1    4    4    0    0  0.73915683182E+01 -0.21231733403E+01  0.22441638478E+03  0.25703961758E+03  0.12509000000E+03 0.  0.
         25    1    4    4    0    0  0.92708047425E+02  0.94437897764E+01  0.30380407877E+03  0.34150899491E+03  0.12509000000E+03 0.  0.
<mgrwt>
<rscale>  2 0.44997753E+03</rscale>
<asrwt>0</asrwt>
<pdfrwt beam="1">  1       21 0.11457547E+00 0.44997753E+03</pdfrwt>
<pdfrwt beam="2">  1       21 0.95545932E-02 0.44997753E+03</pdfrwt>
<totfact> 0.47551241E+04</totfact>
</mgrwt>
</event>
<event>
 7    0  0.4737014E-002  0.4558418E+03  0.7546771E-02  0.1025994E+00
         21   -1    0    0  502  501  0.00000000000E+00  0.00000000000E+00  0.32869905545E+03  0.32869905545E+03  0.00000000000E+00 0. -1.
         21   -1    0    0  501  502 -0.00000000000E+00 -0.00000000000E+00 -0.15804106121E+03  0.15804106121E+03  0.00000000000E+00 0. -1.
      99926    2    1    2    0    0  0.00000000000E+00  0.00000000000E+00  0.17065799424E+03  0.48674011666E+03  0.45584184776E+03 0.  0.
      99925    2    3    3    0    0 -0.42480651878E+02 -0.94869879311E+02  0.57406988508E+02  0.28855283608E+03  0.26298721851E+03 0.  0.
         25    1    4    4    0    0 -0.55628228820E+01 -0.13511193471E+02  0.46296340782E+01  0.12602554883E+03  0.12509000000E+03 0.  0.
         25    1    3    3    0    0  0.42480651878E+02  0.94869879311E+02  0.11325100573E+03  0.19818728058E+03  0.12509000000E+03 0.  0.
         25    1    4    4    0    0 -0.36917828996E+02 -0.81358685840E+02  0.52777354430E+02  0.16252728725E+03  0.12509000000E+03 0.  0.
<mgrwt>
<rscale>  2 0.45584185E+03</rscale>
<asrwt>0</asrwt>
<pdfrwt beam="1">  1       21 0.48338096E-01 0.45584185E+03</pdfrwt>
<pdfrwt beam="2">  1       21 0.23241333E-01 0.45584185E+03</pdfrwt>
<totfact> 0.65771994E+04</totfact>
</mgrwt>
</event>
<event>
 7    0  0.4737014E-002  0.4738098E+03  0.7546771E-02  0.1020850E+00
         21   -1    0    0  502  501  0.00000000000E+00  0.00000000000E+00  0.29559472253E+03  0.29559472253E+03  0.00000000000E+00 0. -1.
         21   -1    0    0  501  502 -0.00000000000E+00 -0.00000000000E+00 -0.18986782675E+03  0.18986782675E+03  0.00000000000E+00 0. -1.
      99926    2    1    2    0    0  0.00000000000E+00  0.00000000000E+00  0.10572689578E+03  0.48546254929E+03  0.47380978279E+03 0.  0.
      99925    2    3    3    0    0  0.98897779359E+02  0.70340245830E+02  0.17554652534E+02  0.29014134326E+03  0.26295496249E+03 0.  0.
         25    1    4    4    0    0  0.29919464533E+02  0.42308146137E+02 -0.26669377151E+02  0.13799970060E+03  0.12509000000E+03 0.  0.
         25    1    4    4    0    0  0.68978314827E+02  0.28032099692E+02  0.44224029685E+02  0.15214164266E+03  0.12509000000E+03 0.  0.
         25    1    3    3    0    0 -0.98897779359E+02 -0.70340245830E+02  0.88172243248E+02  0.19532120603E+03  0.12509000000E+03 0.  0.
<mgrwt>
<rscale>  2 0.47380978E+03</rscale>
<asrwt>0</asrwt>
<pdfrwt beam="1">  1       21 0.43469812E-01 0.47380978E+03</pdfrwt>
<pdfrwt beam="2">  1       21 0.27921739E-01 0.47380978E+03</pdfrwt>
<totfact> 0.57264750E+04</totfact>
</mgrwt>
</event>
<event>
 6    0  0.4737014E-002  0.4463146E+03  0.7546771E-02  0.1028827E+00
         21   -1    0    0  502  501  0.00000000000E+00  0.00000000000E+00  0.29703758856E+03  0.29703758856E+03  0.00000000000E+00 0. -1.
         21   -1    0    0  501  502 -0.00000000000E+00 -0.00000000000E+00 -0.16765276266E+03  0.16765276266E+03  0.00000000000E+00 0. -1.
      99926    2    1    2    0    0 -0.17763568394E-14  0.00000000000E+00  0.12938482591E+03  0.46469035122E+03  0.44631456322E+03 0.  0.
         25    1    3    3    0    0 -0.14334085247E+02 -0.78283096440E+02  0.53349647943E+02  0.15756713561E+03  0.12509000000E+03 0.  0.
         25    1    3    3    0    0 -0.15375426595E+02  0.10633230626E+03  0.29308505183E+02  0.16747972914E+03  0.12509000000E+03 0.  0.
         25    1    3    3    0    0  0.29709511842E+02 -0.28049209817E+02  0.46726672779E+02  0.13964348647E+03  0.12509000000E+03 0.  0.
<mgrwt>
<rscale>  2 0.44631456E+03</rscale>
<asrwt>0</asrwt>
<pdfrwt beam="1">  1       21 0.43681998E-01 0.44631456E+03</pdfrwt>
<pdfrwt beam="2">  1       21 0.24654818E-01 0.44631456E+03</pdfrwt>
<totfact> 0.72715455E+04</totfact>
</mgrwt>
</event>
<event>
 7    0  0.4737014E-002  0.4607662E+03  0.7546771E-02  0.1024559E+00
         21   -1    0    0  502  501  0.00000000000E+00  0.00000000000E+00  0.98376828079E+02  0.98376828079E+02  0.00000000000E+00 0.  1.
         21   -1    0    0  501  502 -0.00000000000E+00 -0.00000000000E+00 -0.53952117114E+03  0.53952117114E+03  0.00000000000E+00 0.  1.
      99926    2    1    2    0    0  0.00000000000E+00  0.00000000000E+00 -0.44114434306E+03  0.63789799922E+03  0.46076623790E+03 0.  0.
      99925    2    3    3    0    0  0.37786742155E+02  0.10214227586E+03 -0.21166896432E+03  0.35475962324E+03  0.26303945983E+03 0.  0.
         25    1    3    3    0    0 -0.37786742155E+02 -0.10214227586E+03 -0.22947537874E+03  0.28313837598E+03  0.12509000000E+03 0.  0.
         25    1    4    4    0    0  0.15699061627E+02  0.16902118967E+02 -0.12775775795E+03  0.18028226474E+03  0.12509000000E+03 0.  0.
         25    1    4    4    0    0  0.22087680528E+02  0.85240156893E+02 -0.83911206368E+02  0.17447735851E+03  0.12509000000E+03 0.  0.
<mgrwt>
<rscale>  2 0.46076624E+03</rscale>
<asrwt>0</asrwt>
<pdfrwt beam="1">  1       21 0.14467181E-01 0.46076624E+03</pdfrwt>
<pdfrwt beam="2">  1       21 0.79341349E-01 0.46076624E+03</pdfrwt>
<totfact> 0.53908558E+04</totfact>
</mgrwt>
</event>
<event>
 7    0  0.4737014E-002  0.4552604E+03  0.7546771E-02  0.1026165E+00
         21   -1    0    0  502  501  0.00000000000E+00  0.00000000000E+00  0.35910468870E+03  0.35910468870E+03  0.00000000000E+00 0.  1.
         21   -1    0    0  501  502 -0.00000000000E+00 -0.00000000000E+00 -0.14429083674E+03  0.14429083674E+03  0.00000000000E+00 0.  1.
      99926    2    1    2    0    0  0.71054273576E-14  0.35527136788E-14  0.21481385196E+03  0.50339552544E+03  0.45526043540E+03 0.  0.
      99925    2    3    3    0    0  0.56391352759E+02  0.27860512134E+02  0.30866747921E+02  0.27222407827E+03  0.26305322629E+03 0.  0.
         25    1    4    4    0    0  0.17034456836E+01 -0.71067088297E+01  0.38511321830E+02  0.13108789817E+03  0.12509000000E+03 0.  0.
         25    1    4    4    0    0  0.54687907076E+02  0.34967220964E+02 -0.76445739096E+01  0.14113618010E+03  0.12509000000E+03 0.  0.
         25    1    3    3    0    0 -0.56391352759E+02 -0.27860512134E+02  0.18394710404E+03  0.23117144717E+03  0.12509000000E+03 0.  0.
<mgrwt>
<rscale>  2 0.45526044E+03</rscale>
<asrwt>0</asrwt>
<pdfrwt beam="1">  1       21 0.52809513E-01 0.45526044E+03</pdfrwt>
<pdfrwt beam="2">  1       21 0.21219241E-01 0.45526044E+03</pdfrwt>
<totfact> 0.64898505E+04</totfact>
</mgrwt>
</event>
<event>
 7    0  0.4737014E-002  0.4542454E+03  0.7546771E-02  0.1026464E+00
         21   -1    0    0  502  501  0.00000000000E+00  0.00000000000E+00  0.72393040474E+02  0.72393040474E+02  0.00000000000E+00 0. -1.
         21   -1    0    0  501  502 -0.00000000000E+00 -0.00000000000E+00 -0.71256463227E+03  0.71256463227E+03  0.00000000000E+00 0. -1.
      99926    2    1    2    0    0 -0.14210854715E-13  0.00000000000E+00 -0.64017159179E+03  0.78495767274E+03  0.45424539740E+03 0.  0.
      99925    2    3    3    0    0  0.75467150686E+02  0.75328357339E+02 -0.46470229155E+03  0.54452756714E+03  0.26304448169E+03 0.  0.
         25    1    4    4    0    0  0.31295023043E+01  0.44625498372E+02 -0.26140333024E+03  0.29322421122E+03  0.12509000000E+03 0.  0.
         25    1    4    4    0    0  0.72337648382E+02  0.30702858967E+02 -0.20329896132E+03  0.25130335592E+03  0.12509000000E+03 0.  0.
         25    1    3    3    0    0 -0.75467150686E+02 -0.75328357339E+02 -0.17546930024E+03  0.24043010560E+03  0.12509000000E+03 0.  0.
<mgrwt>
<rscale>  2 0.45424540E+03</rscale>
<asrwt>0</asrwt>
<pdfrwt beam="1">  1       21 0.10646036E-01 0.45424540E+03</pdfrwt>
<pdfrwt beam="2">  1       21 0.10478891E+00 0.45424540E+03</pdfrwt>
<totfact> 0.48789356E+04</totfact>
</mgrwt>
</event>
<event>
 7    0  0.4737014E-002  0.4537467E+03  0.7546771E-02  0.1026611E+00
         21   -1    0    0  502  501  0.00000000000E+00  0.00000000000E+00  0.13710423677E+03  0.13710423677E+03  0.00000000000E+00 0. -1.
         21   -1    0    0  501  502 -0.00000000000E+00 -0.00000000000E+00 -0.37541889118E+03  0.37541889118E+03  0.00000000000E+00 0. -1.
      99926    2    1    2    0    0 -0.14210854715E-13  0.00000000000E+00 -0.23831465442E+03  0.51252312795E+03  0.45374671589E+03 0.  0.
      99925    2    3    3    0    0 -0.95812279056E+02  0.22514539834E+02 -0.21048593697E+03  0.35094081786E+03  0.26299853736E+03 0.  0.
         25    1    4    4    0    0 -0.58994341021E+02 -0.13623929093E+02 -0.68972266630E+02  0.15514710884E+03  0.12509000000E+03 0.  0.
         25    1    3    3    0    0  0.95812279056E+02 -0.22514539834E+02 -0.27828717442E+02  0.16158231010E+03  0.12509000000E+03 0.  0.
         25    1    4    4    0    0 -0.36817938034E+02  0.36138468928E+02 -0.14151367034E+03  0.19579370902E+03  0.12509000000E+03 0.  0.
<mgrwt>
<rscale>  2 0.45374672E+03</rscale>
<asrwt>0</asrwt>
<pdfrwt beam="1">  1       21 0.20162388E-01 0.45374672E+03</pdfrwt>
<pdfrwt beam="2">  1       21 0.55208659E-01 0.45374672E+03</pdfrwt>
<totfact> 0.65044018E+04</totfact>
</mgrwt>
</event>
<event>
 7    0  0.4737014E-002  0.4260392E+03  0.7546771E-02  0.1035119E+00
         21   -1    0    0  502  501  0.00000000000E+00  0.00000000000E+00  0.95348038641E+02  0.95348038641E+02  0.00000000000E+00 0. -1.
         21   -1    0    0  501  502 -0.00000000000E+00 -0.00000000000E+00 -0.47591269552E+03  0.47591269552E+03  0.00000000000E+00 0. -1.
      99926    2    1    2    0    0  0.00000000000E+00  0.00000000000E+00 -0.38056465688E+03  0.57126073416E+03  0.42603916291E+03 0.  0.
      99925    2    3    3    0    0  0.33590000037E+02 -0.52849367560E+02 -0.17326600238E+03  0.32117757997E+03  0.26308285109E+03 0.  0.
         25    1    4    4    0    0  0.57255232204E+02 -0.28167115186E+02 -0.82160357447E+02  0.16269413151E+03  0.12509000000E+03 0.  0.
         25    1    4    4    0    0 -0.23665232167E+02 -0.24682252374E+02 -0.91105644934E+02  0.15848344846E+03  0.12509000000E+03 0.  0.
         25    1    3    3    0    0 -0.33590000037E+02  0.52849367560E+02 -0.20729865450E+03  0.25008315419E+03  0.12509000000E+03 0.  0.
<mgrwt>
<rscale>  2 0.42603916E+03</rscale>
<asrwt>0</asrwt>
<pdfrwt beam="1">  1       21 0.14021770E-01 0.42603916E+03</pdfrwt>
<pdfrwt beam="2">  1       21 0.69987161E-01 0.42603916E+03</pdfrwt>
<totfact> 0.76567070E+04</totfact>
</mgrwt>
</event>
<event>
 7    0  0.4737014E-002  0.4592565E+03  0.7546771E-02  0.1024997E+00
         21   -1    0    0  502  501  0.00000000000E+00  0.00000000000E+00  0.94151842382E+03  0.94151842382E+03  0.00000000000E+00 0. -1.
         21   -1    0    0  501  502 -0.00000000000E+00 -0.00000000000E+00 -0.56004347074E+02  0.56004347074E+02  0.00000000000E+00 0. -1.
      99926    2    1    2    0    0  0.00000000000E+00 -0.17763568394E-14  0.88551407675E+03  0.99752277089E+03  0.45925646249E+03 0.  0.
      99925    2    3    3    0    0  0.79649348888E+02  0.15756165254E+02  0.73828346742E+03  0.78795980674E+03  0.26310815885E+03 0.  0.
         25    1    3    3    0    0 -0.79649348888E+02 -0.15756165254E+02  0.14723060932E+03  0.20956296415E+03  0.12509000000E+03 0.  0.
         25    1    4    4    0    0  0.11134292461E+02 -0.14738216023E+02  0.28502777790E+03  0.31181650013E+03  0.12509000000E+03 0.  0.
         25    1    4    4    0    0  0.68515056426E+02  0.30494381277E+02  0.45325568952E+03  0.47614330661E+03  0.12509000000E+03 0.  0.
<mgrwt>
<rscale>  2 0.45925646E+03</rscale>
<asrwt>0</asrwt>
<pdfrwt beam="1">  1       21 0.13845858E+00 0.45925646E+03</pdfrwt>
<pdfrwt beam="2">  1       21 0.82359340E-02 0.45925646E+03</pdfrwt>
<totfact> 0.37984746E+04</totfact>
</mgrwt>
</event>
<event>
 7    0  0.4737014E-002  0.4541472E+03  0.7546771E-02  0.1026492E+00
         21   -1    0    0  502  501  0.00000000000E+00  0.00000000000E+00  0.11476433941E+03  0.11476433941E+03  0.00000000000E+00 0.  1.
         21   -1    0    0  501  502 -0.00000000000E+00 -0.00000000000E+00 -0.44928962416E+03  0.44928962416E+03  0.00000000000E+00 0.  1.
      99926    2    1    2    0    0  0.14210854715E-13  0.00000000000E+00 -0.33452528475E+03  0.56405396357E+03  0.45414723129E+03 0.  0.
      99925    2    3    3    0    0 -0.90608091748E+02 -0.11577649295E+02 -0.29203100091E+03  0.40343908097E+03  0.26293938144E+03 0.  0.
         25    1    4    4    0    0 -0.35110100819E+02  0.18153543772E+02 -0.18682098728E+03  0.22828022191E+03  0.12509000000E+03 0.  0.
         25    1    4    4    0    0 -0.55497990929E+02 -0.29731193067E+02 -0.10521001363E+03  0.17515885906E+03  0.12509000000E+03 0.  0.
         25    1    3    3    0    0  0.90608091748E+02  0.11577649295E+02 -0.42494283841E+02  0.16061488260E+03  0.12509000000E+03 0.  0.
<mgrwt>
<rscale>  2 0.45414723E+03</rscale>
<asrwt>0</asrwt>
<pdfrwt beam="1">  1       21 0.16877109E-01 0.45414723E+03</pdfrwt>
<pdfrwt beam="2">  1       21 0.66072002E-01 0.45414723E+03</pdfrwt>
<totfact> 0.61360060E+04</totfact>
</mgrwt>
</event>
<event>
 7    0  0.4737014E-002  0.4560886E+03  0.7546771E-02  0.1025922E+00
         21   -1    0    0  502  501  0.00000000000E+00  0.00000000000E+00  0.93434277885E+02  0.93434277885E+02  0.00000000000E+00 0.  1.
         21   -1    0    0  501  502 -0.00000000000E+00 -0.00000000000E+00 -0.55658589997E+03  0.55658589997E+03  0.00000000000E+00 0.  1.
      99926    2    1    2    0    0  0.00000000000E+00  0.00000000000E+00 -0.46315162208E+03  0.65002017785E+03  0.45608859510E+03 0.  0.
      99925    2    3    3    0    0  0.32725792485E+02  0.39710696768E+02 -0.43642004319E+03  0.51214341280E+03  0.26302187027E+03 0.  0.
         25    1    4    4    0    0 -0.46349942288E+01 -0.14891399424E+02 -0.22031084879E+03  0.25382595443E+03  0.12509000000E+03 0.  0.
         25    1    3    3    0    0 -0.32725792485E+02 -0.39710696768E+02 -0.26731578889E+02  0.13787676505E+03  0.12509000000E+03 0.  0.
         25    1    4    4    0    0  0.37360786713E+02  0.54602096192E+02 -0.21610919441E+03  0.25831745837E+03  0.12509000000E+03 0.  0.
<mgrwt>
<rscale>  2 0.45608860E+03</rscale>
<asrwt>0</asrwt>
<pdfrwt beam="1">  1       21 0.13740335E-01 0.45608860E+03</pdfrwt>
<pdfrwt beam="2">  1       21 0.81850870E-01 0.45608860E+03</pdfrwt>
<totfact> 0.55224531E+04</totfact>
</mgrwt>
</event>
<event>
 7    0  0.4737014E-002  0.4567781E+03  0.7546771E-02  0.1025720E+00
         21   -1    0    0  502  501  0.00000000000E+00  0.00000000000E+00  0.51281890565E+03  0.51281890565E+03  0.00000000000E+00 0.  1.
         21   -1    0    0  501  502 -0.00000000000E+00 -0.00000000000E+00 -0.10171535183E+03  0.10171535183E+03  0.00000000000E+00 0.  1.
      99926    2    1    2    0    0  0.00000000000E+00  0.00000000000E+00  0.41110355382E+03  0.61453425748E+03  0.45677808798E+03 0.  0.
      99925    2    3    3    0    0  0.99064500036E+02  0.57670504321E+02  0.26626737955E+03  0.39145425454E+03  0.26305598976E+03 0.  0.
         25    1    4    4    0    0  0.61942394775E+02  0.23072686395E+02  0.18842203703E+03  0.23562593504E+03  0.12509000000E+03 0.  0.
         25    1    4    4    0    0  0.37122105261E+02  0.34597817926E+02  0.77845342525E+02  0.15582831950E+03  0.12509000000E+03 0.  0.
         25    1    3    3    0    0 -0.99064500036E+02 -0.57670504321E+02  0.14483617427E+03  0.22308000294E+03  0.12509000000E+03 0.  0.
<mgrwt>
<rscale>  2 0.45677809E+03</rscale>
<asrwt>0</asrwt>
<pdfrwt beam="1">  1       21 0.75414544E-01 0.45677809E+03</pdfrwt>
<pdfrwt beam="2">  1       21 0.14958140E-01 0.45677809E+03</pdfrwt>
<totfact> 0.56987930E+04</totfact>
</mgrwt>
</event>
<event>
 7    0  0.4737014E-002  0.4132058E+03  0.7546771E-02  0.1039301E+00
         21   -1    0    0  502  501  0.00000000000E+00  0.00000000000E+00  0.11230328755E+04  0.11230328755E+04  0.00000000000E+00 0.  1.
         21   -1    0    0  501  502 -0.00000000000E+00 -0.00000000000E+00 -0.38008464917E+02  0.38008464917E+02  0.00000000000E+00 0.  1.
      99926    2    1    2    0    0  0.00000000000E+00  0.00000000000E+00  0.10850244106E+04  0.11610413404E+04  0.41320578723E+03 0.  0.
      99925    2    3    3    0    0 -0.33660703253E+02 -0.45766711672E+02  0.81130352886E+03  0.85477631788E+03  0.26306178518E+03 0.  0.
         25    1    3    3    0    0  0.33660703253E+02  0.45766711672E+02  0.27372088174E+03  0.30626502256E+03  0.12509000000E+03 0.  0.
         25    1    4    4    0    0 -0.16553648073E+02 -0.59971368660E+02  0.48107517490E+03  0.50095051685E+03  0.12509000000E+03 0.  0.
         25    1    4    4    0    0 -0.17107055180E+02  0.14204656988E+02  0.33022835396E+03  0.35382580103E+03  0.12509000000E+03 0.  0.
<mgrwt>
<rscale>  2 0.41320579E+03</rscale>
<asrwt>0</asrwt>
<pdfrwt beam="1">  1       21 0.16515187E+00 0.41320579E+03</pdfrwt>
<pdfrwt beam="2">  1       21 0.55894809E-02 0.41320579E+03</pdfrwt>
<totfact> 0.46936435E+04</totfact>
</mgrwt>
</event>
<event>
 7    0  0.4737014E-002  0.4379391E+03  0.7546771E-02  0.1031381E+00
         21   -1    0    0  502  501  0.00000000000E+00  0.00000000000E+00  0.18593913715E+03  0.18593913715E+03  0.00000000000E+00 0. -1.
         21   -1    0    0  501  502 -0.00000000000E+00 -0.00000000000E+00 -0.25786753864E+03  0.25786753864E+03  0.00000000000E+00 0. -1.
      99926    2    1    2    0    0 -0.88817841970E-15  0.00000000000E+00 -0.71928401486E+02  0.44380667578E+03  0.43793911738E+03 0.  0.
      99925    2    3    3    0    0  0.68033409969E+01  0.68316940596E+02 -0.11476727574E+03  0.29482289456E+03  0.26274611654E+03 0.  0.
         25    1    4    4    0    0  0.10410348063E+01  0.67188394162E+02 -0.87080684988E+02  0.16657105950E+03  0.12509000000E+03 0.  0.
         25    1    3    3    0    0 -0.68033409969E+01 -0.68316940596E+02  0.42838874252E+02  0.14898378123E+03  0.12509000000E+03 0.  0.
         25    1    4    4    0    0  0.57623061905E+01  0.11285464343E+01 -0.27686590750E+02  0.12825183506E+03  0.12509000000E+03 0.  0.
<mgrwt>
<rscale>  2 0.43793912E+03</rscale>
<asrwt>0</asrwt>
<pdfrwt beam="1">  1       21 0.27343991E-01 0.43793912E+03</pdfrwt>
<pdfrwt beam="2">  1       21 0.37921697E-01 0.43793912E+03</pdfrwt>
<totfact> 0.79678003E+04</totfact>
</mgrwt>
</event>
<event>
 7    0  0.4737014E-002  0.4553712E+03  0.7546771E-02  0.1026132E+00
         21   -1    0    0  502  501  0.00000000000E+00  0.00000000000E+00  0.34496704202E+02  0.34496704202E+02  0.00000000000E+00 0. -1.
         21   -1    0    0  501  502 -0.00000000000E+00 -0.00000000000E+00 -0.15027735993E+04  0.15027735993E+04  0.00000000000E+00 0. -1.
      99926    2    1    2    0    0 -0.71054273576E-14  0.00000000000E+00 -0.14682768951E+04  0.15372703035E+04  0.45537121708E+03 0.  0.
      99925    2    3    3    0    0 -0.50432168739E+02  0.68231014270E+02 -0.11780060371E+04  0.12100035101E+04  0.26308058858E+03 0.  0.
         25    1    4    4    0    0 -0.37868131675E+02  0.63732795788E+02 -0.51330701286E+03  0.53350488490E+03  0.12509000000E+03 0.  0.
         25    1    4    4    0    0 -0.12564037064E+02  0.44982184812E+01 -0.66469902419E+03  0.67649862517E+03  0.12509000000E+03 0.  0.
         25    1    3    3    0    0  0.50432168739E+02 -0.68231014270E+02 -0.29027085800E+03  0.32726679339E+03  0.12509000000E+03 0.  0.
<mgrwt>
<rscale>  2 0.45537122E+03</rscale>
<asrwt>0</asrwt>
<pdfrwt beam="1">  1       21 0.50730432E-02 0.45537122E+03</pdfrwt>
<pdfrwt beam="2">  1       21 0.22099619E+00 0.45537122E+03</pdfrwt>
<totfact> 0.22814445E+04</totfact>
</mgrwt>
</event>
<event>
 7    0  0.4737014E-002  0.4515093E+03  0.7546771E-02  0.1027273E+00
         21   -1    0    0  502  501  0.00000000000E+00  0.00000000000E+00  0.84594420262E+03  0.84594420262E+03  0.00000000000E+00 0.  1.
         21   -1    0    0  501  502 -0.00000000000E+00 -0.00000000000E+00 -0.60246476580E+02  0.60246476580E+02  0.00000000000E+00 0.  1.
      99926    2    1    2    0    0  0.00000000000E+00  0.00000000000E+00  0.78569772604E+03  0.90619067920E+03  0.45150928049E+03 0.  0.
      99925    2    3    3    0    0 -0.80674171918E+02  0.17082096141E+02  0.64211119374E+03  0.69867026964E+03  0.26274177540E+03 0.  0.
         25    1    4    4    0    0 -0.23203965928E+02  0.78808949275E+01  0.21629828263E+03  0.25106371245E+03  0.12509000000E+03 0.  0.
         25    1    4    4    0    0 -0.57470205990E+02  0.92012012133E+01  0.42581291111E+03  0.44760655720E+03  0.12509000000E+03 0.  0.
         25    1    3    3    0    0  0.80674171918E+02 -0.17082096141E+02  0.14358653231E+03  0.20752040956E+03  0.12509000000E+03 0.  0.
<mgrwt>
<rscale>  2 0.45150928E+03</rscale>
<asrwt>0</asrwt>
<pdfrwt beam="1">  1       21 0.12440355E+00 0.45150928E+03</pdfrwt>
<pdfrwt beam="2">  1       21 0.88597765E-02 0.45150928E+03</pdfrwt>
<totfact> 0.44161448E+04</totfact>
</mgrwt>
</event>
<event>
 7    0  0.4737014E-002  0.4574673E+03  0.7546771E-02  0.1025518E+00
         21   -1    0    0  502  501  0.00000000000E+00  0.00000000000E+00  0.78753992278E+02  0.78753992278E+02  0.00000000000E+00 0.  1.
         21   -1    0    0  501  502 -0.00000000000E+00 -0.00000000000E+00 -0.66433573925E+03  0.66433573925E+03  0.00000000000E+00 0.  1.
      99926    2    1    2    0    0  0.00000000000E+00  0.88817841970E-15 -0.58558174697E+03  0.74308973153E+03  0.45746733951E+03 0.  0.
      99925    2    3    3    0    0  0.10956054511E+03  0.78143493877E+01 -0.42556747446E+03  0.51218574150E+03  0.26298665628E+03 0.  0.
         25    1    3    3    0    0 -0.10956054511E+03 -0.78143493877E+01 -0.16001427252E+03  0.23090399003E+03  0.12509000000E+03 0.  0.
         25    1    4    4    0    0  0.22124210095E+02  0.14767587384E+02 -0.23882624865E+03  0.27091151222E+03  0.12509000000E+03 0.  0.
         25    1    4    4    0    0  0.87436335016E+02 -0.69532379962E+01 -0.18674122581E+03  0.24127422928E+03  0.12509000000E+03 0.  0.
<mgrwt>
<rscale>  2 0.45746734E+03</rscale>
<asrwt>0</asrwt>
<pdfrwt beam="1">  1       21 0.11581470E-01 0.45746734E+03</pdfrwt>
<pdfrwt beam="2">  1       21 0.97696425E-01 0.45746734E+03</pdfrwt>
<totfact> 0.49655000E+04</totfact>
</mgrwt>
</event>
<event>
 7    0  0.4737014E-002  0.4524867E+03  0.7546771E-02  0.1026983E+00
         21   -1    0    0  502  501  0.00000000000E+00  0.00000000000E+00  0.12547778835E+03  0.12547778835E+03  0.00000000000E+00 0. -1.
         21   -1    0    0  501  502 -0.00000000000E+00 -0.00000000000E+00 -0.40792928471E+03  0.40792928471E+03  0.00000000000E+00 0. -1.
      99926    2    1    2    0    0  0.00000000000E+00  0.35527136788E-14 -0.28245149636E+03  0.53340707306E+03  0.45248674875E+03 0.  0.
      99925    2    3    3    0    0 -0.96508753656E+02 -0.19595714194E+02 -0.23772675051E+03  0.36804159136E+03  0.26314002644E+03 0.  0.
         25    1    3    3    0    0  0.96508753656E+02  0.19595714194E+02 -0.44724745850E+02  0.16536548170E+03  0.12509000000E+03 0.  0.
         25    1    4    4    0    0 -0.59218502381E+02  0.69372224794E+00 -0.71686666745E+02  0.15586468030E+03  0.12509000000E+03 0.  0.
         25    1    4    4    0    0 -0.37290251276E+02 -0.20289436442E+02 -0.16604008376E+03  0.21217691106E+03  0.12509000000E+03 0.  0.
<mgrwt>
<rscale>  2 0.45248675E+03</rscale>
<asrwt>0</asrwt>
<pdfrwt beam="1">  1       21 0.18452616E-01 0.45248675E+03</pdfrwt>
<pdfrwt beam="2">  1       21 0.59989601E-01 0.45248675E+03</pdfrwt>
<totfact> 0.64244996E+04</totfact>
</mgrwt>
</event>
<event>
 7    0  0.4737014E-002  0.4548181E+03  0.7546771E-02  0.1026295E+00
         21   -1    0    0  502  501  0.00000000000E+00  0.00000000000E+00  0.12499877560E+03  0.12499877560E+03  0.00000000000E+00 0. -1.
         21   -1    0    0  501  502 -0.00000000000E+00 -0.00000000000E+00 -0.41372308030E+03  0.41372308030E+03  0.00000000000E+00 0. -1.
      99926    2    1    2    0    0  0.00000000000E+00  0.00000000000E+00 -0.28872430470E+03  0.53872185591E+03  0.45481811080E+03 0.  0.
      99925    2    3    3    0    0  0.81491191852E+02  0.71434937645E+02 -0.21949624382E+03  0.35932342453E+03  0.26304174137E+03 0.  0.
         25    1    4    4    0    0  0.11199258138E+02  0.32331526829E+02 -0.13944060955E+03  0.19042568814E+03  0.12509000000E+03 0.  0.
         25    1    4    4    0    0  0.70291933714E+02  0.39103410816E+02 -0.80055634269E+02  0.16889773640E+03  0.12509000000E+03 0.  0.
         25    1    3    3    0    0 -0.81491191852E+02 -0.71434937645E+02 -0.69228060877E+02  0.17939843137E+03  0.12509000000E+03 0.  0.
<mgrwt>
<rscale>  2 0.45481811E+03</rscale>
<asrwt>0</asrwt>
<pdfrwt beam="1">  1       21 0.18382173E-01 0.45481811E+03</pdfrwt>
<pdfrwt beam="2">  1       21 0.60841629E-01 0.45481811E+03</pdfrwt>
<totfact> 0.62708210E+04</totfact>
</mgrwt>
</event>
<event>
 7    0  0.4737014E-002  0.4498969E+03  0.7546771E-02  0.1027753E+00
         21   -1    0    0  502  501  0.00000000000E+00  0.00000000000E+00  0.41289649293E+02  0.41289649293E+02  0.00000000000E+00 0.  1.
         21   -1    0    0  501  502 -0.00000000000E+00 -0.00000000000E+00 -0.12255326844E+04  0.12255326844E+04  0.00000000000E+00 0.  1.
      99926    2    1    2    0    0  0.44408920985E-15  0.00000000000E+00 -0.11842430352E+04  0.12668223337E+04  0.44989694259E+03 0.  0.
      99925    2    3    3    0    0 -0.25089730886E+01  0.26755061266E+02 -0.10440444982E+04  0.10770191037E+04  0.26309524395E+03 0.  0.
         25    1    4    4    0    0  0.57248404015E+01  0.44038325388E+02 -0.42799021010E+03  0.44810185889E+03  0.12509000000E+03 0.  0.
         25    1    4    4    0    0 -0.82338134901E+01 -0.17283264122E+02 -0.61605428808E+03  0.62891724485E+03  0.12509000000E+03 0.  0.
         25    1    3    3    0    0  0.25089730886E+01 -0.26755061266E+02 -0.14019853697E+03  0.18980323000E+03  0.12509000000E+03 0.  0.
<mgrwt>
<rscale>  2 0.44989694E+03</rscale>
<asrwt>0</asrwt>
<pdfrwt beam="1">  1       21 0.60720064E-02 0.44989694E+03</pdfrwt>
<pdfrwt beam="2">  1       21 0.18022542E+00 0.44989694E+03</pdfrwt>
<totfact> 0.31318945E+04</totfact>
</mgrwt>
</event>
<event>
 7    0  0.4737014E-002  0.4520340E+03  0.7546771E-02  0.1027117E+00
         21   -1    0    0  502  501  0.00000000000E+00  0.00000000000E+00  0.36532860517E+03  0.36532860517E+03  0.00000000000E+00 0. -1.
         21   -1    0    0  501  502 -0.00000000000E+00 -0.00000000000E+00 -0.13982943738E+03  0.13982943738E+03  0.00000000000E+00 0. -1.
      99926    2    1    2    0    0  0.00000000000E+00 -0.22204460493E-15  0.22549916779E+03  0.50515804256E+03  0.45203403996E+03 0.  0.
      99925    2    3    3    0    0  0.51794740221E+02 -0.14970860640E+01  0.25125209352E+03  0.36733330724E+03  0.26290912447E+03 0.  0.
         25    1    4    4    0    0  0.43031269140E+02 -0.37380598612E+02  0.13318837619E+03  0.19140441722E+03  0.12509000000E+03 0.  0.
         25    1    3    3    0    0 -0.51794740221E+02  0.14970860640E+01 -0.25752925722E+02  0.13782473531E+03  0.12509000000E+03 0.  0.
         25    1    4    4    0    0  0.87634710814E+01  0.35883512548E+02  0.11806371732E+03  0.17592889003E+03  0.12509000000E+03 0.  0.
<mgrwt>
<rscale>  2 0.45203404E+03</rscale>
<asrwt>0</asrwt>
<pdfrwt beam="1">  1       21 0.53724795E-01 0.45203404E+03</pdfrwt>
<pdfrwt beam="2">  1       21 0.20563153E-01 0.45203404E+03</pdfrwt>
<totfact> 0.66460591E+04</totfact>
</mgrwt>
</event>
<event>
 7    0  0.4737014E-002  0.4601473E+03  0.7546771E-02  0.1024738E+00
         21   -1    0    0  502  501  0.00000000000E+00  0.00000000000E+00  0.77373269548E+02  0.77373269548E+02  0.00000000000E+00 0.  1.
         21   -1    0    0  501  502 -0.00000000000E+00 -0.00000000000E+00 -0.68413669738E+03  0.68413669738E+03  0.00000000000E+00 0.  1.
      99926    2    1    2    0    0  0.00000000000E+00  0.00000000000E+00 -0.60676342783E+03  0.76150996692E+03  0.46014733768E+03 0.  0.
      99925    2    3    3    0    0 -0.73609390055E+02  0.91022970877E+02 -0.40352445457E+03  0.49569591183E+03  0.26301887393E+03 0.  0.
         25    1    3    3    0    0  0.73609390055E+02 -0.91022970877E+02 -0.20323897326E+03  0.26581405509E+03  0.12509000000E+03 0.  0.
         25    1    4    4    0    0 -0.40493769454E+02  0.14938032490E+02 -0.23746761360E+03  0.27184787251E+03  0.12509000000E+03 0.  0.
         25    1    4    4    0    0 -0.33115620600E+02  0.76084938387E+02 -0.16605684097E+03  0.22384803933E+03  0.12509000000E+03 0.  0.
<mgrwt>
<rscale>  2 0.46014734E+03</rscale>
<asrwt>0</asrwt>
<pdfrwt beam="1">  1       21 0.11378422E-01 0.46014734E+03</pdfrwt>
<pdfrwt beam="2">  1       21 0.10060834E+00 0.46014734E+03</pdfrwt>
<totfact> 0.47724432E+04</totfact>
</mgrwt>
</event>
<event>
 7    0  0.4737014E-002  0.4310368E+03  0.7546771E-02  0.1033533E+00
         21   -1    0    0  502  501  0.00000000000E+00  0.00000000000E+00  0.77442584653E+02  0.77442584653E+02  0.00000000000E+00 0.  1.
         21   -1    0    0  501  502 -0.00000000000E+00 -0.00000000000E+00 -0.59977574423E+03  0.59977574423E+03  0.00000000000E+00 0.  1.
      99926    2    1    2    0    0 -0.35527136788E-14  0.71054273576E-14 -0.52233315957E+03  0.67721832888E+03  0.43103681441E+03 0.  0.
      99925    2    3    3    0    0  0.28563107440E+02  0.47073064624E+02 -0.44539206541E+03  0.52037712067E+03  0.26341323291E+03 0.  0.
         25    1    3    3    0    0 -0.28563107440E+02 -0.47073064624E+02 -0.76941094163E+02  0.15684120820E+03  0.12509000000E+03 0.  0.
         25    1    4    4    0    0  0.32708167912E+02  0.52355127367E+02 -0.28076740960E+03  0.31351033476E+03  0.12509000000E+03 0.  0.
         25    1    4    4    0    0 -0.41450604711E+01 -0.52820627427E+01 -0.16462465581E+03  0.20686678591E+03  0.12509000000E+03 0.  0.
<mgrwt>
<rscale>  2 0.43103681E+03</rscale>
<asrwt>0</asrwt>
<pdfrwt beam="1">  1       21 0.11388616E-01 0.43103681E+03</pdfrwt>
<pdfrwt beam="2">  1       21 0.88202313E-01 0.43103681E+03</pdfrwt>
<totfact> 0.65706159E+04</totfact>
</mgrwt>
</event>
<event>
 7    0  0.4737014E-002  0.4354976E+03  0.7546771E-02  0.1032137E+00
         21   -1    0    0  502  501  0.00000000000E+00  0.00000000000E+00  0.24356639236E+02  0.24356639236E+02  0.00000000000E+00 0. -1.
         21   -1    0    0  501  502 -0.00000000000E+00 -0.00000000000E+00 -0.19466779330E+04  0.19466779330E+04  0.00000000000E+00 0. -1.
      99926    2    1    2    0    0  0.00000000000E+00  0.00000000000E+00 -0.19223212938E+04  0.19710345723E+04  0.43549756428E+03 0.  0.
      99925    2    3    3    0    0 -0.44496230451E+02  0.11322977626E+02 -0.86214485672E+03  0.90251704308E+03  0.26293560949E+03 0.  0.
         25    1    3    3    0    0  0.44496230451E+02 -0.11322977626E+02 -0.10601764371E+04  0.10685175292E+04  0.12509000000E+03 0.  0.
         25    1    4    4    0    0 -0.53451866211E+02  0.52399305528E+01 -0.53659108982E+03  0.55359015946E+03  0.12509000000E+03 0.  0.
         25    1    4    4    0    0  0.89556357607E+01  0.60830470736E+01 -0.32555376690E+03  0.34892688362E+03  0.12509000000E+03 0.  0.
<mgrwt>
<rscale>  2 0.43549756E+03</rscale>
<asrwt>0</asrwt>
<pdfrwt beam="1">  1       21 0.35818600E-02 0.43549756E+03</pdfrwt>
<pdfrwt beam="2">  1       21 0.28627607E+00 0.43549756E+03</pdfrwt>
<totfact> 0.16556686E+04</totfact>
</mgrwt>
</event>
<event>
 7    0  0.4737014E-002  0.4278377E+03  0.7546771E-02  0.1034545E+00
         21   -1    0    0  502  501  0.00000000000E+00  0.00000000000E+00  0.30117193817E+03  0.30117193817E+03  0.00000000000E+00 0.  1.
         21   -1    0    0  501  502 -0.00000000000E+00 -0.00000000000E+00 -0.15194402101E+03  0.15194402101E+03  0.00000000000E+00 0.  1.
      99926    2    1    2    0    0  0.00000000000E+00  0.00000000000E+00  0.14922791716E+03  0.45311595918E+03  0.42783770428E+03 0.  0.
      99925    2    3    3    0    0  0.39885574292E+02  0.70180542229E+02  0.12509922934E+03  0.30229862192E+03  0.26309403659E+03 0.  0.
         25    1    4    4    0    0 -0.13437593570E+02  0.57549646786E+02  0.56074033094E+02  0.14927938925E+03  0.12509000000E+03 0.  0.
         25    1    3    3    0    0 -0.39885574292E+02 -0.70180542229E+02  0.24128687824E+02  0.15081733727E+03  0.12509000000E+03 0.  0.
         25    1    4    4    0    0  0.53323167861E+02  0.12630895444E+02  0.69025196245E+02  0.15301923267E+03  0.12509000000E+03 0.  0.
<mgrwt>
<rscale>  2 0.42783770E+03</rscale>
<asrwt>0</asrwt>
<pdfrwt beam="1">  1       21 0.44289991E-01 0.42783770E+03</pdfrwt>
<pdfrwt beam="2">  1       21 0.22344709E-01 0.42783770E+03</pdfrwt>
<totfact> 0.85756658E+04</totfact>
</mgrwt>
</event>
<event>
 7    0  0.4737014E-002  0.4507579E+03  0.7546771E-02  0.1027496E+00
         21   -1    0    0  502  501  0.00000000000E+00  0.00000000000E+00  0.40904077285E+02  0.40904077285E+02  0.00000000000E+00 0.  1.
         21   -1    0    0  501  502 -0.00000000000E+00 -0.00000000000E+00 -0.12418241158E+04  0.12418241158E+04  0.00000000000E+00 0.  1.
      99926    2    1    2    0    0  0.00000000000E+00  0.14210854715E-13 -0.12009200385E+04  0.12827281931E+04  0.45075789336E+03 0.  0.
      99925    2    3    3    0    0  0.22963737669E+02  0.10545246401E+03 -0.71332360792E+03  0.76790264725E+03  0.26305199224E+03 0.  0.
         25    1    4    4    0    0  0.10439594074E+02  0.94712551146E+02 -0.36502011969E+03  0.39745018348E+03  0.12509000000E+03 0.  0.
         25    1    3    3    0    0 -0.22963737669E+02 -0.10545246401E+03 -0.48759643058E+03  0.51482554582E+03  0.12509000000E+03 0.  0.
         25    1    4    4    0    0  0.12524143595E+02  0.10739912868E+02 -0.34830348823E+03  0.37045246377E+03  0.12509000000E+03 0.  0.
<mgrwt>
<rscale>  2 0.45075789E+03</rscale>
<asrwt>0</asrwt>
<pdfrwt beam="1">  1       21 0.60153072E-02 0.45075789E+03</pdfrwt>
<pdfrwt beam="2">  1       21 0.18262114E+00 0.45075789E+03</pdfrwt>
<totfact> 0.30618442E+04</totfact>
</mgrwt>
</event>
<event>
 7    0  0.4737014E-002  0.4520391E+03  0.7546771E-02  0.1027116E+00
         21   -1    0    0  502  501  0.00000000000E+00  0.00000000000E+00  0.32784233159E+03  0.32784233159E+03  0.00000000000E+00 0. -1.
         21   -1    0    0  501  502 -0.00000000000E+00 -0.00000000000E+00 -0.15582136765E+03  0.15582136765E+03  0.00000000000E+00 0. -1.
      99926    2    1    2    0    0  0.00000000000E+00 -0.71054273576E-14  0.17202096393E+03  0.48366369924E+03  0.45203911549E+03 0.  0.
      99925    2    3    3    0    0 -0.75901004585E+02 -0.60774771702E+02  0.16444668281E+03  0.32504650847E+03  0.26297905965E+03 0.  0.
         25    1    3    3    0    0  0.75901004585E+02  0.60774771702E+02  0.75742811282E+01  0.15861719077E+03  0.12509000000E+03 0.  0.
         25    1    4    4    0    0 -0.72977676650E+02 -0.51742100643E+02  0.10508030548E+03  0.18625886547E+03  0.12509000000E+03 0.  0.
         25    1    4    4    0    0 -0.29233279343E+01 -0.90326710593E+01  0.59366377330E+02  0.13878764300E+03  0.12509000000E+03 0.  0.
<mgrwt>
<rscale>  2 0.45203912E+03</rscale>
<asrwt>0</asrwt>
<pdfrwt beam="1">  1       21 0.48212107E-01 0.45203912E+03</pdfrwt>
<pdfrwt beam="2">  1       21 0.22914907E-01 0.45203912E+03</pdfrwt>
<totfact> 0.68019129E+04</totfact>
</mgrwt>
</event>
<event>
 6    0  0.4737014E-002  0.4617307E+03  0.7546771E-02  0.1024280E+00
         21   -1    0    0  502  501  0.00000000000E+00  0.00000000000E+00  0.64084441621E+02  0.64084441621E+02  0.00000000000E+00 0. -1.
         21   -1    0    0  501  502 -0.00000000000E+00 -0.00000000000E+00 -0.83169668999E+03  0.83169668999E+03  0.00000000000E+00 0. -1.
      99926    2    1    2    0    0  0.00000000000E+00  0.00000000000E+00 -0.76761224837E+03  0.89578113161E+03  0.46173073528E+03 0.  0.
         25    1    3    3    0    0  0.51510008446E+02 -0.20683764473E+02 -0.80788755556E+02  0.15891957150E+03  0.12509000000E+03 0.  0.
         25    1    3    3    0    0 -0.16883177580E+02  0.19881048882E+02 -0.24435761267E+03  0.27575070038E+03  0.12509000000E+03 0.  0.
         25    1    3    3    0    0 -0.34626830866E+02  0.80271559094E+00 -0.44246588014E+03  0.46111085973E+03  0.12509000000E+03 0.  0.
<mgrwt>
<rscale>  2 0.46173074E+03</rscale>
<asrwt>0</asrwt>
<pdfrwt beam="1">  1       21 0.94241828E-02 0.46173074E+03</pdfrwt>
<pdfrwt beam="2">  1       21 0.12230833E+00 0.46173074E+03</pdfrwt>
<totfact> 0.41201880E+04</totfact>
</mgrwt>
</event>
<event>
 7    0  0.4737014E-002  0.4680229E+03  0.7546771E-02  0.1022480E+00
         21   -1    0    0  502  501  0.00000000000E+00  0.00000000000E+00  0.41037767920E+03  0.41037767920E+03  0.00000000000E+00 0. -1.
         21   -1    0    0  501  502 -0.00000000000E+00 -0.00000000000E+00 -0.13344137949E+03  0.13344137949E+03  0.00000000000E+00 0. -1.
      99926    2    1    2    0    0  0.00000000000E+00 -0.17763568394E-14  0.27693629972E+03  0.54381905869E+03  0.46802292090E+03 0.  0.
      99925    2    3    3    0    0  0.58894156230E+02  0.14788686755E+02  0.29924448378E+03  0.40299153982E+03  0.26299751558E+03 0.  0.
         25    1    3    3    0    0 -0.58894156230E+02 -0.14788686755E+02 -0.22308184060E+02  0.14082751887E+03  0.12509000000E+03 0.  0.
         25    1    4    4    0    0  0.45349618080E+02 -0.19070311754E+02  0.19122830288E+03  0.23374352734E+03  0.12509000000E+03 0.  0.
         25    1    4    4    0    0  0.13544538149E+02  0.33858998509E+02  0.10801618090E+03  0.16924801248E+03  0.12509000000E+03 0.  0.
<mgrwt>
<rscale>  2 0.46802292E+03</rscale>
<asrwt>0</asrwt>
<pdfrwt beam="1">  1       21 0.60349658E-01 0.46802292E+03</pdfrwt>
<pdfrwt beam="2">  1       21 0.19623732E-01 0.46802292E+03</pdfrwt>
<totfact> 0.56247598E+04</totfact>
</mgrwt>
</event>
<event>
 7    0  0.4737014E-002  0.4584970E+03  0.7546771E-02  0.1025218E+00
         21   -1    0    0  502  501  0.00000000000E+00  0.00000000000E+00  0.80542913350E+02  0.80542913350E+02  0.00000000000E+00 0.  1.
         21   -1    0    0  501  502 -0.00000000000E+00 -0.00000000000E+00 -0.65250771017E+03  0.65250771017E+03  0.00000000000E+00 0.  1.
      99926    2    1    2    0    0  0.35527136788E-14 -0.71054273576E-14 -0.57196479682E+03  0.73305062352E+03  0.45849698782E+03 0.  0.
      99925    2    3    3    0    0  0.23369649408E+02 -0.41595692806E+02 -0.52858817925E+03  0.59231903067E+03  0.26298294371E+03 0.  0.
         25    1    3    3    0    0 -0.23369649408E+02  0.41595692806E+02 -0.43376617574E+02  0.14073159285E+03  0.12509000000E+03 0.  0.
         25    1    4    4    0    0 -0.13186811058E+02  0.10606779133E+02 -0.27106027329E+03  0.29901099579E+03  0.12509000000E+03 0.  0.
         25    1    4    4    0    0  0.36556460466E+02 -0.52202471939E+02 -0.25752790596E+03  0.29330803488E+03  0.12509000000E+03 0.  0.
<mgrwt>
<rscale>  2 0.45849699E+03</rscale>
<asrwt>0</asrwt>
<pdfrwt beam="1">  1       21 0.11844546E-01 0.45849699E+03</pdfrwt>
<pdfrwt beam="2">  1       21 0.95957019E-01 0.45849699E+03</pdfrwt>
<totfact> 0.49762529E+04</totfact>
</mgrwt>
</event>
<event>
 7    0  0.4737014E-002  0.4468558E+03  0.7546771E-02  0.1028664E+00
         21   -1    0    0  502  501  0.00000000000E+00  0.00000000000E+00  0.25527418257E+03  0.25527418257E+03  0.00000000000E+00 0.  1.
         21   -1    0    0  501  502 -0.00000000000E+00 -0.00000000000E+00 -0.19555454624E+03  0.19555454624E+03  0.00000000000E+00 0.  1.
      99926    2    1    2    0    0 -0.14210854715E-13  0.17763568394E-14  0.59719636326E+02  0.45082872881E+03  0.44685580198E+03 0.  0.
      99925    2    3    3    0    0  0.62290638575E+02  0.15630665052E+02 -0.46181164881E+02  0.27479768286E+03  0.26316653505E+03 0.  0.
         25    1    4    4    0    0 -0.49918741374E+01 -0.80706033570E+01 -0.74060551996E+01  0.12566786065E+03  0.12509000000E+03 0.  0.
         25    1    4    4    0    0  0.67282512713E+02  0.23701268409E+02 -0.38775109682E+02  0.14912982221E+03  0.12509000000E+03 0.  0.
         25    1    3    3    0    0 -0.62290638575E+02 -0.15630665052E+02  0.10590080121E+03  0.17603104596E+03  0.12509000000E+03 0.  0.
<mgrwt>
<rscale>  2 0.44685580E+03</rscale>
<asrwt>0</asrwt>
<pdfrwt beam="1">  1       21 0.37540321E-01 0.44685580E+03</pdfrwt>
<pdfrwt beam="2">  1       21 0.28758022E-01 0.44685580E+03</pdfrwt>
<totfact> 0.73514017E+04</totfact>
</mgrwt>
</event>
<event>
 7    0  0.4737014E-002  0.4600583E+03  0.7546771E-02  0.1024764E+00
         21   -1    0    0  502  501  0.00000000000E+00  0.00000000000E+00  0.13601724777E+04  0.13601724777E+04  0.00000000000E+00 0.  1.
         21   -1    0    0  501  502 -0.00000000000E+00 -0.00000000000E+00 -0.38901985061E+02  0.38901985061E+02  0.00000000000E+00 0.  1.
      99926    2    1    2    0    0  0.35527136788E-14  0.00000000000E+00  0.13212704926E+04  0.13990744627E+04  0.46005829807E+03 0.  0.
      99925    2    3    3    0    0  0.27748511679E+02 -0.10174498270E+03  0.67983464648E+03  0.73710054013E+03  0.26461299722E+03 0.  0.
         25    1    4    4    0    0  0.50880579214E+02 -0.65964053058E+02  0.40918305697E+03  0.43591096780E+03  0.12509000000E+03 0.  0.
         25    1    4    4    0    0 -0.23132067535E+02 -0.35780929646E+02  0.27065158951E+03  0.30118957233E+03  0.12509000000E+03 0.  0.
         25    1    3    3    0    0 -0.27748511679E+02  0.10174498270E+03  0.64143584612E+03  0.66197392259E+03  0.12509000000E+03 0.  0.
<mgrwt>
<rscale>  2 0.46005830E+03</rscale>
<asrwt>0</asrwt>
<pdfrwt beam="1">  1       21 0.20002533E+00 0.46005830E+03</pdfrwt>
<pdfrwt beam="2">  1       21 0.57208811E-02 0.46005830E+03</pdfrwt>
<totfact> 0.25345631E+04</totfact>
</mgrwt>
</event>
<event>
 7    0  0.4737014E-002  0.4749372E+03  0.7546771E-02  0.1020536E+00
         21   -1    0    0  502  501  0.00000000000E+00  0.00000000000E+00  0.34263441010E+03  0.34263441010E+03  0.00000000000E+00 0. -1.
         21   -1    0    0  501  502 -0.00000000000E+00 -0.00000000000E+00 -0.16458165226E+03  0.16458165226E+03  0.00000000000E+00 0. -1.
      99926    2    1    2    0    0  0.00000000000E+00  0.00000000000E+00  0.17805275784E+03  0.50721606236E+03  0.47493720568E+03 0.  0.
      99925    2    3    3    0    0 -0.12362789914E+03 -0.24869910264E+02  0.14762064337E+03  0.32700509828E+03  0.26313135516E+03 0.  0.
         25    1    4    4    0    0 -0.39438991036E+02 -0.24062940973E+02  0.10665491451E+03  0.17075490632E+03  0.12509000000E+03 0.  0.
         25    1    3    3    0    0  0.12362789914E+03  0.24869910264E+02  0.30432114469E+02  0.18021096408E+03  0.12509000000E+03 0.  0.
         25    1    4    4    0    0 -0.84188908108E+02 -0.80696929103E+00  0.40965728860E+02  0.15625019196E+03  0.12509000000E+03 0.  0.
<mgrwt>
<rscale>  2 0.47493721E+03</rscale>
<asrwt>0</asrwt>
<pdfrwt beam="1">  1       21 0.50387413E-01 0.47493721E+03</pdfrwt>
<pdfrwt beam="2">  1       21 0.24203184E-01 0.47493721E+03</pdfrwt>
<totfact> 0.55456186E+04</totfact>
</mgrwt>
</event>
<event>
 7    0  0.4737014E-002  0.4533686E+03  0.7546771E-02  0.1026722E+00
         21   -1    0    0  502  501  0.00000000000E+00  0.00000000000E+00  0.25095595249E+03  0.25095595249E+03  0.00000000000E+00 0.  1.
         21   -1    0    0  501  502 -0.00000000000E+00 -0.00000000000E+00 -0.20476009334E+03  0.20476009334E+03  0.00000000000E+00 0.  1.
      99926    2    1    2    0    0  0.00000000000E+00  0.00000000000E+00  0.46195859151E+02  0.45571604584E+03  0.45336856644E+03 0.  0.
      99925    2    3    3    0    0 -0.20094822516E+02 -0.97893198039E+02 -0.20917372043E+02  0.28211139724E+03  0.26298749758E+03 0.  0.
         25    1    4    4    0    0 -0.71635973838E+00 -0.63940722472E+02 -0.47666942524E+02  0.14835287214E+03  0.12509000000E+03 0.  0.
         25    1    4    4    0    0 -0.19378462778E+02 -0.33952475567E+02  0.26749570481E+02  0.13375852510E+03  0.12509000000E+03 0.  0.
         25    1    3    3    0    0  0.20094822516E+02  0.97893198039E+02  0.67113231193E+02  0.17360464860E+03  0.12509000000E+03 0.  0.
<mgrwt>
<rscale>  2 0.45336857E+03</rscale>
<asrwt>0</asrwt>
<pdfrwt beam="1">  1       21 0.36905287E-01 0.45336857E+03</pdfrwt>
<pdfrwt beam="2">  1       21 0.30111779E-01 0.45336857E+03</pdfrwt>
<totfact> 0.69392203E+04</totfact>
</mgrwt>
</event>
<event>
 7    0  0.4737014E-002  0.4788887E+03  0.7546771E-02  0.1019441E+00
         21   -1    0    0  502  501  0.00000000000E+00  0.00000000000E+00  0.93576508911E+03  0.93576508911E+03  0.00000000000E+00 0. -1.
         21   -1    0    0  501  502 -0.00000000000E+00 -0.00000000000E+00 -0.61269213308E+02  0.61269213308E+02  0.00000000000E+00 0. -1.
      99926    2    1    2    0    0  0.00000000000E+00 -0.35527136788E-14  0.87449587580E+03  0.99703430242E+03  0.47888867538E+03 0.  0.
      99925    2    3    3    0    0 -0.68031434723E+02 -0.23379256387E+02  0.77556335407E+03  0.82207711424E+03  0.26293991678E+03 0.  0.
         25    1    3    3    0    0  0.68031434723E+02  0.23379256387E+02  0.98932521727E+02  0.17495718818E+03  0.12509000000E+03 0.  0.
         25    1    4    4    0    0 -0.53499869165E+02  0.12228123783E+02  0.31638977537E+03  0.34461828313E+03  0.12509000000E+03 0.  0.
         25    1    4    4    0    0 -0.14531565559E+02 -0.35607380171E+02  0.45917357871E+03  0.47745883111E+03  0.12509000000E+03 0.  0.
<mgrwt>
<rscale>  2 0.47888868E+03</rscale>
<asrwt>0</asrwt>
<pdfrwt beam="1">  1       21 0.13761250E+00 0.47888868E+03</pdfrwt>
<pdfrwt beam="2">  1       21 0.90101790E-02 0.47888868E+03</pdfrwt>
<totfact> 0.32734084E+04</totfact>
</mgrwt>
</event>
<event>
 7    0  0.4737014E-002  0.4516673E+03  0.7546771E-02  0.1027226E+00
         21   -1    0    0  502  501  0.00000000000E+00  0.00000000000E+00  0.55913628467E+03  0.55913628467E+03  0.00000000000E+00 0.  1.
         21   -1    0    0  501  502 -0.00000000000E+00 -0.00000000000E+00 -0.91213599322E+02  0.91213599322E+02  0.00000000000E+00 0.  1.
      99926    2    1    2    0    0 -0.35527136788E-14  0.00000000000E+00  0.46792268535E+03  0.65034988400E+03  0.45166728036E+03 0.  0.
      99925    2    3    3    0    0  0.25580443289E+02  0.10923763737E+02  0.44872873144E+03  0.52077518099E+03  0.26282242488E+03 0.  0.
         25    1    4    4    0    0 -0.14100285011E+02  0.21298503359E+02  0.17076937141E+03  0.21321850434E+03  0.12509000000E+03 0.  0.
         25    1    3    3    0    0 -0.25580443289E+02 -0.10923763737E+02  0.19193953913E+02  0.12957470301E+03  0.12509000000E+03 0.  0.
         25    1    4    4    0    0  0.39680728299E+02 -0.10374739622E+02  0.27795936003E+03  0.30755667664E+03  0.12509000000E+03 0.  0.
<mgrwt>
<rscale>  2 0.45166728E+03</rscale>
<asrwt>0</asrwt>
<pdfrwt beam="1">  1       21 0.82225923E-01 0.45166728E+03</pdfrwt>
<pdfrwt beam="2">  1       21 0.13413765E-01 0.45166728E+03</pdfrwt>
<totfact> 0.57169603E+04</totfact>
</mgrwt>
</event>
<event>
 7    0  0.4737014E-002  0.4519513E+03  0.7546771E-02  0.1027142E+00
         21   -1    0    0  502  501  0.00000000000E+00  0.00000000000E+00  0.27885291248E+03  0.27885291248E+03  0.00000000000E+00 0.  1.
         21   -1    0    0  501  502 -0.00000000000E+00 -0.00000000000E+00 -0.18312518750E+03  0.18312518750E+03  0.00000000000E+00 0.  1.
      99926    2    1    2    0    0  0.71054273576E-14 -0.71054273576E-14  0.95727724983E+02  0.46197809999E+03  0.45195128890E+03 0.  0.
      99925    2    3    3    0    0 -0.63518523538E+02  0.30231675260E+02 -0.26272923600E+02  0.27361615219E+03  0.26311019593E+03 0.  0.
         25    1    3    3    0    0  0.63518523538E+02 -0.30231675260E+02  0.12200064858E+03  0.18836194779E+03  0.12509000000E+03 0.  0.
         25    1    4    4    0    0 -0.45719468747E+02  0.41783083168E+02 -0.42006455208E+02  0.14576743889E+03  0.12509000000E+03 0.  0.
         25    1    4    4    0    0 -0.17799054792E+02 -0.11551407908E+02  0.15733531608E+02  0.12784871330E+03  0.12509000000E+03 0.  0.
<mgrwt>
<rscale>  2 0.45195129E+03</rscale>
<asrwt>0</asrwt>
<pdfrwt beam="1">  1       21 0.41007782E-01 0.45195129E+03</pdfrwt>
<pdfrwt beam="2">  1       21 0.26930174E-01 0.45195129E+03</pdfrwt>
<totfact> 0.69708202E+04</totfact>
</mgrwt>
</event>
<event>
 7    0  0.4737014E-002  0.4575011E+03  0.7546771E-02  0.1025508E+00
         21   -1    0    0  502  501  0.00000000000E+00  0.00000000000E+00  0.12189017536E+03  0.12189017536E+03  0.00000000000E+00 0.  1.
         21   -1    0    0  501  502 -0.00000000000E+00 -0.00000000000E+00 -0.42929467427E+03  0.42929467427E+03  0.00000000000E+00 0.  1.
      99926    2    1    2    0    0 -0.32959746044E-15 -0.14210854715E-13 -0.30740449891E+03  0.55118484963E+03  0.45750105192E+03 0.  0.
      99925    2    3    3    0    0  0.86377519433E-02 -0.82264808046E+02 -0.95841632961E+02  0.29200565859E+03  0.26327587683E+03 0.  0.
         25    1    4    4    0    0  0.14703287180E+02 -0.28429881702E+02 -0.85037636146E+02  0.15460709068E+03  0.12509000000E+03 0.  0.
         25    1    4    4    0    0 -0.14694649428E+02 -0.53834926343E+02 -0.10803996814E+02  0.13739856791E+03  0.12509000000E+03 0.  0.
         25    1    3    3    0    0 -0.86377519433E-02  0.82264808046E+02 -0.21156286595E+03  0.25917919104E+03  0.12509000000E+03 0.  0.
<mgrwt>
<rscale>  2 0.45750105E+03</rscale>
<asrwt>0</asrwt>
<pdfrwt beam="1">  1       21 0.17925025E-01 0.45750105E+03</pdfrwt>
<pdfrwt beam="2">  1       21 0.63131571E-01 0.45750105E+03</pdfrwt>
<totfact> 0.60580610E+04</totfact>
</mgrwt>
</event>
<event>
 7    0  0.4737014E-002  0.4529227E+03  0.7546771E-02  0.1026854E+00
         21   -1    0    0  502  501  0.00000000000E+00  0.00000000000E+00  0.72239663463E+03  0.72239663463E+03  0.00000000000E+00 0. -1.
         21   -1    0    0  501  502 -0.00000000000E+00 -0.00000000000E+00 -0.70992500171E+02  0.70992500171E+02  0.00000000000E+00 0. -1.
      99926    2    1    2    0    0  0.00000000000E+00 -0.35527136788E-14  0.65140413446E+03  0.79338913480E+03  0.45292270072E+03 0.  0.
      99925    2    3    3    0    0 -0.10833572531E+03  0.21243345821E+02  0.38959609769E+03  0.48293967783E+03  0.26316858468E+03 0.  0.
         25    1    3    3    0    0  0.10833572531E+03 -0.21243345821E+02  0.26180803677E+03  0.31044945697E+03  0.12509000000E+03 0.  0.
         25    1    4    4    0    0 -0.92343501480E+02  0.13781744928E+02  0.18036969322E+03  0.23853300210E+03  0.12509000000E+03 0.  0.
         25    1    4    4    0    0 -0.15992223828E+02  0.74616008937E+01  0.20922640447E+03  0.24440667572E+03  0.12509000000E+03 0.  0.
<mgrwt>
<rscale>  2 0.45292270E+03</rscale>
<asrwt>0</asrwt>
<pdfrwt beam="1">  1       21 0.10623480E+00 0.45292270E+03</pdfrwt>
<pdfrwt beam="2">  1       21 0.10440074E-01 0.45292270E+03</pdfrwt>
<totfact> 0.48878252E+04</totfact>
</mgrwt>
</event>
<event>
 7    0  0.4737014E-002  0.4152632E+03  0.7546771E-02  0.1038619E+00
         21   -1    0    0  502  501  0.00000000000E+00  0.00000000000E+00  0.33258366944E+03  0.33258366944E+03  0.00000000000E+00 0.  1.
         21   -1    0    0  501  502 -0.00000000000E+00 -0.00000000000E+00 -0.12962415199E+03  0.12962415199E+03  0.00000000000E+00 0.  1.
      99926    2    1    2    0    0  0.00000000000E+00  0.00000000000E+00  0.20295951744E+03  0.46220782143E+03  0.41526317495E+03 0.  0.
      99925    2    3    3    0    0 -0.17236264702E+02 -0.63679073979E+02  0.10796880887E+03  0.29184686317E+03  0.26299280327E+03 0.  0.
         25    1    4    4    0    0 -0.48354787059E+00 -0.71364818499E+02  0.47138828709E+02  0.15153464426E+03  0.12509000000E+03 0.  0.
         25    1    4    4    0    0 -0.16752716831E+02  0.76857445201E+01  0.60829980160E+02  0.14031221891E+03  0.12509000000E+03 0.  0.
         25    1    3    3    0    0  0.17236264702E+02  0.63679073979E+02  0.94990708574E+02  0.17036095826E+03  0.12509000000E+03 0.  0.
<mgrwt>
<rscale>  2 0.41526317E+03</rscale>
<asrwt>0</asrwt>
<pdfrwt beam="1">  1       21 0.48909363E-01 0.41526317E+03</pdfrwt>
<pdfrwt beam="2">  1       21 0.19062375E-01 0.41526317E+03</pdfrwt>
<totfact> 0.94484905E+04</totfact>
</mgrwt>
</event>
<event>
 7    0  0.4737014E-002  0.4823458E+03  0.7546771E-02  0.1018492E+00
         21   -1    0    0  502  501  0.00000000000E+00  0.00000000000E+00  0.59395201730E+03  0.59395201730E+03  0.00000000000E+00 0.  1.
         21   -1    0    0  501  502 -0.00000000000E+00 -0.00000000000E+00 -0.97927719507E+02  0.97927719507E+02  0.00000000000E+00 0.  1.
      99926    2    1    2    0    0  0.17763568394E-14  0.00000000000E+00  0.49602429779E+03  0.69187973681E+03  0.48234579526E+03 0.  0.
      99925    2    3    3    0    0  0.15918963208E+02 -0.11377663697E+03  0.41278341056E+03  0.50273669592E+03  0.26297434263E+03 0.  0.
         25    1    4    4    0    0  0.38883178516E+02 -0.40360761340E+02  0.23598552829E+03  0.27290579013E+03  0.12509000000E+03 0.  0.
         25    1    4    4    0    0 -0.22964215308E+02 -0.73415875626E+02  0.17679788227E+03  0.22983090579E+03  0.12509000000E+03 0.  0.
         25    1    3    3    0    0 -0.15918963208E+02  0.11377663697E+03  0.83240887239E+02  0.18914304089E+03  0.12509000000E+03 0.  0.
<mgrwt>
<rscale>  2 0.48234580E+03</rscale>
<asrwt>0</asrwt>
<pdfrwt beam="1">  1       21 0.87345883E-01 0.48234580E+03</pdfrwt>
<pdfrwt beam="2">  1       21 0.14401136E-01 0.48234580E+03</pdfrwt>
<totfact> 0.43248122E+04</totfact>
</mgrwt>
</event>
<event>
 7    0  0.4737014E-002  0.4544422E+03  0.7546771E-02  0.1026406E+00
         21   -1    0    0  502  501  0.00000000000E+00  0.00000000000E+00  0.31977454089E+03  0.31977454089E+03  0.00000000000E+00 0. -1.
         21   -1    0    0  501  502 -0.00000000000E+00 -0.00000000000E+00 -0.16145569127E+03  0.16145569127E+03  0.00000000000E+00 0. -1.
      99926    2    1    2    0    0  0.26645352591E-14 -0.71054273576E-14  0.15831884962E+03  0.48123023216E+03  0.45444216156E+03 0.  0.
      99925    2    3    3    0    0 -0.44460311461E+01  0.44275148415E+02 -0.98332518993E+01  0.26698109376E+03  0.26306302595E+03 0.  0.
         25    1    4    4    0    0 -0.30192354111E+02  0.17680728642E+01  0.16753564789E+02  0.12978017707E+03  0.12509000000E+03 0.  0.
         25    1    4    4    0    0  0.25746322965E+02  0.42507075551E+02 -0.26586816688E+02  0.13720091669E+03  0.12509000000E+03 0.  0.
         25    1    3    3    0    0  0.44460311461E+01 -0.44275148415E+02  0.16815210152E+03  0.21424913840E+03  0.12509000000E+03 0.  0.
<mgrwt>
<rscale>  2 0.45444216E+03</rscale>
<asrwt>0</asrwt>
<pdfrwt beam="1">  1       21 0.47025668E-01 0.45444216E+03</pdfrwt>
<pdfrwt beam="2">  1       21 0.23743484E-01 0.45444216E+03</pdfrwt>
<totfact> 0.66906429E+04</totfact>
</mgrwt>
</event>
<event>
 7    0  0.4737014E-002  0.4225170E+03  0.7546771E-02  0.1036250E+00
         21   -1    0    0  502  501  0.00000000000E+00  0.00000000000E+00  0.45857892213E+02  0.45857892213E+02  0.00000000000E+00 0. -1.
         21   -1    0    0  501  502 -0.00000000000E+00 -0.00000000000E+00 -0.97322715805E+03  0.97322715805E+03  0.00000000000E+00 0. -1.
      99926    2    1    2    0    0  0.71054273576E-14  0.00000000000E+00 -0.92736926584E+03  0.10190850503E+04  0.42251696350E+03 0.  0.
      99925    2    3    3    0    0 -0.63653983266E+02 -0.24590298213E+02 -0.50604324037E+03  0.57431585147E+03  0.26287339877E+03 0.  0.
         25    1    3    3    0    0  0.63653983266E+02  0.24590298213E+02 -0.42132602547E+03  0.44476919879E+03  0.12509000000E+03 0.  0.
         25    1    4    4    0    0 -0.30755315407E+02  0.22789025281E+02 -0.20393075136E+03  0.24228183702E+03  0.12509000000E+03 0.  0.
         25    1    4    4    0    0 -0.32898667859E+02 -0.47379323494E+02 -0.30211248900E+03  0.33203401445E+03  0.12509000000E+03 0.  0.
<mgrwt>
<rscale>  2 0.42251696E+03</rscale>
<asrwt>0</asrwt>
<pdfrwt beam="1">  1       21 0.67438077E-02 0.42251696E+03</pdfrwt>
<pdfrwt beam="2">  1       21 0.14312164E+00 0.42251696E+03</pdfrwt>
<totfact> 0.49948357E+04</totfact>
</mgrwt>
</event>
<event>
 7    0  0.4737014E-002  0.4638272E+03  0.7546771E-02  0.1023677E+00
         21   -1    0    0  502  501  0.00000000000E+00  0.00000000000E+00  0.10262996981E+04  0.10262996981E+04  0.00000000000E+00 0.  1.
         21   -1    0    0  501  502 -0.00000000000E+00 -0.00000000000E+00 -0.52405663878E+02  0.52405663878E+02  0.00000000000E+00 0.  1.
      99926    2    1    2    0    0 -0.44408920985E-15 -0.14210854715E-13  0.97389403420E+03  0.10787053620E+04  0.46382719634E+03 0.  0.
      99925    2    3    3    0    0  0.21435122269E+01  0.11995302649E+03  0.56525078932E+03  0.63482459768E+03  0.26286972398E+03 0.  0.
         25    1    4    4    0    0  0.15175388419E+02  0.20902436840E+02  0.27903169701E+03  0.30687684878E+03  0.12509000000E+03 0.  0.
         25    1    4    4    0    0 -0.13031876192E+02  0.99050589649E+02  0.28621909231E+03  0.32794774890E+03  0.12509000000E+03 0.  0.
         25    1    3    3    0    0 -0.21435122269E+01 -0.11995302649E+03  0.40864324488E+03  0.44388076428E+03  0.12509000000E+03 0.  0.
<mgrwt>
<rscale>  2 0.46382720E+03</rscale>
<asrwt>0</asrwt>
<pdfrwt beam="1">  1       21 0.15092641E+00 0.46382720E+03</pdfrwt>
<pdfrwt beam="2">  1       21 0.77067160E-02 0.46382720E+03</pdfrwt>
<totfact> 0.33849139E+04</totfact>
</mgrwt>
</event>
<event>
 7    0  0.4737014E-002  0.4578730E+03  0.7546771E-02  0.1025400E+00
         21   -1    0    0  502  501  0.00000000000E+00  0.00000000000E+00  0.20129817823E+03  0.20129817823E+03  0.00000000000E+00 0. -1.
         21   -1    0    0  501  502 -0.00000000000E+00 -0.00000000000E+00 -0.26036955252E+03  0.26036955252E+03  0.00000000000E+00 0. -1.
      99926    2    1    2    0    0  0.71054273576E-14  0.14210854715E-13 -0.59071374289E+02  0.46166773075E+03  0.45787298059E+03 0.  0.
      99925    2    3    3    0    0  0.60320271512E+02  0.69395831994E+02 -0.10773732358E+03  0.29897108243E+03  0.26329082890E+03 0.  0.
         25    1    4    4    0    0  0.30222862684E+01  0.18739766897E+01 -0.57166951872E+02  0.13757984769E+03  0.12509000000E+03 0.  0.
         25    1    4    4    0    0  0.57297985244E+02  0.67521855304E+02 -0.50570371709E+02  0.16139123474E+03  0.12509000000E+03 0.  0.
         25    1    3    3    0    0 -0.60320271512E+02 -0.69395831994E+02  0.48665949292E+02  0.16269664832E+03  0.12509000000E+03 0.  0.
<mgrwt>
<rscale>  2 0.45787298E+03</rscale>
<asrwt>0</asrwt>
<pdfrwt beam="1">  1       21 0.29602673E-01 0.45787298E+03</pdfrwt>
<pdfrwt beam="2">  1       21 0.38289640E-01 0.45787298E+03</pdfrwt>
<totfact> 0.66521942E+04</totfact>
</mgrwt>
</event>
<event>
 7    0  0.4737014E-002  0.4360130E+03  0.7546771E-02  0.1031977E+00
         21   -1    0    0  502  501  0.00000000000E+00  0.00000000000E+00  0.38023569160E+03  0.38023569160E+03  0.00000000000E+00 0.  1.
         21   -1    0    0  501  502 -0.00000000000E+00 -0.00000000000E+00 -0.12499306324E+03  0.12499306324E+03  0.00000000000E+00 0.  1.
      99926    2    1    2    0    0  0.00000000000E+00  0.00000000000E+00  0.25524262837E+03  0.50522875484E+03  0.43601295323E+03 0.  0.
      99925    2    3    3    0    0  0.55658540444E+02  0.27545558702E+02  0.24597311834E+03  0.36526424918E+03  0.26278996529E+03 0.  0.
         25    1    4    4    0    0  0.16376944390E+02  0.51934487794E+02  0.13203547417E+03  0.18985855227E+03  0.12509000000E+03 0.  0.
         25    1    3    3    0    0 -0.55658540444E+02 -0.27545558702E+02  0.92695100234E+01  0.13996450566E+03  0.12509000000E+03 0.  0.
         25    1    4    4    0    0  0.39281596055E+02 -0.24388929092E+02  0.11393764417E+03  0.17540569691E+03  0.12509000000E+03 0.  0.
<mgrwt>
<rscale>  2 0.43601295E+03</rscale>
<asrwt>0</asrwt>
<pdfrwt beam="1">  1       21 0.55917013E-01 0.43601295E+03</pdfrwt>
<pdfrwt beam="2">  1       21 0.18381333E-01 0.43601295E+03</pdfrwt>
<totfact> 0.75677597E+04</totfact>
</mgrwt>
</event>
<event>
 7    0  0.4737014E-002  0.4769981E+03  0.7546771E-02  0.1019963E+00
         21   -1    0    0  502  501  0.00000000000E+00  0.00000000000E+00  0.16708525921E+03  0.16708525921E+03  0.00000000000E+00 0.  1.
         21   -1    0    0  501  502 -0.00000000000E+00 -0.00000000000E+00 -0.34043579641E+03  0.34043579641E+03  0.00000000000E+00 0.  1.
      99926    2    1    2    0    0  0.00000000000E+00  0.00000000000E+00 -0.17335053721E+03  0.50752105562E+03  0.47699812699E+03 0.  0.
      99925    2    3    3    0    0 -0.22477166392E+02 -0.73900299590E+02  0.86169443564E+01  0.27358484694E+03  0.26231267498E+03 0.  0.
         25    1    3    3    0    0  0.22477166392E+02  0.73900299590E+02 -0.18196748156E+03  0.23393620869E+03  0.12509000000E+03 0.  0.
         25    1    4    4    0    0 -0.45896178636E+02 -0.42653667692E+02 -0.14003367165E+02  0.14060368762E+03  0.12509000000E+03 0.  0.
         25    1    4    4    0    0  0.23419012244E+02 -0.31246631898E+02  0.22620311521E+02  0.13298115932E+03  0.12509000000E+03 0.  0.
<mgrwt>
<rscale>  2 0.47699813E+03</rscale>
<asrwt>0</asrwt>
<pdfrwt beam="1">  1       21 0.24571362E-01 0.47699813E+03</pdfrwt>
<pdfrwt beam="2">  1       21 0.50064088E-01 0.47699813E+03</pdfrwt>
<totfact> 0.54574305E+04</totfact>
</mgrwt>
</event>
<event>
 7    0  0.4737014E-002  0.4717237E+03  0.7546771E-02  0.1021435E+00
         21   -1    0    0  502  501  0.00000000000E+00  0.00000000000E+00  0.17714714695E+04  0.17714714695E+04  0.00000000000E+00 0.  1.
         21   -1    0    0  501  502 -0.00000000000E+00 -0.00000000000E+00 -0.31403728210E+02  0.31403728210E+02  0.00000000000E+00 0.  1.
      99926    2    1    2    0    0 -0.14210854715E-13  0.00000000000E+00  0.17400677413E+04  0.18028751977E+04  0.47172368420E+03 0.  0.
      99925    2    3    3    0    0 -0.97655407198E+02  0.67882955905E+02  0.89416434751E+03  0.93954169670E+03  0.26280039045E+03 0.  0.
         25    1    3    3    0    0  0.97655407198E+02 -0.67882955905E+02  0.84590339377E+03  0.86333350100E+03  0.12509000000E+03 0.  0.
         25    1    4    4    0    0 -0.20805817974E+02  0.53593700021E+02  0.50267676533E+03  0.52118768716E+03  0.12509000000E+03 0.  0.
         25    1    4    4    0    0 -0.76849589224E+02  0.14289255884E+02  0.39148758218E+03  0.41835400954E+03  0.12509000000E+03 0.  0.
<mgrwt>
<rscale>  2 0.47172368E+03</rscale>
<asrwt>0</asrwt>
<pdfrwt beam="1">  1       21 0.26051044E+00 0.47172368E+03</pdfrwt>
<pdfrwt beam="2">  1       21 0.46181965E-02 0.47172368E+03</pdfrwt>
<totfact> 0.15140996E+04</totfact>
</mgrwt>
</event>
<event>
 7    0  0.4737014E-002  0.4494463E+03  0.7546771E-02  0.1027887E+00
         21   -1    0    0  502  501  0.00000000000E+00  0.00000000000E+00  0.57682619632E+03  0.57682619632E+03  0.00000000000E+00 0.  1.
         21   -1    0    0  501  502 -0.00000000000E+00 -0.00000000000E+00 -0.87548901708E+02  0.87548901708E+02  0.00000000000E+00 0.  1.
      99926    2    1    2    0    0  0.00000000000E+00  0.00000000000E+00  0.48927729462E+03  0.66437509803E+03  0.44944632589E+03 0.  0.
      99925    2    3    3    0    0  0.97842719663E+02 -0.34122227592E+02  0.26524700864E+03  0.38765393631E+03  0.26302485537E+03 0.  0.
         25    1    3    3    0    0 -0.97842719663E+02  0.34122227592E+02  0.22403028598E+03  0.27672116172E+03  0.12509000000E+03 0.  0.
         25    1    4    4    0    0  0.60544468276E+02 -0.50969055829E+02  0.11183525196E+03  0.18552118200E+03  0.12509000000E+03 0.  0.
         25    1    4    4    0    0  0.37298251387E+02  0.16846828237E+02  0.15341175668E+03  0.20213275431E+03  0.12509000000E+03 0.  0.
<mgrwt>
<rscale>  2 0.44944633E+03</rscale>
<asrwt>0</asrwt>
<pdfrwt beam="1">  1       21 0.84827380E-01 0.44944633E+03</pdfrwt>
<pdfrwt beam="2">  1       21 0.12874839E-01 0.44944633E+03</pdfrwt>
<totfact> 0.57349883E+04</totfact>
</mgrwt>
</event>
<event>
 7    0  0.4737014E-002  0.4942498E+03  0.7546771E-02  0.1015291E+00
         21   -1    0    0  502  501  0.00000000000E+00  0.00000000000E+00  0.15215334371E+03  0.15215334371E+03  0.00000000000E+00 0.  1.
         21   -1    0    0  501  502 -0.00000000000E+00 -0.00000000000E+00 -0.40137607071E+03  0.40137607071E+03  0.00000000000E+00 0.  1.
      99926    2    1    2    0    0  0.00000000000E+00  0.53290705182E-14 -0.24922272700E+03  0.55352941442E+03  0.49424977994E+03 0.  0.
      99925    2    3    3    0    0 -0.14513981705E+03  0.12696427918E+02 -0.17396048530E+03  0.34728034435E+03  0.26289659821E+03 0.  0.
         25    1    4    4    0    0 -0.69537624224E+02  0.38643640550E+02 -0.59121108592E+02  0.15959832618E+03  0.12509000000E+03 0.  0.
         25    1    4    4    0    0 -0.75602192829E+02 -0.25947212633E+02 -0.11483937671E+03  0.18768201818E+03  0.12509000000E+03 0.  0.
         25    1    3    3    0    0  0.14513981705E+03 -0.12696427918E+02 -0.75262241704E+02  0.20624907006E+03  0.12509000000E+03 0.  0.
<mgrwt>
<rscale>  2 0.49424978E+03</rscale>
<asrwt>0</asrwt>
<pdfrwt beam="1">  1       21 0.22375492E-01 0.49424978E+03</pdfrwt>
<pdfrwt beam="2">  1       21 0.59025893E-01 0.49424978E+03</pdfrwt>
<totfact> 0.45686465E+04</totfact>
</mgrwt>
</event>
<event>
 7    0  0.4737014E-002  0.4561248E+03  0.7546771E-02  0.1025911E+00
         21   -1    0    0  502  501  0.00000000000E+00  0.00000000000E+00  0.11419865728E+04  0.11419865728E+04  0.00000000000E+00 0.  1.
         21   -1    0    0  501  502 -0.00000000000E+00 -0.00000000000E+00 -0.45545590558E+02  0.45545590558E+02  0.00000000000E+00 0.  1.
      99926    2    1    2    0    0 -0.14210854715E-13 -0.71054273576E-14  0.10964409822E+04  0.11875321633E+04  0.45612477620E+03 0.  0.
      99925    2    3    3    0    0  0.90115168327E+02  0.56302964943E+02  0.58028735703E+03  0.64591159474E+03  0.26301635704E+03 0.  0.
         25    1    4    4    0    0  0.53132704959E+02  0.27739873496E+02  0.38595245324E+03  0.41012118840E+03  0.12509000000E+03 0.  0.
         25    1    3    3    0    0 -0.90115168327E+02 -0.56302964943E+02  0.51615362518E+03  0.54162056858E+03  0.12509000000E+03 0.  0.
         25    1    4    4    0    0  0.36982463368E+02  0.28563091448E+02  0.19433490379E+03  0.23579040634E+03  0.12509000000E+03 0.  0.
<mgrwt>
<rscale>  2 0.45612478E+03</rscale>
<asrwt>0</asrwt>
<pdfrwt beam="1">  1       21 0.16793918E+00 0.45612478E+03</pdfrwt>
<pdfrwt beam="2">  1       21 0.66978817E-02 0.45612478E+03</pdfrwt>
<totfact> 0.32269916E+04</totfact>
</mgrwt>
</event>
<event>
 7    0  0.4737014E-002  0.4667647E+03  0.7546771E-02  0.1022837E+00
         21   -1    0    0  502  501  0.00000000000E+00  0.00000000000E+00  0.43356932420E+03  0.43356932420E+03  0.00000000000E+00 0. -1.
         21   -1    0    0  501  502 -0.00000000000E+00 -0.00000000000E+00 -0.12562539416E+03  0.12562539416E+03  0.00000000000E+00 0. -1.
      99926    2    1    2    0    0 -0.14210854715E-13 -0.17763568394E-14  0.30794393003E+03  0.55919471836E+03  0.46676468268E+03 0.  0.
      99925    2    3    3    0    0 -0.11164467436E+03 -0.63661127881E+01  0.25576199298E+03  0.38348039521E+03  0.26294097389E+03 0.  0.
         25    1    4    4    0    0 -0.79439957035E+02  0.22045776412E+02  0.10509851236E+03  0.18300253668E+03  0.12509000000E+03 0.  0.
         25    1    3    3    0    0  0.11164467436E+03  0.63661127881E+01  0.52181937050E+02  0.17571432315E+03  0.12509000000E+03 0.  0.
         25    1    4    4    0    0 -0.32204717326E+02 -0.28411889200E+02  0.15066348063E+03  0.20047785853E+03  0.12509000000E+03 0.  0.
<mgrwt>
<rscale>  2 0.46676468E+03</rscale>
<asrwt>0</asrwt>
<pdfrwt beam="1">  1       21 0.63760194E-01 0.46676468E+03</pdfrwt>
<pdfrwt beam="2">  1       21 0.18474323E-01 0.46676468E+03</pdfrwt>
<totfact> 0.55878380E+04</totfact>
</mgrwt>
</event>
<event>
 7    0  0.4737014E-002  0.4516793E+03  0.7546771E-02  0.1027222E+00
         21   -1    0    0  502  501  0.00000000000E+00  0.00000000000E+00  0.15537603520E+03  0.15537603520E+03  0.00000000000E+00 0. -1.
         21   -1    0    0  501  502 -0.00000000000E+00 -0.00000000000E+00 -0.32825878497E+03  0.32825878497E+03  0.00000000000E+00 0. -1.
      99926    2    1    2    0    0  0.00000000000E+00  0.71054273576E-14 -0.17288274977E+03  0.48363482017E+03  0.45167930450E+03 0.  0.
      99925    2    3    3    0    0 -0.52132567583E+02 -0.49088367587E+02 -0.19879077762E+03  0.33718958658E+03  0.26277665725E+03 0.  0.
         25    1    4    4    0    0 -0.64381763480E+02 -0.30694852599E+02 -0.88912701594E+02  0.16923404518E+03  0.12509000000E+03 0.  0.
         25    1    4    4    0    0  0.12249195897E+02 -0.18393514988E+02 -0.10987807603E+03  0.16795554140E+03  0.12509000000E+03 0.  0.
         25    1    3    3    0    0  0.52132567583E+02  0.49088367587E+02  0.25908027854E+02  0.14644523359E+03  0.12509000000E+03 0.  0.
<mgrwt>
<rscale>  2 0.45167930E+03</rscale>
<asrwt>0</asrwt>
<pdfrwt beam="1">  1       21 0.22849417E-01 0.45167930E+03</pdfrwt>
<pdfrwt beam="2">  1       21 0.48273350E-01 0.45167930E+03</pdfrwt>
<totfact> 0.68217069E+04</totfact>
</mgrwt>
</event>
<event>
 7    0  0.4737014E-002  0.4538806E+03  0.7546771E-02  0.1026571E+00
         21   -1    0    0  502  501  0.00000000000E+00  0.00000000000E+00  0.88382648596E+03  0.88382648596E+03  0.00000000000E+00 0.  1.
         21   -1    0    0  501  502 -0.00000000000E+00 -0.00000000000E+00 -0.58271509140E+02  0.58271509140E+02  0.00000000000E+00 0.  1.
      99926    2    1    2    0    0  0.00000000000E+00  0.00000000000E+00  0.82555497682E+03  0.94209799510E+03  0.45388061494E+03 0.  0.
      99925    2    3    3    0    0 -0.86209289510E+02 -0.40674160658E+02  0.64246503842E+03  0.70073548230E+03  0.26302559118E+03 0.  0.
         25    1    4    4    0    0 -0.23766640649E+02 -0.51709190364E+02  0.36081527002E+03  0.38610084273E+03  0.12509000000E+03 0.  0.
         25    1    3    3    0    0  0.86209289510E+02  0.40674160658E+02  0.18308993840E+03  0.24136251280E+03  0.12509000000E+03 0.  0.
         25    1    4    4    0    0 -0.62442648861E+02  0.11035029705E+02  0.28164976840E+03  0.31463463957E+03  0.12509000000E+03 0.  0.
<mgrwt>
<rscale>  2 0.45388061E+03</rscale>
<asrwt>0</asrwt>
<pdfrwt beam="1">  1       21 0.12997448E+00 0.45388061E+03</pdfrwt>
<pdfrwt beam="2">  1       21 0.85693401E-02 0.45388061E+03</pdfrwt>
<totfact> 0.41827405E+04</totfact>
</mgrwt>
</event>
<event>
 7    0  0.4737014E-002  0.4547471E+03  0.7546771E-02  0.1026316E+00
         21   -1    0    0  502  501  0.00000000000E+00  0.00000000000E+00  0.10968889726E+03  0.10968889726E+03  0.00000000000E+00 0. -1.
         21   -1    0    0  501  502 -0.00000000000E+00 -0.00000000000E+00 -0.47132144435E+03  0.47132144435E+03  0.00000000000E+00 0. -1.
      99926    2    1    2    0    0  0.71054273576E-14  0.00000000000E+00 -0.36163254709E+03  0.58101034162E+03  0.45474709230E+03 0.  0.
      99925    2    3    3    0    0 -0.37486369210E+02  0.36759187375E+02 -0.35526548482E+03  0.44519976281E+03  0.26312126173E+03 0.  0.
         25    1    4    4    0    0 -0.52616999573E+02  0.23663353654E+02 -0.14719845156E+03  0.20160207140E+03  0.12509000000E+03 0.  0.
         25    1    3    3    0    0  0.37486369210E+02 -0.36759187375E+02 -0.63670622757E+01  0.13581057880E+03  0.12509000000E+03 0.  0.
         25    1    4    4    0    0  0.15130630363E+02  0.13095833721E+02 -0.20806703326E+03  0.24359769142E+03  0.12509000000E+03 0.  0.
<mgrwt>
<rscale>  2 0.45474709E+03</rscale>
<asrwt>0</asrwt>
<pdfrwt beam="1">  1       21 0.16130720E-01 0.45474709E+03</pdfrwt>
<pdfrwt beam="2">  1       21 0.69311976E-01 0.45474709E+03</pdfrwt>
<totfact> 0.59982460E+04</totfact>
</mgrwt>
</event>
<event>
 7    0  0.4737014E-002  0.4609621E+03  0.7546771E-02  0.1024503E+00
         21   -1    0    0  502  501  0.00000000000E+00  0.00000000000E+00  0.37344662669E+03  0.37344662669E+03  0.00000000000E+00 0.  1.
         21   -1    0    0  501  502 -0.00000000000E+00 -0.00000000000E+00 -0.14224662101E+03  0.14224662101E+03  0.00000000000E+00 0.  1.
      99926    2    1    2    0    0  0.00000000000E+00  0.71054273576E-14  0.23120000568E+03  0.51569324770E+03  0.46096212762E+03 0.  0.
      99925    2    3    3    0    0 -0.77992688056E+02  0.39555324170E+02  0.23447457709E+03  0.36303115687E+03  0.26299393623E+03 0.  0.
         25    1    4    4    0    0 -0.24512260872E+02 -0.72602223399E+01  0.74270016507E+02  0.14770614481E+03  0.12509000000E+03 0.  0.
         25    1    3    3    0    0  0.77992688056E+02 -0.39555324170E+02 -0.32745714124E+01  0.15266209084E+03  0.12509000000E+03 0.  0.
         25    1    4    4    0    0 -0.53480427184E+02  0.46815546510E+02  0.16020456058E+03  0.21532501206E+03  0.12509000000E+03 0.  0.
<mgrwt>
<rscale>  2 0.46096213E+03</rscale>
<asrwt>0</asrwt>
<pdfrwt beam="1">  1       21 0.54918621E-01 0.46096213E+03</pdfrwt>
<pdfrwt beam="2">  1       21 0.20918621E-01 0.46096213E+03</pdfrwt>
<totfact> 0.61232779E+04</totfact>
</mgrwt>
</event>
<event>
 7    0  0.4737014E-002  0.4598823E+03  0.7546771E-02  0.1024815E+00
         21   -1    0    0  502  501  0.00000000000E+00  0.00000000000E+00  0.79593670269E+03  0.79593670269E+03  0.00000000000E+00 0.  1.
         21   -1    0    0  501  502 -0.00000000000E+00 -0.00000000000E+00 -0.66428554810E+02  0.66428554810E+02  0.00000000000E+00 0.  1.
      99926    2    1    2    0    0 -0.14210854715E-13 -0.17763568394E-14  0.72950814788E+03  0.86236525750E+03  0.45988226702E+03 0.  0.
      99925    2    3    3    0    0 -0.98556289196E+02  0.14760342756E+02  0.57439877082E+03  0.63957020188E+03  0.26303019855E+03 0.  0.
         25    1    4    4    0    0 -0.87453255970E+02 -0.63940400638E+01  0.28412016458E+03  0.32258445677E+03  0.12509000000E+03 0.  0.
         25    1    3    3    0    0  0.98556289196E+02 -0.14760342756E+02  0.15510937706E+03  0.22279505562E+03  0.12509000000E+03 0.  0.
         25    1    4    4    0    0 -0.11103033226E+02  0.21154382820E+02  0.29027860624E+03  0.31698574510E+03  0.12509000000E+03 0.  0.
<mgrwt>
<rscale>  2 0.45988227E+03</rscale>
<asrwt>0</asrwt>
<pdfrwt beam="1">  1       21 0.11704951E+00 0.45988227E+03</pdfrwt>
<pdfrwt beam="2">  1       21 0.97689056E-02 0.45988227E+03</pdfrwt>
<totfact> 0.43212471E+04</totfact>
</mgrwt>
</event>
<event>
 7    0  0.4737014E-002  0.4514021E+03  0.7546771E-02  0.1027305E+00
         21   -1    0    0  502  501  0.00000000000E+00  0.00000000000E+00  0.36116708654E+02  0.36116708654E+02  0.00000000000E+00 0.  1.
         21   -1    0    0  501  502 -0.00000000000E+00 -0.00000000000E+00 -0.14104542664E+04  0.14104542664E+04  0.00000000000E+00 0.  1.
      99926    2    1    2    0    0  0.00000000000E+00  0.00000000000E+00 -0.13743375578E+04  0.14465709751E+04  0.45140210815E+03 0.  0.
      99925    2    3    3    0    0  0.10326323165E+03  0.35021124546E+02 -0.90855146073E+03  0.95210765948E+03  0.26297046273E+03 0.  0.
         25    1    4    4    0    0  0.89207517464E+02  0.11177477069E+01 -0.45873203641E+03  0.48377868892E+03  0.12509000000E+03 0.  0.
         25    1    3    3    0    0 -0.10326323165E+03 -0.35021124546E+02 -0.46578609703E+03  0.49446331558E+03  0.12509000000E+03 0.  0.
         25    1    4    4    0    0  0.14055714188E+02  0.33903376839E+02 -0.44981942432E+03  0.46832897055E+03  0.12509000000E+03 0.  0.
<mgrwt>
<rscale>  2 0.45140211E+03</rscale>
<asrwt>0</asrwt>
<pdfrwt beam="1">  1       21 0.53112812E-02 0.45140211E+03</pdfrwt>
<pdfrwt beam="2">  1       21 0.20741972E+00 0.45140211E+03</pdfrwt>
<totfact> 0.25831562E+04</totfact>
</mgrwt>
</event>
<event>
 7    0  0.4737014E-002  0.4550335E+03  0.7546771E-02  0.1026232E+00
         21   -1    0    0  502  501  0.00000000000E+00  0.00000000000E+00  0.90709302342E+02  0.90709302342E+02  0.00000000000E+00 0. -1.
         21   -1    0    0  501  502 -0.00000000000E+00 -0.00000000000E+00 -0.57065666371E+03  0.57065666371E+03  0.00000000000E+00 0. -1.
      99926    2    1    2    0    0  0.00000000000E+00  0.00000000000E+00 -0.47994736137E+03  0.66136596605E+03  0.45503348379E+03 0.  0.
      99925    2    3    3    0    0  0.72440090977E+02  0.84581235457E+02 -0.27292223432E+03  0.39507953474E+03  0.26305843574E+03 0.  0.
         25    1    4    4    0    0  0.36780349316E+02  0.80862577477E+02 -0.12363269252E+03  0.19703832443E+03  0.12509000000E+03 0.  0.
         25    1    4    4    0    0  0.35659741661E+02  0.37186579806E+01 -0.14928954180E+03  0.19804121032E+03  0.12509000000E+03 0.  0.
         25    1    3    3    0    0 -0.72440090977E+02 -0.84581235457E+02 -0.20702512705E+03  0.26628643131E+03  0.12509000000E+03 0.  0.
<mgrwt>
<rscale>  2 0.45503348E+03</rscale>
<asrwt>0</asrwt>
<pdfrwt beam="1">  1       21 0.13339604E-01 0.45503348E+03</pdfrwt>
<pdfrwt beam="2">  1       21 0.83920095E-01 0.45503348E+03</pdfrwt>
<totfact> 0.55036299E+04</totfact>
</mgrwt>
</event>
<event>
 7    0  0.4737014E-002  0.4509093E+03  0.7546771E-02  0.1027451E+00
         21   -1    0    0  502  501  0.00000000000E+00  0.00000000000E+00  0.20075609878E+03  0.20075609878E+03  0.00000000000E+00 0. -1.
         21   -1    0    0  501  502 -0.00000000000E+00 -0.00000000000E+00 -0.25319184854E+03  0.25319184854E+03  0.00000000000E+00 0. -1.
      99926    2    1    2    0    0  0.00000000000E+00  0.00000000000E+00 -0.52435749761E+02  0.45394794733E+03  0.45090933792E+03 0.  0.
      99925    2    3    3    0    0 -0.10354637351E+03 -0.35089498006E+02 -0.38831955111E+02  0.28725752869E+03  0.26278478402E+03 0.  0.
         25    1    3    3    0    0  0.10354637351E+03  0.35089498006E+02 -0.13603794651E+02  0.16669041864E+03  0.12509000000E+03 0.  0.
         25    1    4    4    0    0 -0.82656620188E+02  0.27902862566E+01 -0.38811123067E+02  0.15489904432E+03  0.12509000000E+03 0.  0.
         25    1    4    4    0    0 -0.20889753318E+02 -0.37879784263E+02 -0.20832043190E-01  0.13235848437E+03  0.12509000000E+03 0.  0.
<mgrwt>
<rscale>  2 0.45090934E+03</rscale>
<asrwt>0</asrwt>
<pdfrwt beam="1">  1       21 0.29522956E-01 0.45090934E+03</pdfrwt>
<pdfrwt beam="2">  1       21 0.37234095E-01 0.45090934E+03</pdfrwt>
<totfact> 0.70908994E+04</totfact>
</mgrwt>
</event>
<event>
 7    0  0.4737014E-002  0.4576939E+03  0.7546771E-02  0.1025452E+00
         21   -1    0    0  502  501  0.00000000000E+00  0.00000000000E+00  0.77061894969E+03  0.77061894969E+03  0.00000000000E+00 0.  1.
         21   -1    0    0  501  502 -0.00000000000E+00 -0.00000000000E+00 -0.67959561002E+02  0.67959561002E+02  0.00000000000E+00 0.  1.
      99926    2    1    2    0    0  0.00000000000E+00  0.00000000000E+00  0.70265938869E+03  0.83857851069E+03  0.45769389561E+03 0.  0.
      99925    2    3    3    0    0  0.97901847352E+02  0.61475424962E+02  0.44742699975E+03  0.53173151290E+03  0.26302753110E+03 0.  0.
         25    1    3    3    0    0 -0.97901847352E+02 -0.61475424962E+02  0.25523238894E+03  0.30684699779E+03  0.12509000000E+03 0.  0.
         25    1    4    4    0    0  0.12381136460E+02  0.50184245310E+02  0.20834592193E+03  0.24844975810E+03  0.12509000000E+03 0.  0.
         25    1    4    4    0    0  0.85520710892E+02  0.11291179652E+02  0.23908107782E+03  0.28328175479E+03  0.12509000000E+03 0.  0.
<mgrwt>
<rscale>  2 0.45769390E+03</rscale>
<asrwt>0</asrwt>
<pdfrwt beam="1">  1       21 0.11332631E+00 0.45769390E+03</pdfrwt>
<pdfrwt beam="2">  1       21 0.99940536E-02 0.45769390E+03</pdfrwt>
<totfact> 0.44996146E+04</totfact>
</mgrwt>
</event>
<event>
 7    0  0.4737014E-002  0.4464487E+03  0.7546771E-02  0.1028786E+00
         21   -1    0    0  502  501  0.00000000000E+00  0.00000000000E+00  0.16313563762E+03  0.16313563762E+03  0.00000000000E+00 0. -1.
         21   -1    0    0  501  502 -0.00000000000E+00 -0.00000000000E+00 -0.30544594040E+03  0.30544594040E+03  0.00000000000E+00 0. -1.
      99926    2    1    2    0    0 -0.35527136788E-14  0.00000000000E+00 -0.14231030277E+03  0.46858157802E+03  0.44644873500E+03 0.  0.
      99925    2    3    3    0    0 -0.17823873204E+02 -0.86026261369E+02 -0.15038180460E+03  0.31551013933E+03  0.26308506754E+03 0.  0.
         25    1    4    4    0    0 -0.38585422678E+02 -0.71756609347E+02 -0.71793364459E+02  0.16564915064E+03  0.12509000000E+03 0.  0.
         25    1    4    4    0    0  0.20761549474E+02 -0.14269652022E+02 -0.78588440143E+02  0.14986098868E+03  0.12509000000E+03 0.  0.
         25    1    3    3    0    0  0.17823873204E+02  0.86026261369E+02  0.80715018281E+01  0.15307143869E+03  0.12509000000E+03 0.  0.
<mgrwt>
<rscale>  2 0.44644873E+03</rscale>
<asrwt>0</asrwt>
<pdfrwt beam="1">  1       21 0.23990535E-01 0.44644873E+03</pdfrwt>
<pdfrwt beam="2">  1       21 0.44918520E-01 0.44644873E+03</pdfrwt>
<totfact> 0.72325720E+04</totfact>
</mgrwt>
</event>
<event>
 7    0  0.4737014E-002  0.4503333E+03  0.7546771E-02  0.1027623E+00
         21   -1    0    0  502  501  0.00000000000E+00  0.00000000000E+00  0.11134914545E+03  0.11134914545E+03  0.00000000000E+00 0. -1.
         21   -1    0    0  501  502 -0.00000000000E+00 -0.00000000000E+00 -0.45532474869E+03  0.45532474869E+03  0.00000000000E+00 0. -1.
      99926    2    1    2    0    0  0.00000000000E+00 -0.35527136788E-14 -0.34397560324E+03  0.56667389414E+03  0.45033330619E+03 0.  0.
      99925    2    3    3    0    0 -0.90401820984E+02 -0.28542780785E+02 -0.15282839195E+03  0.31934426781E+03  0.26388835599E+03 0.  0.
         25    1    3    3    0    0  0.90401820984E+02  0.28542780785E+02 -0.19114721129E+03  0.24732962632E+03  0.12509000000E+03 0.  0.
         25    1    4    4    0    0 -0.58835595649E+02 -0.29978307563E+02 -0.12176004892E+03  0.18663693057E+03  0.12509000000E+03 0.  0.
         25    1    4    4    0    0 -0.31566225335E+02  0.14355267777E+01 -0.31068343031E+02  0.13270733724E+03  0.12509000000E+03 0.  0.
<mgrwt>
<rscale>  2 0.45033331E+03</rscale>
<asrwt>0</asrwt>
<pdfrwt beam="1">  1       21 0.16374874E-01 0.45033331E+03</pdfrwt>
<pdfrwt beam="2">  1       21 0.66959523E-01 0.45033331E+03</pdfrwt>
<totfact> 0.63073728E+04</totfact>
</mgrwt>
</event>
<event>
 7    0  0.4737014E-002  0.4427326E+03  0.7546771E-02  0.1029912E+00
         21   -1    0    0  502  501  0.00000000000E+00  0.00000000000E+00  0.13282379344E+03  0.13282379344E+03  0.00000000000E+00 0.  1.
         21   -1    0    0  501  502 -0.00000000000E+00 -0.00000000000E+00 -0.36893267803E+03  0.36893267803E+03  0.00000000000E+00 0.  1.
      99926    2    1    2    0    0  0.88817841970E-15  0.00000000000E+00 -0.23610888459E+03  0.50175647147E+03  0.44273259569E+03 0.  0.
      99925    2    3    3    0    0 -0.46544148568E+01 -0.35996562450E+02 -0.43327035354E+02  0.26909842717E+03  0.26309563931E+03 0.  0.
         25    1    3    3    0    0  0.46544148568E+01  0.35996562450E+02 -0.19278184923E+03  0.23265804430E+03  0.12509000000E+03 0.  0.
         25    1    4    4    0    0  0.34859049237E+02 -0.32430747442E+02 -0.30225915817E+02  0.13721523523E+03  0.12509000000E+03 0.  0.
         25    1    4    4    0    0 -0.39513464093E+02 -0.35658150078E+01 -0.13101119537E+02  0.13188319193E+03  0.12509000000E+03 0.  0.
<mgrwt>
<rscale>  2 0.44273260E+03</rscale>
<asrwt>0</asrwt>
<pdfrwt beam="1">  1       21 0.19532911E-01 0.44273260E+03</pdfrwt>
<pdfrwt beam="2">  1       21 0.54254805E-01 0.44273260E+03</pdfrwt>
<totfact> 0.71896406E+04</totfact>
</mgrwt>
</event>
<event>
 7    0  0.4737014E-002  0.4539226E+03  0.7546771E-02  0.1026559E+00
         21   -1    0    0  502  501  0.00000000000E+00  0.00000000000E+00  0.37441491568E+03  0.37441491568E+03  0.00000000000E+00 0. -1.
         21   -1    0    0  501  502 -0.00000000000E+00 -0.00000000000E+00 -0.13757849088E+03  0.13757849088E+03  0.00000000000E+00 0. -1.
      99926    2    1    2    0    0  0.00000000000E+00  0.00000000000E+00  0.23683642479E+03  0.51199340656E+03  0.45392263245E+03 0.  0.
      99925    2    3    3    0    0  0.38503813237E+02 -0.95748538602E+02  0.99698674001E+02  0.29961497764E+03  0.26301897831E+03 0.  0.
         25    1    4    4    0    0  0.49899105835E+02 -0.57938938961E+02  0.25195960913E+02  0.14875881808E+03  0.12509000000E+03 0.  0.
         25    1    3    3    0    0 -0.38503813237E+02  0.95748538602E+02  0.13713775079E+03  0.21237842892E+03  0.12509000000E+03 0.  0.
         25    1    4    4    0    0 -0.11395292597E+02 -0.37809599641E+02  0.74502713088E+02  0.15085615956E+03  0.12509000000E+03 0.  0.
<mgrwt>
<rscale>  2 0.45392263E+03</rscale>
<asrwt>0</asrwt>
<pdfrwt beam="1">  1       21 0.55061017E-01 0.45392263E+03</pdfrwt>
<pdfrwt beam="2">  1       21 0.20232131E-01 0.45392263E+03</pdfrwt>
<totfact> 0.64989902E+04</totfact>
</mgrwt>
</event>
<event>
 7    0  0.4737014E-002  0.4812963E+03  0.7546771E-02  0.1018780E+00
         21   -1    0    0  502  501  0.00000000000E+00  0.00000000000E+00  0.58048581304E+03  0.58048581304E+03  0.00000000000E+00 0. -1.
         21   -1    0    0  501  502 -0.00000000000E+00 -0.00000000000E+00 -0.99763924709E+02  0.99763924709E+02  0.00000000000E+00 0. -1.
      99926    2    1    2    0    0 -0.13322676296E-14  0.00000000000E+00  0.48072188833E+03  0.68024973775E+03  0.48129634508E+03 0.  0.
      99925    2    3    3    0    0  0.29833290499E+01 -0.20109221989E+02  0.10509905220E+03  0.28382407740E+03  0.26286311091E+03 0.  0.
         25    1    4    4    0    0 -0.38603154608E+02 -0.56074422270E+01  0.52179409243E+02  0.14103845505E+03  0.12509000000E+03 0.  0.
         25    1    3    3    0    0 -0.29833290499E+01  0.20109221989E+02  0.37562283613E+03  0.39642566035E+03  0.12509000000E+03 0.  0.
         25    1    4    4    0    0  0.41586483658E+02 -0.14501779762E+02  0.52919642960E+02  0.14278562235E+03  0.12509000000E+03 0.  0.
<mgrwt>
<rscale>  2 0.48129635E+03</rscale>
<asrwt>0</asrwt>
<pdfrwt beam="1">  1       21 0.85365560E-01 0.48129635E+03</pdfrwt>
<pdfrwt beam="2">  1       21 0.14671166E-01 0.48129635E+03</pdfrwt>
<totfact> 0.44110132E+04</totfact>
</mgrwt>
</event>
<event>
 7    0  0.4737014E-002  0.4536353E+03  0.7546771E-02  0.1026643E+00
         21   -1    0    0  502  501  0.00000000000E+00  0.00000000000E+00  0.57130531696E+03  0.57130531696E+03  0.00000000000E+00 0.  1.
         21   -1    0    0  501  502 -0.00000000000E+00 -0.00000000000E+00 -0.90050373298E+02  0.90050373298E+02  0.00000000000E+00 0.  1.
      99926    2    1    2    0    0  0.00000000000E+00  0.00000000000E+00  0.48125494367E+03  0.66135569026E+03  0.45363534721E+03 0.  0.
      99925    2    3    3    0    0 -0.46633299002E+02 -0.87657878870E+02  0.37847642672E+03  0.47143597051E+03  0.26296178507E+03 0.  0.
         25    1    3    3    0    0  0.46633299002E+02  0.87657878870E+02  0.10277851695E+03  0.18991971975E+03  0.12509000000E+03 0.  0.
         25    1    4    4    0    0 -0.32729592838E+02 -0.50471812336E+01  0.15397185233E+03  0.20112568134E+03  0.12509000000E+03 0.  0.
         25    1    4    4    0    0 -0.13903706164E+02 -0.82610697636E+02  0.22450457439E+03  0.27031028917E+03  0.12509000000E+03 0.  0.
<mgrwt>
<rscale>  2 0.45363535E+03</rscale>
<asrwt>0</asrwt>
<pdfrwt beam="1">  1       21 0.84015486E-01 0.45363535E+03</pdfrwt>
<pdfrwt beam="2">  1       21 0.13242702E-01 0.45363535E+03</pdfrwt>
<totfact> 0.55647797E+04</totfact>
</mgrwt>
</event>
<event>
 7    0  0.4737014E-002  0.4450381E+03  0.7546771E-02  0.1029212E+00
         21   -1    0    0  502  501  0.00000000000E+00  0.00000000000E+00  0.52146696332E+03  0.52146696332E+03  0.00000000000E+00 0. -1.
         21   -1    0    0  501  502 -0.00000000000E+00 -0.00000000000E+00 -0.94952778887E+02  0.94952778887E+02  0.00000000000E+00 0. -1.
      99926    2    1    2    0    0 -0.71054273576E-14  0.00000000000E+00  0.42651418443E+03  0.61641974220E+03  0.44503814337E+03 0.  0.
      99925    2    3    3    0    0  0.58074678729E+02  0.37652458843E+02  0.16401974315E+03  0.31751973255E+03  0.26291810217E+03 0.  0.
         25    1    4    4    0    0  0.50646022162E+02  0.19997901836E+02  0.12515479498E+03  0.18513823604E+03  0.12509000000E+03 0.  0.
         25    1    3    3    0    0 -0.58074678729E+02 -0.37652458843E+02  0.26249444128E+03  0.29890000965E+03  0.12509000000E+03 0.  0.
         25    1    4    4    0    0  0.74286565673E+01  0.17654557008E+02  0.38864948169E+02  0.13238149651E+03  0.12509000000E+03 0.  0.
<mgrwt>
<rscale>  2 0.44503814E+03</rscale>
<asrwt>0</asrwt>
<pdfrwt beam="1">  1       21 0.76686317E-01 0.44503814E+03</pdfrwt>
<pdfrwt beam="2">  1       21 0.13963644E-01 0.44503814E+03</pdfrwt>
<totfact> 0.62448393E+04</totfact>
</mgrwt>
</event>
<event>
 7    0  0.4737014E-002  0.4578565E+03  0.7546771E-02  0.1025405E+00
         21   -1    0    0  502  501  0.00000000000E+00  0.00000000000E+00  0.14841988694E+04  0.14841988694E+04  0.00000000000E+00 0. -1.
         21   -1    0    0  501  502 -0.00000000000E+00 -0.00000000000E+00 -0.35310731617E+02  0.35310731617E+02  0.00000000000E+00 0. -1.
      99926    2    1    2    0    0  0.00000000000E+00  0.14210854715E-13  0.14488881378E+04  0.15195096010E+04  0.45785651876E+03 0.  0.
      99925    2    3    3    0    0  0.35861865321E+02 -0.10284860900E+03  0.10417194507E+04  0.10798531925E+04  0.26275386487E+03 0.  0.
         25    1    3    3    0    0 -0.35861865321E+02  0.10284860900E+03  0.40716868705E+03  0.43965640854E+03  0.12509000000E+03 0.  0.
         25    1    4    4    0    0 -0.32207023844E+01 -0.17011532724E+02  0.41062555488E+03  0.42960519037E+03  0.12509000000E+03 0.  0.
         25    1    4    4    0    0  0.39082567706E+02 -0.85837076278E+02  0.63109389586E+03  0.65024800212E+03  0.12509000000E+03 0.  0.
<mgrwt>
<rscale>  2 0.45785652E+03</rscale>
<asrwt>0</asrwt>
<pdfrwt beam="1">  1       21 0.21826450E+00 0.45785652E+03</pdfrwt>
<pdfrwt beam="2">  1       21 0.51927556E-02 0.45785652E+03</pdfrwt>
<totfact> 0.22795055E+04</totfact>
</mgrwt>
</event>
<event>
 7    0  0.4737014E-002  0.4575826E+03  0.7546771E-02  0.1025485E+00
         21   -1    0    0  502  501  0.00000000000E+00  0.00000000000E+00  0.58111600141E+02  0.58111600141E+02  0.00000000000E+00 0.  1.
         21   -1    0    0  501  502 -0.00000000000E+00 -0.00000000000E+00 -0.90077460311E+03  0.90077460311E+03  0.00000000000E+00 0.  1.
      99926    2    1    2    0    0  0.00000000000E+00  0.00000000000E+00 -0.84266300297E+03  0.95888620325E+03  0.45758257639E+03 0.  0.
      99925    2    3    3    0    0  0.65430896675E+02 -0.93308699006E+02 -0.48857042455E+03  0.56643648961E+03  0.26298578186E+03 0.  0.
         25    1    3    3    0    0 -0.65430896675E+02  0.93308699006E+02 -0.35409257842E+03  0.39244971364E+03  0.12509000000E+03 0.  0.
         25    1    4    4    0    0  0.59110984298E+02 -0.82043342961E+02 -0.27165367707E+03  0.31570309937E+03  0.12509000000E+03 0.  0.
         25    1    4    4    0    0  0.63199123766E+01 -0.11265356045E+02 -0.21691674748E+03  0.25073339023E+03  0.12509000000E+03 0.  0.
<mgrwt>
<rscale>  2 0.45758258E+03</rscale>
<asrwt>0</asrwt>
<pdfrwt beam="1">  1       21 0.85458238E-02 0.45758258E+03</pdfrwt>
<pdfrwt beam="2">  1       21 0.13246685E+00 0.45758258E+03</pdfrwt>
<totfact> 0.39969837E+04</totfact>
</mgrwt>
</event>
<event>
 7    0  0.4737014E-002  0.4553497E+03  0.7546771E-02  0.1026139E+00
         21   -1    0    0  502  501  0.00000000000E+00  0.00000000000E+00  0.67268327881E+02  0.67268327881E+02  0.00000000000E+00 0.  1.
         21   -1    0    0  501  502 -0.00000000000E+00 -0.00000000000E+00 -0.77058296685E+03  0.77058296685E+03  0.00000000000E+00 0.  1.
      99926    2    1    2    0    0  0.00000000000E+00  0.00000000000E+00 -0.70331463897E+03  0.83785129473E+03  0.45534965762E+03 0.  0.
      99925    2    3    3    0    0 -0.80149727520E+02  0.52320652143E+02 -0.32868193702E+03  0.43145419960E+03  0.26260137312E+03 0.  0.
         25    1    4    4    0    0 -0.22899063856E+02  0.32832399464E+02 -0.21495010117E+03  0.25189955870E+03  0.12509000000E+03 0.  0.
         25    1    4    4    0    0 -0.57250663664E+02  0.19488252678E+02 -0.11373183585E+03  0.17955464090E+03  0.12509000000E+03 0.  0.
         25    1    3    3    0    0  0.80149727520E+02 -0.52320652143E+02 -0.37463270195E+03  0.40639709513E+03  0.12509000000E+03 0.  0.
<mgrwt>
<rscale>  2 0.45534966E+03</rscale>
<asrwt>0</asrwt>
<pdfrwt beam="1">  1       21 0.98924013E-02 0.45534966E+03</pdfrwt>
<pdfrwt beam="2">  1       21 0.11332102E+00 0.45534966E+03</pdfrwt>
<totfact> 0.45861878E+04</totfact>
</mgrwt>
</event>
<event>
 7    0  0.4737014E-002  0.4619723E+03  0.7546771E-02  0.1024211E+00
         21   -1    0    0  502  501  0.00000000000E+00  0.00000000000E+00  0.42470032384E+03  0.42470032384E+03  0.00000000000E+00 0. -1.
         21   -1    0    0  501  502 -0.00000000000E+00 -0.00000000000E+00 -0.12562883223E+03  0.12562883223E+03  0.00000000000E+00 0. -1.
      99926    2    1    2    0    0  0.00000000000E+00 -0.71054273576E-14  0.29907149161E+03  0.55032915608E+03  0.46197231836E+03 0.  0.
      99925    2    3    3    0    0  0.10292169548E+03 -0.56411285013E+02  0.15840679913E+03  0.32849775098E+03  0.26276025176E+03 0.  0.
         25    1    4    4    0    0  0.21976202158E+02 -0.38066701397E+02  0.43816634542E+02  0.13964036945E+03  0.12509000000E+03 0.  0.
         25    1    4    4    0    0  0.80945493325E+02 -0.18344583617E+02  0.11459016459E+03  0.18885738153E+03  0.12509000000E+03 0.  0.
         25    1    3    3    0    0 -0.10292169548E+03  0.56411285013E+02  0.14066469248E+03  0.22183140510E+03  0.12509000000E+03 0.  0.
<mgrwt>
<rscale>  2 0.46197232E+03</rscale>
<asrwt>0</asrwt>
<pdfrwt beam="1">  1       21 0.62455930E-01 0.46197232E+03</pdfrwt>
<pdfrwt beam="2">  1       21 0.18474828E-01 0.46197232E+03</pdfrwt>
<totfact> 0.58547532E+04</totfact>
</mgrwt>
</event>
<event>
 7    0  0.4737014E-002  0.4493521E+03  0.7546771E-02  0.1027915E+00
         21   -1    0    0  502  501  0.00000000000E+00  0.00000000000E+00  0.51655389524E+03  0.51655389524E+03  0.00000000000E+00 0.  1.
         21   -1    0    0  501  502 -0.00000000000E+00 -0.00000000000E+00 -0.97723235009E+02  0.97723235009E+02  0.00000000000E+00 0.  1.
      99926    2    1    2    0    0  0.00000000000E+00 -0.71054273576E-14  0.41883066023E+03  0.61427713025E+03  0.44935205663E+03 0.  0.
      99925    2    3    3    0    0  0.87795874332E+02  0.36251868122E+02  0.33487755766E+03  0.43618180459E+03  0.26284838698E+03 0.  0.
         25    1    3    3    0    0 -0.87795874332E+02 -0.36251868122E+02  0.83953102571E+02  0.17809532566E+03  0.12509000000E+03 0.  0.
         25    1    4    4    0    0  0.71677665008E+02  0.28241328569E+02  0.13392475521E+03  0.19879287829E+03  0.12509000000E+03 0.  0.
         25    1    4    4    0    0  0.16118209324E+02  0.80105395529E+01  0.20095280245E+03  0.23738892630E+03  0.12509000000E+03 0.  0.
<mgrwt>
<rscale>  2 0.44935206E+03</rscale>
<asrwt>0</asrwt>
<pdfrwt beam="1">  1       21 0.75963807E-01 0.44935206E+03</pdfrwt>
<pdfrwt beam="2">  1       21 0.14371064E-01 0.44935206E+03</pdfrwt>
<totfact> 0.60460020E+04</totfact>
</mgrwt>
</event>
<event>
 7    0  0.4737014E-002  0.4521825E+03  0.7546771E-02  0.1027073E+00
         21   -1    0    0  502  501  0.00000000000E+00  0.00000000000E+00  0.29198799292E+03  0.29198799292E+03  0.00000000000E+00 0. -1.
         21   -1    0    0  501  502 -0.00000000000E+00 -0.00000000000E+00 -0.17506631478E+03  0.17506631478E+03  0.00000000000E+00 0. -1.
      99926    2    1    2    0    0  0.00000000000E+00  0.00000000000E+00  0.11692167814E+03  0.46705430770E+03  0.45218253783E+03 0.  0.
      99925    2    3    3    0    0  0.31583759562E+02  0.98062535524E+02  0.32256538618E+02  0.28421697920E+03  0.26291635978E+03 0.  0.
         25    1    3    3    0    0 -0.31583759562E+02 -0.98062535524E+02  0.84665139525E+02  0.18283732850E+03  0.12509000000E+03 0.  0.
         25    1    4    4    0    0  0.39183241753E+01  0.35044894763E+02  0.52202518885E+02  0.14005752030E+03  0.12509000000E+03 0.  0.
         25    1    4    4    0    0  0.27665435387E+02  0.63017640761E+02 -0.19945980267E+02  0.14415945890E+03  0.12509000000E+03 0.  0.
<mgrwt>
<rscale>  2 0.45218254E+03</rscale>
<asrwt>0</asrwt>
<pdfrwt beam="1">  1       21 0.42939411E-01 0.45218254E+03</pdfrwt>
<pdfrwt beam="2">  1       21 0.25745046E-01 0.45218254E+03</pdfrwt>
<totfact> 0.69188959E+04</totfact>
</mgrwt>
</event>
<event>
 7    0  0.4737014E-002  0.4439539E+03  0.7546771E-02  0.1029541E+00
         21   -1    0    0  502  501  0.00000000000E+00  0.00000000000E+00  0.49231826706E+02  0.49231826706E+02  0.00000000000E+00 0. -1.
         21   -1    0    0  501  502 -0.00000000000E+00 -0.00000000000E+00 -0.10008517478E+04  0.10008517478E+04  0.00000000000E+00 0. -1.
      99926    2    1    2    0    0 -0.14210854715E-13  0.00000000000E+00 -0.95161992107E+03  0.10500835745E+04  0.44395387060E+03 0.  0.
      99925    2    3    3    0    0 -0.95465737943E+02 -0.11652528489E+02 -0.52140271851E+03  0.59184363949E+03  0.26299925893E+03 0.  0.
         25    1    3    3    0    0  0.95465737943E+02  0.11652528489E+02 -0.43021720256E+03  0.45823993499E+03  0.12509000000E+03 0.  0.
         25    1    4    4    0    0 -0.82448918623E+02 -0.11700960697E+02 -0.33279614513E+03  0.36515136447E+03  0.12509000000E+03 0.  0.
         25    1    4    4    0    0 -0.13016819320E+02  0.48432207382E-01 -0.18860657338E+03  0.22669227502E+03  0.12509000000E+03 0.  0.
<mgrwt>
<rscale>  2 0.44395387E+03</rscale>
<asrwt>0</asrwt>
<pdfrwt beam="1">  1       21 0.72399744E-02 0.44395387E+03</pdfrwt>
<pdfrwt beam="2">  1       21 0.14718408E+00 0.44395387E+03</pdfrwt>
<totfact> 0.40669165E+04</totfact>
</mgrwt>
</event>
<event>
 7    0  0.4737014E-002  0.4569252E+03  0.7546771E-02  0.1025677E+00
         21   -1    0    0  502  501  0.00000000000E+00  0.00000000000E+00  0.91866509486E+02  0.91866509486E+02  0.00000000000E+00 0.  1.
         21   -1    0    0  501  502 -0.00000000000E+00 -0.00000000000E+00 -0.56816318439E+03  0.56816318439E+03  0.00000000000E+00 0.  1.
      99926    2    1    2    0    0  0.17763568394E-14  0.14210854715E-13 -0.47629667490E+03  0.66002969387E+03  0.45692523926E+03 0.  0.
      99925    2    3    3    0    0  0.10364811067E+02  0.10303300995E+03 -0.37211342804E+03  0.46709217167E+03  0.26264703131E+03 0.  0.
         25    1    4    4    0    0 -0.21186281937E+02  0.46826580298E+02 -0.13321665943E+03  0.18983090796E+03  0.12509000000E+03 0.  0.
         25    1    3    3    0    0 -0.10364811067E+02 -0.10303300995E+03 -0.10418324687E+03  0.19293752221E+03  0.12509000000E+03 0.  0.
         25    1    4    4    0    0  0.31551093005E+02  0.56206429656E+02 -0.23889676860E+03  0.27726126371E+03  0.12509000000E+03 0.  0.
<mgrwt>
<rscale>  2 0.45692524E+03</rscale>
<asrwt>0</asrwt>
<pdfrwt beam="1">  1       21 0.13509781E-01 0.45692524E+03</pdfrwt>
<pdfrwt beam="2">  1       21 0.83553410E-01 0.45692524E+03</pdfrwt>
<totfact> 0.54297878E+04</totfact>
</mgrwt>
</event>
<event>
 7    0  0.4737014E-002  0.4551772E+03  0.7546771E-02  0.1026189E+00
         21   -1    0    0  502  501  0.00000000000E+00  0.00000000000E+00  0.26054451488E+03  0.26054451488E+03  0.00000000000E+00 0. -1.
         21   -1    0    0  501  502 -0.00000000000E+00 -0.00000000000E+00 -0.19880126601E+03  0.19880126601E+03  0.00000000000E+00 0. -1.
      99926    2    1    2    0    0  0.88817841970E-15  0.14210854715E-13  0.61743248869E+02  0.45934578089E+03  0.45517723761E+03 0.  0.
      99925    2    3    3    0    0 -0.74468034495E+01 -0.10710722309E+03  0.75681644279E+02  0.29390939104E+03  0.26292129381E+03 0.  0.
         25    1    3    3    0    0  0.74468034495E+01  0.10710722309E+03 -0.13938395409E+02  0.16543638985E+03  0.12509000000E+03 0.  0.
         25    1    4    4    0    0 -0.27721502208E+02 -0.19150011253E+02  0.39957544393E+02  0.13557034362E+03  0.12509000000E+03 0.  0.
         25    1    4    4    0    0  0.20274698758E+02 -0.87957211839E+02  0.35724099886E+02  0.15833904742E+03  0.12509000000E+03 0.  0.
<mgrwt>
<rscale>  2 0.45517724E+03</rscale>
<asrwt>0</asrwt>
<pdfrwt beam="1">  1       21 0.38315370E-01 0.45517724E+03</pdfrwt>
<pdfrwt beam="2">  1       21 0.29235480E-01 0.45517724E+03</pdfrwt>
<totfact> 0.68131922E+04</totfact>
</mgrwt>
</event>
<event>
 7    0  0.4737014E-002  0.4289569E+03  0.7546771E-02  0.1034190E+00
         21   -1    0    0  502  501  0.00000000000E+00  0.00000000000E+00  0.25685314033E+03  0.25685314033E+03  0.00000000000E+00 0.  1.
         21   -1    0    0  501  502 -0.00000000000E+00 -0.00000000000E+00 -0.17909459643E+03  0.17909459643E+03  0.00000000000E+00 0.  1.
      99926    2    1    2    0    0  0.71054273576E-14 -0.35527136788E-14  0.77758543899E+02  0.43594773675E+03  0.42895691862E+03 0.  0.
      99925    2    3    3    0    0 -0.46405276129E+02  0.20424642154E+02  0.12150955935E+03  0.29405948808E+03  0.26293686287E+03 0.  0.
         25    1    4    4    0    0 -0.43192914258E+02  0.37935093564E+02  0.38745901184E+02  0.14301556602E+03  0.12509000000E+03 0.  0.
         25    1    3    3    0    0  0.46405276129E+02 -0.20424642154E+02 -0.43751015449E+02  0.14188824868E+03  0.12509000000E+03 0.  0.
         25    1    4    4    0    0 -0.32123618703E+01 -0.17510451409E+02  0.82763658163E+02  0.15104392206E+03  0.12509000000E+03 0.  0.
<mgrwt>
<rscale>  2 0.42895692E+03</rscale>
<asrwt>0</asrwt>
<pdfrwt beam="1">  1       21 0.37772521E-01 0.42895692E+03</pdfrwt>
<pdfrwt beam="2">  1       21 0.26337440E-01 0.42895692E+03</pdfrwt>
<totfact> 0.86601329E+04</totfact>
</mgrwt>
</event>
<event>
 7    0  0.4737014E-002  0.4458995E+03  0.7546771E-02  0.1028952E+00
         21   -1    0    0  502  501  0.00000000000E+00  0.00000000000E+00  0.11137272441E+03  0.11137272441E+03  0.00000000000E+00 0.  1.
         21   -1    0    0  501  502 -0.00000000000E+00 -0.00000000000E+00 -0.44630842323E+03  0.44630842323E+03  0.00000000000E+00 0.  1.
      99926    2    1    2    0    0  0.00000000000E+00  0.00000000000E+00 -0.33493569882E+03  0.55768114765E+03  0.44589947308E+03 0.  0.
      99925    2    3    3    0    0  0.62671674242E+02 -0.65754616521E+02 -0.27701097250E+03  0.39259271569E+03  0.26294971607E+03 0.  0.
         25    1    3    3    0    0 -0.62671674242E+02  0.65754616521E+02 -0.57924726325E+02  0.16508843196E+03  0.12509000000E+03 0.  0.
         25    1    4    4    0    0 -0.88022782341E+01 -0.26220615062E+02 -0.11414861974E+03  0.17158792570E+03  0.12509000000E+03 0.  0.
         25    1    4    4    0    0  0.71473952476E+02 -0.39534001459E+02 -0.16286235276E+03  0.22100478999E+03  0.12509000000E+03 0.  0.
<mgrwt>
<rscale>  2 0.44589947E+03</rscale>
<asrwt>0</asrwt>
<pdfrwt beam="1">  1       21 0.16378342E-01 0.44589947E+03</pdfrwt>
<pdfrwt beam="2">  1       21 0.65633592E-01 0.44589947E+03</pdfrwt>
<totfact> 0.65985108E+04</totfact>
</mgrwt>
</event>
<event>
 7    0  0.4737014E-002  0.4545082E+03  0.7546771E-02  0.1026386E+00
         21   -1    0    0  502  501  0.00000000000E+00  0.00000000000E+00  0.26064660759E+03  0.26064660759E+03  0.00000000000E+00 0.  1.
         21   -1    0    0  501  502 -0.00000000000E+00 -0.00000000000E+00 -0.19813966826E+03  0.19813966826E+03  0.00000000000E+00 0.  1.
      99926    2    1    2    0    0  0.00000000000E+00  0.71054273576E-14  0.62506939325E+02  0.45878627585E+03  0.45450822813E+03 0.  0.
      99925    2    3    3    0    0  0.71554728091E+02  0.41954913102E+02 -0.37583794537E+02  0.27838129545E+03  0.26306522043E+03 0.  0.
         25    1    3    3    0    0 -0.71554728091E+02 -0.41954913102E+02  0.10009073386E+03  0.18040498039E+03  0.12509000000E+03 0.  0.
         25    1    4    4    0    0  0.55380032491E+02  0.14872256895E+02 -0.55026843139E+02  0.14820119294E+03  0.12509000000E+03 0.  0.
         25    1    4    4    0    0  0.16174695599E+02  0.27082656207E+02  0.17443048602E+02  0.13018010251E+03  0.12509000000E+03 0.  0.
<mgrwt>
<rscale>  2 0.45450823E+03</rscale>
<asrwt>0</asrwt>
<pdfrwt beam="1">  1       21 0.38330384E-01 0.45450823E+03</pdfrwt>
<pdfrwt beam="2">  1       21 0.29138186E-01 0.45450823E+03</pdfrwt>
<totfact> 0.68537509E+04</totfact>
</mgrwt>
</event>
<event>
 7    0  0.4737014E-002  0.4512701E+03  0.7546771E-02  0.1027344E+00
         21   -1    0    0  502  501  0.00000000000E+00  0.00000000000E+00  0.21968746520E+02  0.21968746520E+02  0.00000000000E+00 0. -1.
         21   -1    0    0  501  502 -0.00000000000E+00 -0.00000000000E+00 -0.23174363615E+04  0.23174363615E+04  0.00000000000E+00 0. -1.
      99926    2    1    2    0    0  0.00000000000E+00 -0.14210854715E-13 -0.22954676150E+04  0.23394051080E+04  0.45127008322E+03 0.  0.
      99925    2    3    3    0    0  0.75605000490E+02 -0.64186980680E+02 -0.16916124246E+04  0.17148054893E+04  0.26300035489E+03 0.  0.
         25    1    4    4    0    0  0.53464292463E+02 -0.71374578296E+02 -0.95871752847E+03  0.97094776815E+03  0.12509000000E+03 0.  0.
         25    1    3    3    0    0 -0.75605000490E+02  0.64186980680E+02 -0.60385519039E+03  0.62459961868E+03  0.12509000000E+03 0.  0.
         25    1    4    4    0    0  0.22140708027E+02  0.71875976163E+01 -0.73289489610E+03  0.74385772117E+03  0.12509000000E+03 0.  0.
<mgrwt>
<rscale>  2 0.45127008E+03</rscale>
<asrwt>0</asrwt>
<pdfrwt beam="1">  1       21 0.32306969E-02 0.45127008E+03</pdfrwt>
<pdfrwt beam="2">  1       21 0.34079958E+00 0.45127008E+03</pdfrwt>
<totfact> 0.91810539E+03</totfact>
</mgrwt>
</event>
<event>
 7    0  0.4737014E-002  0.4603811E+03  0.7546771E-02  0.1024671E+00
         21   -1    0    0  502  501  0.00000000000E+00  0.00000000000E+00  0.11954431941E+03  0.11954431941E+03  0.00000000000E+00 0.  1.
         21   -1    0    0  501  502 -0.00000000000E+00 -0.00000000000E+00 -0.44324715208E+03  0.44324715208E+03  0.00000000000E+00 0.  1.
      99926    2    1    2    0    0  0.00000000000E+00  0.00000000000E+00 -0.32370283267E+03  0.56279147148E+03  0.46038105575E+03 0.  0.
      99925    2    3    3    0    0  0.74735656253E+02 -0.54049936839E+02 -0.11204692954E+03  0.30020330835E+03  0.26279402188E+03 0.  0.
         25    1    4    4    0    0  0.50214103101E+02 -0.38570063040E+02 -0.97940936819E+02  0.17102351043E+03  0.12509000000E+03 0.  0.
         25    1    3    3    0    0 -0.74735656253E+02  0.54049936839E+02 -0.21165590313E+03  0.26258816313E+03  0.12509000000E+03 0.  0.
         25    1    4    4    0    0  0.24521553152E+02 -0.15479873798E+02 -0.14105992724E+02  0.12917979793E+03  0.12509000000E+03 0.  0.
<mgrwt>
<rscale>  2 0.46038106E+03</rscale>
<asrwt>0</asrwt>
<pdfrwt beam="1">  1       21 0.17580047E-01 0.46038106E+03</pdfrwt>
<pdfrwt beam="2">  1       21 0.65183404E-01 0.46038106E+03</pdfrwt>
<totfact> 0.58499242E+04</totfact>
</mgrwt>
</event>
<event>
 7    0  0.4737014E-002  0.4501139E+03  0.7546771E-02  0.1027688E+00
         21   -1    0    0  502  501  0.00000000000E+00  0.00000000000E+00  0.10297441039E+04  0.10297441039E+04  0.00000000000E+00 0.  1.
         21   -1    0    0  501  502 -0.00000000000E+00 -0.00000000000E+00 -0.49187591707E+02  0.49187591707E+02  0.00000000000E+00 0.  1.
      99926    2    1    2    0    0  0.00000000000E+00  0.14210854715E-13  0.98055651215E+03  0.10789316956E+04  0.45011390800E+03 0.  0.
      99925    2    3    3    0    0 -0.39166671313E+02  0.69254635318E+02  0.79582223397E+03  0.84206782265E+03  0.26346718432E+03 0.  0.
         25    1    4    4    0    0  0.67790066498E+01  0.19214781398E+02  0.28759864674E+03  0.31428594061E+03  0.12509000000E+03 0.  0.
         25    1    3    3    0    0  0.39166671313E+02 -0.69254635318E+02  0.18473427818E+03  0.23686387291E+03  0.12509000000E+03 0.  0.
         25    1    4    4    0    0 -0.45945677963E+02  0.50039853919E+02  0.50822358722E+03  0.52778188205E+03  0.12509000000E+03 0.  0.
<mgrwt>
<rscale>  2 0.45011391E+03</rscale>
<asrwt>0</asrwt>
<pdfrwt beam="1">  1       21 0.15143294E+00 0.45011391E+03</pdfrwt>
<pdfrwt beam="2">  1       21 0.72334701E-02 0.45011391E+03</pdfrwt>
<totfact> 0.37648380E+04</totfact>
</mgrwt>
</event>
<event>
 7    0  0.4737014E-002  0.4571142E+03  0.7546771E-02  0.1025622E+00
         21   -1    0    0  502  501  0.00000000000E+00  0.00000000000E+00  0.45587139289E+03  0.45587139289E+03  0.00000000000E+00 0. -1.
         21   -1    0    0  501  502 -0.00000000000E+00 -0.00000000000E+00 -0.11459011222E+03  0.11459011222E+03  0.00000000000E+00 0. -1.
      99926    2    1    2    0    0  0.00000000000E+00  0.00000000000E+00  0.34128128066E+03  0.57046150511E+03  0.45711422674E+03 0.  0.
      99925    2    3    3    0    0 -0.74664731718E+02 -0.87158802023E+02  0.20354120081E+03  0.35184925333E+03  0.26305398250E+03 0.  0.
         25    1    4    4    0    0 -0.43168746086E+02 -0.27823787442E+02  0.14499972731E+03  0.19826783100E+03  0.12509000000E+03 0.  0.
         25    1    4    4    0    0 -0.31495985632E+02 -0.59335014581E+02  0.58541473492E+02  0.15358142233E+03  0.12509000000E+03 0.  0.
         25    1    3    3    0    0  0.74664731718E+02  0.87158802023E+02  0.13774007986E+03  0.21861225179E+03  0.12509000000E+03 0.  0.
<mgrwt>
<rscale>  2 0.45711423E+03</rscale>
<asrwt>0</asrwt>
<pdfrwt beam="1">  1       21 0.67039910E-01 0.45711423E+03</pdfrwt>
<pdfrwt beam="2">  1       21 0.16851487E-01 0.45711423E+03</pdfrwt>
<totfact> 0.59532727E+04</totfact>
</mgrwt>
</event>
<event>
 7    0  0.4737014E-002  0.4645093E+03  0.7546771E-02  0.1023481E+00
         21   -1    0    0  502  501  0.00000000000E+00  0.00000000000E+00  0.30962032827E+03  0.30962032827E+03  0.00000000000E+00 0.  1.
         21   -1    0    0  501  502 -0.00000000000E+00 -0.00000000000E+00 -0.17422051713E+03  0.17422051713E+03  0.00000000000E+00 0.  1.
      99926    2    1    2    0    0  0.00000000000E+00  0.00000000000E+00  0.13539981114E+03  0.48384084540E+03  0.46450926236E+03 0.  0.
      99925    2    3    3    0    0 -0.84765512937E+02  0.52411437822E+02  0.15780536290E+03  0.32234264774E+03  0.26281190801E+03 0.  0.
         25    1    4    4    0    0 -0.38554598677E+02  0.33076137960E+02  0.33704226253E+02  0.13915448591E+03  0.12509000000E+03 0.  0.
         25    1    4    4    0    0 -0.46210914260E+02  0.19335299862E+02  0.12410113665E+03  0.18318816183E+03  0.12509000000E+03 0.  0.
         25    1    3    3    0    0  0.84765512937E+02 -0.52411437822E+02 -0.22405551759E+02  0.16149819766E+03  0.12509000000E+03 0.  0.
<mgrwt>
<rscale>  2 0.46450926E+03</rscale>
<asrwt>0</asrwt>
<pdfrwt beam="1">  1       21 0.45532401E-01 0.46450926E+03</pdfrwt>
<pdfrwt beam="2">  1       21 0.25620664E-01 0.46450926E+03</pdfrwt>
<totfact> 0.61636572E+04</totfact>
</mgrwt>
</event>
<event>
 7    0  0.4737014E-002  0.4490924E+03  0.7546771E-02  0.1027993E+00
         21   -1    0    0  502  501  0.00000000000E+00  0.00000000000E+00  0.83682928363E+03  0.83682928363E+03  0.00000000000E+00 0. -1.
         21   -1    0    0  501  502 -0.00000000000E+00 -0.00000000000E+00 -0.60252416119E+02  0.60252416119E+02  0.00000000000E+00 0. -1.
      99926    2    1    2    0    0  0.00000000000E+00  0.00000000000E+00  0.77657686751E+03  0.89708169975E+03  0.44909235673E+03 0.  0.
      99925    2    3    3    0    0 -0.21861295790E+02  0.68962694010E+02  0.33222700336E+03  0.42982579632E+03  0.26294802528E+03 0.  0.
         25    1    4    4    0    0 -0.11827222111E+01 -0.43087707462E+01  0.17253889087E+03  0.21315989609E+03  0.12509000000E+03 0.  0.
         25    1    4    4    0    0 -0.20678573579E+02  0.73271464756E+02  0.15968811249E+03  0.21666590023E+03  0.12509000000E+03 0.  0.
         25    1    3    3    0    0  0.21861295790E+02 -0.68962694010E+02  0.44434986415E+03  0.46725590343E+03  0.12509000000E+03 0.  0.
<mgrwt>
<rscale>  2 0.44909236E+03</rscale>
<asrwt>0</asrwt>
<pdfrwt beam="1">  1       21 0.12306312E+00 0.44909236E+03</pdfrwt>
<pdfrwt beam="2">  1       21 0.88606499E-02 0.44909236E+03</pdfrwt>
<totfact> 0.45424865E+04</totfact>
</mgrwt>
</event>
<event>
 7    0  0.4737014E-002  0.4587508E+03  0.7546771E-02  0.1025144E+00
         21   -1    0    0  502  501  0.00000000000E+00  0.00000000000E+00  0.30211175078E+03  0.30211175078E+03  0.00000000000E+00 0.  1.
         21   -1    0    0  501  502 -0.00000000000E+00 -0.00000000000E+00 -0.17415103301E+03  0.17415103301E+03  0.00000000000E+00 0.  1.
      99926    2    1    2    0    0  0.71054273576E-14  0.14210854715E-13  0.12796071777E+03  0.47626278379E+03  0.45875079720E+03 0.  0.
      99925    2    3    3    0    0 -0.38504130114E+02  0.73847833436E+02  0.16473216059E+03  0.32155105946E+03  0.26329133781E+03 0.  0.
         25    1    4    4    0    0  0.17785288360E+01  0.72482409128E+02  0.81129656090E+02  0.16579020476E+03  0.12509000000E+03 0.  0.
         25    1    4    4    0    0 -0.40282658950E+02  0.13654243083E+01  0.83602504504E+02  0.15576085469E+03  0.12509000000E+03 0.  0.
         25    1    3    3    0    0  0.38504130114E+02 -0.73847833436E+02 -0.36771442828E+02  0.15471172433E+03  0.12509000000E+03 0.  0.
<mgrwt>
<rscale>  2 0.45875080E+03</rscale>
<asrwt>0</asrwt>
<pdfrwt beam="1">  1       21 0.44428199E-01 0.45875080E+03</pdfrwt>
<pdfrwt beam="2">  1       21 0.25610446E-01 0.45875080E+03</pdfrwt>
<totfact> 0.65016373E+04</totfact>
</mgrwt>
</event>
<event>
 7    0  0.4737014E-002  0.4587265E+03  0.7546771E-02  0.1025151E+00
         21   -1    0    0  502  501  0.00000000000E+00  0.00000000000E+00  0.53122374699E+02  0.53122374699E+02  0.00000000000E+00 0.  1.
         21   -1    0    0  501  502 -0.00000000000E+00 -0.00000000000E+00 -0.99030755732E+03  0.99030755732E+03  0.00000000000E+00 0.  1.
      99926    2    1    2    0    0 -0.71054273576E-14 -0.14210854715E-13 -0.93718518263E+03  0.10434299320E+04  0.45872645063E+03 0.  0.
      99925    2    3    3    0    0 -0.41627299991E+02 -0.10502176771E+03 -0.65325856793E+03  0.71324175169E+03  0.26306774030E+03 0.  0.
         25    1    4    4    0    0 -0.14367692231E+02 -0.94878371242E+02 -0.37368377492E+03  0.40558033439E+03  0.12509000000E+03 0.  0.
         25    1    4    4    0    0 -0.27259607761E+02 -0.10143396467E+02 -0.27957479302E+03  0.30766141730E+03  0.12509000000E+03 0.  0.
         25    1    3    3    0    0  0.41627299991E+02  0.10502176771E+03 -0.28392661469E+03  0.33018818033E+03  0.12509000000E+03 0.  0.
<mgrwt>
<rscale>  2 0.45872645E+03</rscale>
<asrwt>0</asrwt>
<pdfrwt beam="1">  1       21 0.78121149E-02 0.45872645E+03</pdfrwt>
<pdfrwt beam="2">  1       21 0.14563345E+00 0.45872645E+03</pdfrwt>
<totfact> 0.36447610E+04</totfact>
</mgrwt>
</event>
<event>
 7    0  0.4737014E-002  0.4616849E+03  0.7546771E-02  0.1024294E+00
         21   -1    0    0  502  501  0.00000000000E+00  0.00000000000E+00  0.48708684902E+03  0.48708684902E+03  0.00000000000E+00 0.  1.
         21   -1    0    0  501  502 -0.00000000000E+00 -0.00000000000E+00 -0.10940192032E+03  0.10940192032E+03  0.00000000000E+00 0.  1.
      99926    2    1    2    0    0  0.00000000000E+00  0.00000000000E+00  0.37768492870E+03  0.59648876934E+03  0.46168489967E+03 0.  0.
      99925    2    3    3    0    0 -0.64463696042E+02  0.67030085280E+02  0.13959031991E+03  0.31190986768E+03  0.26297092558E+03 0.  0.
         25    1    4    4    0    0 -0.90523972901E+01  0.63361221565E+02  0.87143334883E+02  0.16534224871E+03  0.12509000000E+03 0.  0.
         25    1    4    4    0    0 -0.55411298752E+02  0.36688637151E+01  0.52446985027E+02  0.14656761896E+03  0.12509000000E+03 0.  0.
         25    1    3    3    0    0  0.64463696042E+02 -0.67030085280E+02  0.23809460879E+03  0.28457890167E+03  0.12509000000E+03 0.  0.
<mgrwt>
<rscale>  2 0.46168490E+03</rscale>
<asrwt>0</asrwt>
<pdfrwt beam="1">  1       21 0.71630418E-01 0.46168490E+03</pdfrwt>
<pdfrwt beam="2">  1       21 0.16088518E-01 0.46168490E+03</pdfrwt>
<totfact> 0.55883764E+04</totfact>
</mgrwt>
</event>
<event>
 7    0  0.4737014E-002  0.4534477E+03  0.7546771E-02  0.1026699E+00
         21   -1    0    0  502  501  0.00000000000E+00  0.00000000000E+00  0.46751284979E+02  0.46751284979E+02  0.00000000000E+00 0. -1.
         21   -1    0    0  501  502 -0.00000000000E+00 -0.00000000000E+00 -0.10995144736E+04  0.10995144736E+04  0.00000000000E+00 0. -1.
      99926    2    1    2    0    0  0.00000000000E+00 -0.35527136788E-14 -0.10527631887E+04  0.11462657586E+04  0.45344774559E+03 0.  0.
      99925    2    3    3    0    0  0.48762020619E+02 -0.14285218633E+02 -0.41208446151E+03  0.49151501089E+03  0.26304296300E+03 0.  0.
         25    1    4    4    0    0  0.29663438364E+02 -0.39559290147E+02 -0.25432171101E+03  0.28770105631E+03  0.12509000000E+03 0.  0.
         25    1    3    3    0    0 -0.48762020619E+02  0.14285218633E+02 -0.64067872716E+03  0.65475074774E+03  0.12509000000E+03 0.  0.
         25    1    4    4    0    0  0.19098582255E+02  0.25274071515E+02 -0.15776275050E+03  0.20381395458E+03  0.12509000000E+03 0.  0.
<mgrwt>
<rscale>  2 0.45344775E+03</rscale>
<asrwt>0</asrwt>
<pdfrwt beam="1">  1       21 0.68751900E-02 0.45344775E+03</pdfrwt>
<pdfrwt beam="2">  1       21 0.16169328E+00 0.45344775E+03</pdfrwt>
<totfact> 0.34320636E+04</totfact>
</mgrwt>
</event>
<event>
 7    0  0.4737014E-002  0.4549347E+03  0.7546771E-02  0.1026261E+00
         21   -1    0    0  502  501  0.00000000000E+00  0.00000000000E+00  0.16999821304E+03  0.16999821304E+03  0.00000000000E+00 0. -1.
         21   -1    0    0  501  502 -0.00000000000E+00 -0.00000000000E+00 -0.30436429873E+03  0.30436429873E+03  0.00000000000E+00 0. -1.
      99926    2    1    2    0    0  0.00000000000E+00 -0.14210854715E-13 -0.13436608570E+03  0.47436251177E+03  0.45493466299E+03 0.  0.
      99925    2    3    3    0    0  0.21228328752E+02  0.11074060745E+03 -0.89061651307E+02  0.29996605551E+03  0.26331261391E+03 0.  0.
         25    1    4    4    0    0  0.27409368308E+02  0.72804350402E+02 -0.82736096775E+02  0.16895122586E+03  0.12509000000E+03 0.  0.
         25    1    3    3    0    0 -0.21228328752E+02 -0.11074060745E+03 -0.45304434390E+02  0.17439645626E+03  0.12509000000E+03 0.  0.
         25    1    4    4    0    0 -0.61810395553E+01  0.37936257052E+02 -0.63255545321E+01  0.13101482965E+03  0.12509000000E+03 0.  0.
<mgrwt>
<rscale>  2 0.45493466E+03</rscale>
<asrwt>0</asrwt>
<pdfrwt beam="1">  1       21 0.24999738E-01 0.45493466E+03</pdfrwt>
<pdfrwt beam="2">  1       21 0.44759455E-01 0.45493466E+03</pdfrwt>
<totfact> 0.67147635E+04</totfact>
</mgrwt>
</event>
<event>
 7    0  0.4737014E-002  0.4077844E+03  0.7546771E-02  0.1041117E+00
         21   -1    0    0  502  501  0.00000000000E+00  0.00000000000E+00  0.16493061262E+04  0.16493061262E+04  0.00000000000E+00 0. -1.
         21   -1    0    0  501  502 -0.00000000000E+00 -0.00000000000E+00 -0.25205774048E+02  0.25205774048E+02  0.00000000000E+00 0. -1.
      99926    2    1    2    0    0  0.00000000000E+00 -0.71054273576E-14  0.16241003521E+04  0.16745119002E+04  0.40778444086E+03 0.  0.
      99925    2    3    3    0    0 -0.33244874624E+02  0.45000780603E+02  0.11514538052E+04  0.11824015890E+04  0.26286376762E+03 0.  0.
         25    1    4    4    0    0 -0.14261901428E+02 -0.11386354329E+02  0.64938033438E+03  0.66157038754E+03  0.12509000000E+03 0.  0.
         25    1    3    3    0    0  0.33244874624E+02 -0.45000780603E+02  0.47264654697E+03  0.49211031122E+03  0.12509000000E+03 0.  0.
         25    1    4    4    0    0 -0.18982973196E+02  0.56387134933E+02  0.50207347079E+03  0.52083120147E+03  0.12509000000E+03 0.  0.
<mgrwt>
<rscale>  2 0.40778444E+03</rscale>
<asrwt>0</asrwt>
<pdfrwt beam="1">  1       21 0.24254495E+00 0.40778444E+03</pdfrwt>
<pdfrwt beam="2">  1       21 0.37067326E-02 0.40778444E+03</pdfrwt>
<totfact> 0.29086214E+04</totfact>
</mgrwt>
</event>
<event>
 7    0  0.4737014E-002  0.4636309E+03  0.7546771E-02  0.1023733E+00
         21   -1    0    0  502  501  0.00000000000E+00  0.00000000000E+00  0.40638532778E+02  0.40638532778E+02  0.00000000000E+00 0. -1.
         21   -1    0    0  501  502 -0.00000000000E+00 -0.00000000000E+00 -0.13223507392E+04  0.13223507392E+04  0.00000000000E+00 0. -1.
      99926    2    1    2    0    0  0.00000000000E+00  0.00000000000E+00 -0.12817122064E+04  0.13629892719E+04  0.46363086117E+03 0.  0.
      99925    2    3    3    0    0  0.26244118709E+02 -0.29318198982E+02 -0.46347004551E+03  0.53430594732E+03  0.26292594339E+03 0.  0.
         25    1    4    4    0    0  0.21062219296E+02  0.16916439980E+02 -0.17853653695E+03  0.21966471303E+03  0.12509000000E+03 0.  0.
         25    1    3    3    0    0 -0.26244118709E+02  0.29318198982E+02 -0.81824216087E+03  0.82868332461E+03  0.12509000000E+03 0.  0.
         25    1    4    4    0    0  0.51818994134E+01 -0.46234638962E+02 -0.28493350856E+03  0.31464123430E+03  0.12509000000E+03 0.  0.
<mgrwt>
<rscale>  2 0.46363086E+03</rscale>
<asrwt>0</asrwt>
<pdfrwt beam="1">  1       21 0.59762541E-02 0.46363086E+03</pdfrwt>
<pdfrwt beam="2">  1       21 0.19446337E+00 0.46363086E+03</pdfrwt>
<totfact> 0.25575919E+04</totfact>
</mgrwt>
</event>
<event>
 7    0  0.4737014E-002  0.4495151E+03  0.7546771E-02  0.1027867E+00
         21   -1    0    0  502  501  0.00000000000E+00  0.00000000000E+00  0.19136734312E+03  0.19136734312E+03  0.00000000000E+00 0.  1.
         21   -1    0    0  501  502 -0.00000000000E+00 -0.00000000000E+00 -0.26397377891E+03  0.26397377891E+03  0.00000000000E+00 0.  1.
      99926    2    1    2    0    0  0.00000000000E+00  0.00000000000E+00 -0.72606435784E+02  0.45534112203E+03  0.44951511976E+03 0.  0.
      99925    2    3    3    0    0 -0.93990176255E+02 -0.51822357290E+02 -0.35163784215E+02  0.28631695156E+03  0.26309921148E+03 0.  0.
         25    1    3    3    0    0  0.93990176255E+02  0.51822357290E+02 -0.37442651569E+02  0.16902417047E+03  0.12509000000E+03 0.  0.
         25    1    4    4    0    0 -0.82134671241E+02 -0.46886656386E+02 -0.34496730812E+02  0.16056772809E+03  0.12509000000E+03 0.  0.
         25    1    4    4    0    0 -0.11855505014E+02 -0.49357009037E+01 -0.66705340245E+00  0.12574922347E+03  0.12509000000E+03 0.  0.
<mgrwt>
<rscale>  2 0.44951512E+03</rscale>
<asrwt>0</asrwt>
<pdfrwt beam="1">  1       21 0.28142256E-01 0.44951512E+03</pdfrwt>
<pdfrwt beam="2">  1       21 0.38819673E-01 0.44951512E+03</pdfrwt>
<totfact> 0.71602344E+04</totfact>
</mgrwt>
</event>
<event>
 7    0  0.4737014E-002  0.4641227E+03  0.7546771E-02  0.1023592E+00
         21   -1    0    0  502  501  0.00000000000E+00  0.00000000000E+00  0.39805837373E+03  0.39805837373E+03  0.00000000000E+00 0. -1.
         21   -1    0    0  501  502 -0.00000000000E+00 -0.00000000000E+00 -0.13528784516E+03  0.13528784516E+03  0.00000000000E+00 0. -1.
      99926    2    1    2    0    0  0.00000000000E+00  0.00000000000E+00  0.26277052856E+03  0.53334621889E+03  0.46412265461E+03 0.  0.
      99925    2    3    3    0    0  0.11389560648E+03  0.35274070036E+02  0.13625424806E+03  0.31917258250E+03  0.26284871716E+03 0.  0.
         25    1    4    4    0    0  0.75709470022E+02  0.21748571350E+02  0.11201258461E+03  0.18547035186E+03  0.12509000000E+03 0.  0.
         25    1    4    4    0    0  0.38186136458E+02  0.13525498686E+02  0.24241663448E+02  0.13370223064E+03  0.12509000000E+03 0.  0.
         25    1    3    3    0    0 -0.11389560648E+03 -0.35274070036E+02  0.12651628050E+03  0.21417363639E+03  0.12509000000E+03 0.  0.
<mgrwt>
<rscale>  2 0.46412265E+03</rscale>
<asrwt>0</asrwt>
<pdfrwt beam="1">  1       21 0.58537996E-01 0.46412265E+03</pdfrwt>
<pdfrwt beam="2">  1       21 0.19895272E-01 0.46412265E+03</pdfrwt>
<totfact> 0.58625252E+04</totfact>
</mgrwt>
</event>
<event>
 7    0  0.4737014E-002  0.4357127E+03  0.7546771E-02  0.1032070E+00
         21   -1    0    0  502  501  0.00000000000E+00  0.00000000000E+00  0.95501398366E+02  0.95501398366E+02  0.00000000000E+00 0.  1.
         21   -1    0    0  501  502 -0.00000000000E+00 -0.00000000000E+00 -0.49697062484E+03  0.49697062484E+03  0.00000000000E+00 0.  1.
      99926    2    1    2    0    0  0.00000000000E+00 -0.35527136788E-14 -0.40146922648E+03  0.59247202321E+03  0.43571270176E+03 0.  0.
      99925    2    3    3    0    0  0.85932271597E+01  0.31452494348E+02 -0.13745966093E+03  0.29851341770E+03  0.26296767712E+03 0.  0.
         25    1    4    4    0    0  0.33716647176E+02  0.18129117610E+02 -0.38097839524E+02  0.13625135111E+03  0.12509000000E+03 0.  0.
         25    1    3    3    0    0 -0.85932271597E+01 -0.31452494348E+02 -0.26400956555E+03  0.29395860551E+03  0.12509000000E+03 0.  0.
         25    1    4    4    0    0 -0.25123420016E+02  0.13323376738E+02 -0.99361821405E+02  0.16226206659E+03  0.12509000000E+03 0.  0.
<mgrwt>
<rscale>  2 0.43571270E+03</rscale>
<asrwt>0</asrwt>
<pdfrwt beam="1">  1       21 0.14044323E-01 0.43571270E+03</pdfrwt>
<pdfrwt beam="2">  1       21 0.73083917E-01 0.43571270E+03</pdfrwt>
<totfact> 0.69087009E+04</totfact>
</mgrwt>
</event>
<event>
 7    0  0.4737014E-002  0.4555803E+03  0.7546771E-02  0.1026071E+00
         21   -1    0    0  502  501  0.00000000000E+00  0.00000000000E+00  0.29976736613E+03  0.29976736613E+03  0.00000000000E+00 0. -1.
         21   -1    0    0  501  502 -0.00000000000E+00 -0.00000000000E+00 -0.17309541519E+03  0.17309541519E+03  0.00000000000E+00 0. -1.
      99926    2    1    2    0    0  0.00000000000E+00 -0.14210854715E-13  0.12667195094E+03  0.47286278132E+03  0.45558031871E+03 0.  0.
      99925    2    3    3    0    0  0.10390081120E+02 -0.10996311447E+03  0.10727474071E+03  0.30486397122E+03  0.26312417339E+03 0.  0.
         25    1    3    3    0    0 -0.10390081120E+02  0.10996311447E+03  0.19397210230E+02  0.16799881010E+03  0.12509000000E+03 0.  0.
         25    1    4    4    0    0 -0.31553208119E+02 -0.64267307751E+02  0.38297515940E+02  0.14913114904E+03  0.12509000000E+03 0.  0.
         25    1    4    4    0    0  0.41943289239E+02 -0.45695806721E+02  0.68977224774E+02  0.15573282217E+03  0.12509000000E+03 0.  0.
<mgrwt>
<rscale>  2 0.45558032E+03</rscale>
<asrwt>0</asrwt>
<pdfrwt beam="1">  1       21 0.44083437E-01 0.45558032E+03</pdfrwt>
<pdfrwt beam="2">  1       21 0.25455208E-01 0.45558032E+03</pdfrwt>
<totfact> 0.66914822E+04</totfact>
</mgrwt>
</event>
<event>
 7    0  0.4737014E-002  0.4289800E+03  0.7546771E-02  0.1034183E+00
         21   -1    0    0  502  501  0.00000000000E+00  0.00000000000E+00  0.27869138956E+03  0.27869138956E+03  0.00000000000E+00 0.  1.
         21   -1    0    0  501  502 -0.00000000000E+00 -0.00000000000E+00 -0.16507847616E+03  0.16507847616E+03  0.00000000000E+00 0.  1.
      99926    2    1    2    0    0  0.53290705182E-14  0.71054273576E-14  0.11361291339E+03  0.44376986572E+03  0.42897995248E+03 0.  0.
      99925    2    3    3    0    0 -0.54188822526E+01 -0.57074293036E+02  0.60594995297E+01  0.26912140697E+03  0.26287406670E+03 0.  0.
         25    1    3    3    0    0  0.54188822526E+01  0.57074293036E+02  0.10755341386E+03  0.17464845875E+03  0.12509000000E+03 0.  0.
         25    1    4    4    0    0 -0.37678424745E+02 -0.34058254410E+02  0.22529187187E+02  0.13687476305E+03  0.12509000000E+03 0.  0.
         25    1    4    4    0    0  0.32259542492E+02 -0.23016038626E+02 -0.16469687657E+02  0.13224664392E+03  0.12509000000E+03 0.  0.
<mgrwt>
<rscale>  2 0.42897995E+03</rscale>
<asrwt>0</asrwt>
<pdfrwt beam="1">  1       21 0.40984028E-01 0.42897995E+03</pdfrwt>
<pdfrwt beam="2">  1       21 0.24276246E-01 0.42897995E+03</pdfrwt>
<totfact> 0.85830401E+04</totfact>
</mgrwt>
</event>
<event>
 7    0  0.4737014E-002  0.3955137E+03  0.7546771E-02  0.1045344E+00
         21   -1    0    0  502  501  0.00000000000E+00  0.00000000000E+00  0.61876138420E+02  0.61876138420E+02  0.00000000000E+00 0.  1.
         21   -1    0    0  501  502 -0.00000000000E+00 -0.00000000000E+00 -0.63203310631E+03  0.63203310631E+03  0.00000000000E+00 0.  1.
      99926    2    1    2    0    0  0.17763568394E-14 -0.17763568394E-14 -0.57015696789E+03  0.69390924473E+03  0.39551368104E+03 0.  0.
      99925    2    3    3    0    0  0.58597692988E+01  0.12599915098E+02 -0.32462311650E+03  0.41799716628E+03  0.26296077368E+03 0.  0.
         25    1    4    4    0    0 -0.26039793317E+02  0.30271906267E+02 -0.18679102463E+03  0.22832620114E+03  0.12509000000E+03 0.  0.
         25    1    4    4    0    0  0.31899562616E+02 -0.17671991169E+02 -0.13783209187E+03  0.18967096514E+03  0.12509000000E+03 0.  0.
         25    1    3    3    0    0 -0.58597692988E+01 -0.12599915098E+02 -0.24553385139E+03  0.27591207845E+03  0.12509000000E+03 0.  0.
<mgrwt>
<rscale>  2 0.39551368E+03</rscale>
<asrwt>0</asrwt>
<pdfrwt beam="1">  1       21 0.90994322E-02 0.39551368E+03</pdfrwt>
<pdfrwt beam="2">  1       21 0.92946044E-01 0.39551368E+03</pdfrwt>
<totfact> 0.87598429E+04</totfact>
</mgrwt>
</event>
<event>
 7    0  0.4737014E-002  0.4736504E+03  0.7546771E-02  0.1020895E+00
         21   -1    0    0  502  501  0.00000000000E+00  0.00000000000E+00  0.15991318796E+04  0.15991318796E+04  0.00000000000E+00 0.  1.
         21   -1    0    0  501  502 -0.00000000000E+00 -0.00000000000E+00 -0.35072896608E+02  0.35072896608E+02  0.00000000000E+00 0.  1.
      99926    2    1    2    0    0  0.00000000000E+00  0.00000000000E+00  0.15640589830E+04  0.16342047762E+04  0.47365044949E+03 0.  0.
      99925    2    3    3    0    0 -0.26546514372E+02  0.34443649198E+02  0.13902705097E+04  0.14157075819E+04  0.26359966759E+03 0.  0.
         25    1    4    4    0    0  0.32729782357E+01  0.51673034846E+02  0.79690207219E+03  0.80832000821E+03  0.12509000000E+03 0.  0.
         25    1    3    3    0    0  0.26546514372E+02 -0.34443649198E+02  0.17378847329E+03  0.21849719436E+03  0.12509000000E+03 0.  0.
         25    1    4    4    0    0 -0.29819492608E+02 -0.17229385648E+02  0.59336843752E+03  0.60738757364E+03  0.12509000000E+03 0.  0.
<mgrwt>
<rscale>  2 0.47365045E+03</rscale>
<asrwt>0</asrwt>
<pdfrwt beam="1">  1       21 0.23516640E+00 0.47365045E+03</pdfrwt>
<pdfrwt beam="2">  1       21 0.51577800E-02 0.47365045E+03</pdfrwt>
<totfact> 0.17927748E+04</totfact>
</mgrwt>
</event>
<event>
 7    0  0.4737014E-002  0.4641047E+03  0.7546771E-02  0.1023597E+00
         21   -1    0    0  502  501  0.00000000000E+00  0.00000000000E+00  0.11551280041E+03  0.11551280041E+03  0.00000000000E+00 0.  1.
         21   -1    0    0  501  502 -0.00000000000E+00 -0.00000000000E+00 -0.46616740909E+03  0.46616740909E+03  0.00000000000E+00 0.  1.
      99926    2    1    2    0    0  0.00000000000E+00  0.00000000000E+00 -0.35065460868E+03  0.58168020950E+03  0.46410474198E+03 0.  0.
      99925    2    3    3    0    0  0.75590278101E+02 -0.90525277863E+02 -0.18538748852E+03  0.34320705549E+03  0.26365478559E+03 0.  0.
         25    1    4    4    0    0  0.70956447476E+02 -0.40171349259E+02 -0.12766360549E+03  0.19645370703E+03  0.12509000000E+03 0.  0.
         25    1    4    4    0    0  0.46338306246E+01 -0.50353928604E+02 -0.57723883034E+02  0.14675334846E+03  0.12509000000E+03 0.  0.
         25    1    3    3    0    0 -0.75590278101E+02  0.90525277863E+02 -0.16526712016E+03  0.23847315401E+03  0.12509000000E+03 0.  0.
<mgrwt>
<rscale>  2 0.46410474E+03</rscale>
<asrwt>0</asrwt>
<pdfrwt beam="1">  1       21 0.16987177E-01 0.46410474E+03</pdfrwt>
<pdfrwt beam="2">  1       21 0.68554030E-01 0.46410474E+03</pdfrwt>
<totfact> 0.55701421E+04</totfact>
</mgrwt>
</event>
<event>
 7    0  0.4737014E-002  0.4485795E+03  0.7546771E-02  0.1028146E+00
         21   -1    0    0  502  501  0.00000000000E+00  0.00000000000E+00  0.11651707525E+04  0.11651707525E+04  0.00000000000E+00 0. -1.
         21   -1    0    0  501  502 -0.00000000000E+00 -0.00000000000E+00 -0.43174694456E+02  0.43174694456E+02  0.00000000000E+00 0. -1.
      99926    2    1    2    0    0  0.88817841970E-15  0.00000000000E+00  0.11219960580E+04  0.12083454469E+04  0.44857949676E+03 0.  0.
      99925    2    3    3    0    0  0.47315875752E+01  0.79486929125E+02  0.90276286684E+03  0.94367346119E+03  0.26305559828E+03 0.  0.
         25    1    4    4    0    0  0.10374843200E+02  0.78334883687E+02  0.54014229647E+03  0.56004035561E+03  0.12509000000E+03 0.  0.
         25    1    4    4    0    0 -0.56432556247E+01  0.11520454379E+01  0.36262057037E+03  0.38363310558E+03  0.12509000000E+03 0.  0.
         25    1    3    3    0    0 -0.47315875752E+01 -0.79486929125E+02  0.21923319119E+03  0.26467198575E+03  0.12509000000E+03 0.  0.
<mgrwt>
<rscale>  2 0.44857950E+03</rscale>
<asrwt>0</asrwt>
<pdfrwt beam="1">  1       21 0.17134862E+00 0.44857950E+03</pdfrwt>
<pdfrwt beam="2">  1       21 0.63492205E-02 0.44857950E+03</pdfrwt>
<totfact> 0.33538738E+04</totfact>
</mgrwt>
</event>
<event>
 7    0  0.4737014E-002  0.4517673E+03  0.7546771E-02  0.1027196E+00
         21   -1    0    0  502  501  0.00000000000E+00  0.00000000000E+00  0.15346601395E+03  0.15346601395E+03  0.00000000000E+00 0.  1.
         21   -1    0    0  501  502 -0.00000000000E+00 -0.00000000000E+00 -0.33247374903E+03  0.33247374903E+03  0.00000000000E+00 0.  1.
      99926    2    1    2    0    0 -0.14210854715E-13  0.00000000000E+00 -0.17900773508E+03  0.48593976298E+03  0.45176728968E+03 0.  0.
      99925    2    3    3    0    0  0.10069051297E+03 -0.34480247401E+02 -0.82725621734E+02  0.29555798782E+03  0.26302761986E+03 0.  0.
         25    1    4    4    0    0  0.56906589560E+02  0.22905553633E+02 -0.41023386836E+02  0.14523584506E+03  0.12509000000E+03 0.  0.
         25    1    4    4    0    0  0.43783923407E+02 -0.57385801034E+02 -0.41702234899E+02  0.15032214276E+03  0.12509000000E+03 0.  0.
         25    1    3    3    0    0 -0.10069051297E+03  0.34480247401E+02 -0.96282113347E+02  0.19038177516E+03  0.12509000000E+03 0.  0.
<mgrwt>
<rscale>  2 0.45176729E+03</rscale>
<asrwt>0</asrwt>
<pdfrwt beam="1">  1       21 0.22568532E-01 0.45176729E+03</pdfrwt>
<pdfrwt beam="2">  1       21 0.48893198E-01 0.45176729E+03</pdfrwt>
<totfact> 0.67998585E+04</totfact>
</mgrwt>
</event>
<event>
 7    0  0.4737014E-002  0.4546730E+03  0.7546771E-02  0.1026338E+00
         21   -1    0    0  502  501  0.00000000000E+00  0.00000000000E+00  0.38344944182E+03  0.38344944182E+03  0.00000000000E+00 0.  1.
         21   -1    0    0  501  502 -0.00000000000E+00 -0.00000000000E+00 -0.13478147150E+03  0.13478147150E+03  0.00000000000E+00 0.  1.
      99926    2    1    2    0    0  0.00000000000E+00  0.00000000000E+00  0.24866797033E+03  0.51823091332E+03  0.45467298144E+03 0.  0.
      99925    2    3    3    0    0  0.87964031441E+02  0.65176964460E+02  0.12505826502E+03  0.31107740775E+03  0.26295223224E+03 0.  0.
         25    1    4    4    0    0  0.41209247124E+02 -0.78472768067E+01  0.47283717901E+02  0.14015362957E+03  0.12509000000E+03 0.  0.
         25    1    3    3    0    0 -0.87964031441E+02 -0.65176964460E+02  0.12360970531E+03  0.20715350557E+03  0.12509000000E+03 0.  0.
         25    1    4    4    0    0  0.46754784317E+02  0.73024241266E+02  0.77774547116E+02  0.17092377818E+03  0.12509000000E+03 0.  0.
<mgrwt>
<rscale>  2 0.45467298E+03</rscale>
<asrwt>0</asrwt>
<pdfrwt beam="1">  1       21 0.56389623E-01 0.45467298E+03</pdfrwt>
<pdfrwt beam="2">  1       21 0.19820805E-01 0.45467298E+03</pdfrwt>
<totfact> 0.64174310E+04</totfact>
</mgrwt>
</event>
<event>
 7    0  0.4737014E-002  0.4524775E+03  0.7546771E-02  0.1026986E+00
         21   -1    0    0  502  501  0.00000000000E+00  0.00000000000E+00  0.47814951219E+02  0.47814951219E+02  0.00000000000E+00 0.  1.
         21   -1    0    0  501  502 -0.00000000000E+00 -0.00000000000E+00 -0.10704593386E+04  0.10704593386E+04  0.00000000000E+00 0.  1.
      99926    2    1    2    0    0  0.17763568394E-14  0.00000000000E+00 -0.10226443874E+04  0.11182742899E+04  0.45247745163E+03 0.  0.
      99925    2    3    3    0    0  0.10431441212E+02 -0.92656913900E+02 -0.79296720767E+03  0.84061760678E+03  0.26295788585E+03 0.  0.
         25    1    4    4    0    0 -0.11624660771E+02 -0.13414661612E+02 -0.30292232201E+03  0.32821414831E+03  0.12509000000E+03 0.  0.
         25    1    4    4    0    0  0.22056101983E+02 -0.79242252287E+02 -0.49004488567E+03  0.51240345847E+03  0.12509000000E+03 0.  0.
         25    1    3    3    0    0 -0.10431441212E+02  0.92656913900E+02 -0.22967717974E+03  0.27765668307E+03  0.12509000000E+03 0.  0.
<mgrwt>
<rscale>  2 0.45247745E+03</rscale>
<asrwt>0</asrwt>
<pdfrwt beam="1">  1       21 0.70316102E-02 0.45247745E+03</pdfrwt>
<pdfrwt beam="2">  1       21 0.15742050E+00 0.45247745E+03</pdfrwt>
<totfact> 0.35553507E+04</totfact>
</mgrwt>
</event>
<event>
 7    0  0.4737014E-002  0.4567307E+03  0.7546771E-02  0.1025734E+00
         21   -1    0    0  502  501  0.00000000000E+00  0.00000000000E+00  0.10708793998E+04  0.10708793998E+04  0.00000000000E+00 0.  1.
         21   -1    0    0  501  502 -0.00000000000E+00 -0.00000000000E+00 -0.48698968874E+02  0.48698968874E+02  0.00000000000E+00 0.  1.
      99926    2    1    2    0    0 -0.35527136788E-14  0.00000000000E+00  0.10221804309E+04  0.11195783687E+04  0.45673065393E+03 0.  0.
      99925    2    3    3    0    0 -0.20551116677E+02  0.21008028253E+02  0.36998633436E+03  0.45484659318E+03  0.26292936328E+03 0.  0.
         25    1    4    4    0    0  0.11925306138E+02  0.12035699708E+02  0.12463302079E+03  0.17739213333E+03  0.12509000000E+03 0.  0.
         25    1    3    3    0    0  0.20551116677E+02 -0.21008028253E+02  0.65219409659E+03  0.66473177551E+03  0.12509000000E+03 0.  0.
         25    1    4    4    0    0 -0.32476422815E+02  0.89723285446E+01  0.24535331356E+03  0.27745445986E+03  0.12509000000E+03 0.  0.
<mgrwt>
<rscale>  2 0.45673065E+03</rscale>
<asrwt>0</asrwt>
<pdfrwt beam="1">  1       21 0.15748225E+00 0.45673065E+03</pdfrwt>
<pdfrwt beam="2">  1       21 0.71616137E-02 0.45673065E+03</pdfrwt>
<totfact> 0.34348652E+04</totfact>
</mgrwt>
</event>
<event>
 7    0  0.4737014E-002  0.4646272E+03  0.7546771E-02  0.1023448E+00
         21   -1    0    0  502  501  0.00000000000E+00  0.00000000000E+00  0.54874607275E+02  0.54874607275E+02  0.00000000000E+00 0. -1.
         21   -1    0    0  501  502 -0.00000000000E+00 -0.00000000000E+00 -0.98350809105E+03  0.98350809105E+03  0.00000000000E+00 0. -1.
      99926    2    1    2    0    0  0.00000000000E+00  0.00000000000E+00 -0.92863348378E+03  0.10383826983E+04  0.46462724952E+03 0.  0.
      99925    2    3    3    0    0  0.47938622999E+02 -0.63843030149E+02 -0.37306019289E+03  0.46333206254E+03  0.26292327509E+03 0.  0.
         25    1    4    4    0    0  0.31436371412E+02 -0.44431623341E+02 -0.12825548763E+03  0.18724153601E+03  0.12509000000E+03 0.  0.
         25    1    4    4    0    0  0.16502251587E+02 -0.19411406808E+02 -0.24480470526E+03  0.27609052653E+03  0.12509000000E+03 0.  0.
         25    1    3    3    0    0 -0.47938622999E+02  0.63843030149E+02 -0.55557329089E+03  0.57505063579E+03  0.12509000000E+03 0.  0.
<mgrwt>
<rscale>  2 0.46462725E+03</rscale>
<asrwt>0</asrwt>
<pdfrwt beam="1">  1       21 0.80697955E-02 0.46462725E+03</pdfrwt>
<pdfrwt beam="2">  1       21 0.14463354E+00 0.46462725E+03</pdfrwt>
<totfact> 0.35001195E+04</totfact>
</mgrwt>
</event>
<event>
 7    0  0.4737014E-002  0.4519183E+03  0.7546771E-02  0.1027152E+00
         21   -1    0    0  502  501  0.00000000000E+00  0.00000000000E+00  0.10429668614E+04  0.10429668614E+04  0.00000000000E+00 0. -1.
         21   -1    0    0  501  502 -0.00000000000E+00 -0.00000000000E+00 -0.48954141522E+02  0.48954141522E+02  0.00000000000E+00 0. -1.
      99926    2    1    2    0    0 -0.14210854715E-13  0.00000000000E+00  0.99401271992E+03  0.10919210030E+04  0.45191834368E+03 0.  0.
      99925    2    3    3    0    0 -0.10817252015E+03  0.13114095756E+02  0.58747109391E+03  0.65283459301E+03  0.26305407435E+03 0.  0.
         25    1    3    3    0    0  0.10817252015E+03 -0.13114095756E+02  0.40654162601E+03  0.43908640995E+03  0.12509000000E+03 0.  0.
         25    1    4    4    0    0 -0.23445060515E+02  0.25098303791E+02  0.32200206174E+03  0.34714900487E+03  0.12509000000E+03 0.  0.
         25    1    4    4    0    0 -0.84727459639E+02 -0.11984208034E+02  0.26546903216E+03  0.30568558814E+03  0.12509000000E+03 0.  0.
<mgrwt>
<rscale>  2 0.45191834E+03</rscale>
<asrwt>0</asrwt>
<pdfrwt beam="1">  1       21 0.15337747E+00 0.45191834E+03</pdfrwt>
<pdfrwt beam="2">  1       21 0.71991391E-02 0.45191834E+03</pdfrwt>
<totfact> 0.36648889E+04</totfact>
</mgrwt>
</event>
<event>
 7    0  0.4737014E-002  0.4555993E+03  0.7546771E-02  0.1026065E+00
         21   -1    0    0  502  501  0.00000000000E+00  0.00000000000E+00  0.43267342303E+03  0.43267342303E+03  0.00000000000E+00 0. -1.
         21   -1    0    0  501  502 -0.00000000000E+00 -0.00000000000E+00 -0.11993500181E+03  0.11993500181E+03  0.00000000000E+00 0. -1.
      99926    2    1    2    0    0  0.00000000000E+00  0.00000000000E+00  0.31273842122E+03  0.55260842484E+03  0.45559933175E+03 0.  0.
      99925    2    3    3    0    0 -0.51649536168E+01  0.84152563521E+02  0.10400596507E+03  0.29507187007E+03  0.26294835432E+03 0.  0.
         25    1    3    3    0    0  0.51649536168E+01 -0.84152563521E+02  0.20873245615E+03  0.25753655477E+03  0.12509000000E+03 0.  0.
         25    1    4    4    0    0  0.64609992850E+01  0.82461624259E+02  0.47474323629E+02  0.15729902572E+03  0.12509000000E+03 0.  0.
         25    1    4    4    0    0 -0.11625952902E+02  0.16909392616E+01  0.56531641444E+02  0.13777284435E+03  0.12509000000E+03 0.  0.
<mgrwt>
<rscale>  2 0.45559933E+03</rscale>
<asrwt>0</asrwt>
<pdfrwt beam="1">  1       21 0.63628444E-01 0.45559933E+03</pdfrwt>
<pdfrwt beam="2">  1       21 0.17637500E-01 0.45559933E+03</pdfrwt>
<totfact> 0.61402811E+04</totfact>
</mgrwt>
</event>
<event>
 7    0  0.4737014E-002  0.4560561E+03  0.7546771E-02  0.1025931E+00
         21   -1    0    0  502  501  0.00000000000E+00  0.00000000000E+00  0.10783200453E+03  0.10783200453E+03  0.00000000000E+00 0.  1.
         21   -1    0    0  501  502 -0.00000000000E+00 -0.00000000000E+00 -0.48220190295E+03  0.48220190295E+03  0.00000000000E+00 0.  1.
      99926    2    1    2    0    0  0.00000000000E+00  0.17763568394E-14 -0.37436989841E+03  0.59003390748E+03  0.45605612718E+03 0.  0.
      99925    2    3    3    0    0  0.47164641609E+02 -0.11785378560E+02 -0.10176127420E+03  0.28618136320E+03  0.26302284531E+03 0.  0.
         25    1    4    4    0    0  0.47249096435E+02  0.24227288812E+02 -0.66653647619E+02  0.15135935874E+03  0.12509000000E+03 0.  0.
         25    1    4    4    0    0 -0.84454826177E-01 -0.36012667372E+02 -0.35107626579E+02  0.13482200446E+03  0.12509000000E+03 0.  0.
         25    1    3    3    0    0 -0.47164641609E+02  0.11785378560E+02 -0.27260862422E+03  0.30385254428E+03  0.12509000000E+03 0.  0.
<mgrwt>
<rscale>  2 0.45605613E+03</rscale>
<asrwt>0</asrwt>
<pdfrwt beam="1">  1       21 0.15857648E-01 0.45605613E+03</pdfrwt>
<pdfrwt beam="2">  1       21 0.70912045E-01 0.45605613E+03</pdfrwt>
<totfact> 0.58803554E+04</totfact>
</mgrwt>
</event>
<event>
 7    0  0.4737014E-002  0.4552501E+03  0.7546771E-02  0.1026168E+00
         21   -1    0    0  502  501  0.00000000000E+00  0.00000000000E+00  0.58384939377E+03  0.58384939377E+03  0.00000000000E+00 0. -1.
         21   -1    0    0  501  502 -0.00000000000E+00 -0.00000000000E+00 -0.88744041474E+02  0.88744041474E+02  0.00000000000E+00 0. -1.
      99926    2    1    2    0    0  0.00000000000E+00  0.14210854715E-13  0.49510535230E+03  0.67259343525E+03  0.45525006234E+03 0.  0.
      99925    2    3    3    0    0  0.65817767861E+02 -0.92017532448E+02  0.30498390096E+03  0.41844214329E+03  0.26320988316E+03 0.  0.
         25    1    3    3    0    0 -0.65817767861E+02  0.92017532448E+02  0.19012145134E+03  0.25415129196E+03  0.12509000000E+03 0.  0.
         25    1    4    4    0    0 -0.28720549502E+01 -0.60074038180E+02  0.16961261825E+03  0.21916452070E+03  0.12509000000E+03 0.  0.
         25    1    4    4    0    0  0.68689822811E+02 -0.31943494268E+02  0.13537128271E+03  0.19927762259E+03  0.12509000000E+03 0.  0.
<mgrwt>
<rscale>  2 0.45525006E+03</rscale>
<asrwt>0</asrwt>
<pdfrwt beam="1">  1       21 0.85860203E-01 0.45525006E+03</pdfrwt>
<pdfrwt beam="2">  1       21 0.13050595E-01 0.45525006E+03</pdfrwt>
<totfact> 0.54309475E+04</totfact>
</mgrwt>
</event>
<event>
 7    0  0.4737014E-002  0.4582322E+03  0.7546771E-02  0.1025295E+00
         21   -1    0    0  502  501  0.00000000000E+00  0.00000000000E+00  0.51346814031E+02  0.51346814031E+02  0.00000000000E+00 0. -1.
         21   -1    0    0  501  502 -0.00000000000E+00 -0.00000000000E+00 -0.10223453857E+04  0.10223453857E+04  0.00000000000E+00 0. -1.
      99926    2    1    2    0    0  0.00000000000E+00  0.00000000000E+00 -0.97099857168E+03  0.10736921997E+04  0.45823216123E+03 0.  0.
      99925    2    3    3    0    0  0.10477621969E+03  0.20031997618E+02 -0.71680293830E+03  0.77096746459E+03  0.26306851192E+03 0.  0.
         25    1    4    4    0    0  0.69830651608E+02  0.47378254914E+02 -0.36503849247E+03  0.39499573166E+03  0.12509000000E+03 0.  0.
         25    1    3    3    0    0 -0.10477621969E+03 -0.20031997618E+02 -0.25419563339E+03  0.30272473515E+03  0.12509000000E+03 0.  0.
         25    1    4    4    0    0  0.34945568086E+02 -0.27346257296E+02 -0.35176444582E+03  0.37597173293E+03  0.12509000000E+03 0.  0.
<mgrwt>
<rscale>  2 0.45823216E+03</rscale>
<asrwt>0</asrwt>
<pdfrwt beam="1">  1       21 0.75510025E-02 0.45823216E+03</pdfrwt>
<pdfrwt beam="2">  1       21 0.15034490E+00 0.45823216E+03</pdfrwt>
<totfact> 0.35515636E+04</totfact>
</mgrwt>
</event>
<event>
 7    0  0.4737014E-002  0.4553846E+03  0.7546771E-02  0.1026128E+00
         21   -1    0    0  502  501  0.00000000000E+00  0.00000000000E+00  0.16770259613E+03  0.16770259613E+03  0.00000000000E+00 0.  1.
         21   -1    0    0  501  502 -0.00000000000E+00 -0.00000000000E+00 -0.30914125041E+03  0.30914125041E+03  0.00000000000E+00 0.  1.
      99926    2    1    2    0    0  0.00000000000E+00  0.00000000000E+00 -0.14143865429E+03  0.47684384654E+03  0.45538462980E+03 0.  0.
      99925    2    3    3    0    0 -0.86337214550E+02 -0.70094611533E+02 -0.64828385866E+02  0.29276774677E+03  0.26295030852E+03 0.  0.
         25    1    4    4    0    0 -0.31065322983E+02 -0.60550298840E+02 -0.62868049818E+02  0.15566403814E+03  0.12509000000E+03 0.  0.
         25    1    4    4    0    0 -0.55271891567E+02 -0.95443126933E+01 -0.19603360481E+01  0.13710370863E+03  0.12509000000E+03 0.  0.
         25    1    3    3    0    0  0.86337214550E+02  0.70094611533E+02 -0.76610268419E+02  0.18407609978E+03  0.12509000000E+03 0.  0.
<mgrwt>
<rscale>  2 0.45538463E+03</rscale>
<asrwt>0</asrwt>
<pdfrwt beam="1">  1       21 0.24662147E-01 0.45538463E+03</pdfrwt>
<pdfrwt beam="2">  1       21 0.45461949E-01 0.45538463E+03</pdfrwt>
<totfact> 0.66726646E+04</totfact>
</mgrwt>
</event>
<event>
 7    0  0.4737014E-002  0.4807673E+03  0.7546771E-02  0.1018925E+00
         21   -1    0    0  502  501  0.00000000000E+00  0.00000000000E+00  0.33299191101E+03  0.33299191101E+03  0.00000000000E+00 0.  1.
         21   -1    0    0  501  502 -0.00000000000E+00 -0.00000000000E+00 -0.17353065717E+03  0.17353065717E+03  0.00000000000E+00 0.  1.
      99926    2    1    2    0    0  0.00000000000E+00  0.00000000000E+00  0.15946125384E+03  0.50652256817E+03  0.48076732479E+03 0.  0.
      99925    2    3    3    0    0 -0.38857937469E+01  0.51117820725E+02  0.23098734871E+03  0.35357937174E+03  0.26274528705E+03 0.  0.
         25    1    4    4    0    0 -0.70155463814E+01  0.65773840025E+02  0.11514489205E+03  0.18243154932E+03  0.12509000000E+03 0.  0.
         25    1    3    3    0    0  0.38857937469E+01 -0.51117820725E+02 -0.71526094867E+02  0.15294319643E+03  0.12509000000E+03 0.  0.
         25    1    4    4    0    0  0.31297526345E+01 -0.14656019300E+02  0.11584245666E+03  0.17114782241E+03  0.12509000000E+03 0.  0.
<mgrwt>
<rscale>  2 0.48076732E+03</rscale>
<asrwt>0</asrwt>
<pdfrwt beam="1">  1       21 0.48969399E-01 0.48076732E+03</pdfrwt>
<pdfrwt beam="2">  1       21 0.25519214E-01 0.48076732E+03</pdfrwt>
<totfact> 0.53094564E+04</totfact>
</mgrwt>
</event>
<event>
 7    0  0.4737014E-002  0.4626757E+03  0.7546771E-02  0.1024008E+00
         21   -1    0    0  502  501  0.00000000000E+00  0.00000000000E+00  0.62584428714E+02  0.62584428714E+02  0.00000000000E+00 0. -1.
         21   -1    0    0  501  502 -0.00000000000E+00 -0.00000000000E+00 -0.85511998317E+03  0.85511998317E+03  0.00000000000E+00 0. -1.
      99926    2    1    2    0    0  0.71054273576E-14  0.00000000000E+00 -0.79253555445E+03  0.91770441188E+03  0.46267567746E+03 0.  0.
      99925    2    3    3    0    0 -0.46729143213E+02  0.20102956767E+02 -0.71136426480E+03  0.76014798370E+03  0.26305531395E+03 0.  0.
         25    1    3    3    0    0  0.46729143213E+02 -0.20102956767E+02 -0.81171289650E+02  0.15755642818E+03  0.12509000000E+03 0.  0.
         25    1    4    4    0    0 -0.49484767452E+02  0.25976223254E+02 -0.29329223621E+03  0.32371492135E+03  0.12509000000E+03 0.  0.
         25    1    4    4    0    0  0.27556242393E+01 -0.58732664874E+01 -0.41807202859E+03  0.43643306235E+03  0.12509000000E+03 0.  0.
<mgrwt>
<rscale>  2 0.46267568E+03</rscale>
<asrwt>0</asrwt>
<pdfrwt beam="1">  1       21 0.92035923E-02 0.46267568E+03</pdfrwt>
<pdfrwt beam="2">  1       21 0.12575294E+00 0.46267568E+03</pdfrwt>
<totfact> 0.40018060E+04</totfact>
</mgrwt>
</event>
<event>
 7    0  0.4737014E-002  0.4359418E+03  0.7546771E-02  0.1031999E+00
         21   -1    0    0  502  501  0.00000000000E+00  0.00000000000E+00  0.36793797096E+03  0.36793797096E+03  0.00000000000E+00 0.  1.
         21   -1    0    0  501  502 -0.00000000000E+00 -0.00000000000E+00 -0.12912859252E+03  0.12912859252E+03  0.00000000000E+00 0.  1.
      99926    2    1    2    0    0  0.00000000000E+00  0.00000000000E+00  0.23880937844E+03  0.49706656348E+03  0.43594179577E+03 0.  0.
      99925    2    3    3    0    0 -0.29210166146E+02 -0.47788690502E+02  0.23930749261E+03  0.36000909756E+03  0.26306174477E+03 0.  0.
         25    1    4    4    0    0 -0.49298816989E+01  0.69391816929E+01  0.14800117414E+03  0.19396987297E+03  0.12509000000E+03 0.  0.
         25    1    3    3    0    0  0.29210166146E+02  0.47788690502E+02 -0.49811416924E+00  0.13705746592E+03  0.12509000000E+03 0.  0.
         25    1    4    4    0    0 -0.24280284447E+02 -0.54727872195E+02  0.91306318474E+02  0.16603922459E+03  0.12509000000E+03 0.  0.
<mgrwt>
<rscale>  2 0.43594180E+03</rscale>
<asrwt>0</asrwt>
<pdfrwt beam="1">  1       21 0.54108525E-01 0.43594180E+03</pdfrwt>
<pdfrwt beam="2">  1       21 0.18989499E-01 0.43594180E+03</pdfrwt>
<totfact> 0.76394856E+04</totfact>
</mgrwt>
</event>
<event>
 7    0  0.4737014E-002  0.4635097E+03  0.7546771E-02  0.1023768E+00
         21   -1    0    0  502  501  0.00000000000E+00  0.00000000000E+00  0.62594596045E+02  0.62594596045E+02  0.00000000000E+00 0.  1.
         21   -1    0    0  501  502 -0.00000000000E+00 -0.00000000000E+00 -0.85806620846E+03  0.85806620846E+03  0.00000000000E+00 0.  1.
      99926    2    1    2    0    0  0.00000000000E+00  0.00000000000E+00 -0.79547161241E+03  0.92066080450E+03  0.46350968792E+03 0.  0.
      99925    2    3    3    0    0 -0.40160068298E+02  0.10985953409E+03 -0.43571215571E+03  0.52221843338E+03  0.26303053286E+03 0.  0.
         25    1    3    3    0    0  0.40160068298E+02 -0.10985953409E+03 -0.35975945670E+03  0.39844237112E+03  0.12509000000E+03 0.  0.
         25    1    4    4    0    0 -0.34084423082E+02  0.56582503974E+02 -0.15253242604E+03  0.20803119177E+03  0.12509000000E+03 0.  0.
         25    1    4    4    0    0 -0.60756452159E+01  0.53277030112E+02 -0.28317972966E+03  0.31418724162E+03  0.12509000000E+03 0.  0.
<mgrwt>
<rscale>  2 0.46350969E+03</rscale>
<asrwt>0</asrwt>
<pdfrwt beam="1">  1       21 0.92050876E-02 0.46350969E+03</pdfrwt>
<pdfrwt beam="2">  1       21 0.12618621E+00 0.46350969E+03</pdfrwt>
<totfact> 0.39645173E+04</totfact>
</mgrwt>
</event>
<event>
 7    0  0.4737014E-002  0.4534925E+03  0.7546771E-02  0.1026686E+00
         21   -1    0    0  502  501  0.00000000000E+00  0.00000000000E+00  0.17050862594E+03  0.17050862594E+03  0.00000000000E+00 0.  1.
         21   -1    0    0  501  502 -0.00000000000E+00 -0.00000000000E+00 -0.30153229122E+03  0.30153229122E+03  0.00000000000E+00 0.  1.
      99926    2    1    2    0    0  0.14210854715E-13  0.00000000000E+00 -0.13102366528E+03  0.47204091715E+03  0.45349247690E+03 0.  0.
      99925    2    3    3    0    0 -0.92318677322E+02 -0.39275901559E+02 -0.13375586234E+03  0.31166539650E+03  0.26301968374E+03 0.  0.
         25    1    4    4    0    0 -0.72200945643E+02  0.11587339720E+02 -0.65086956707E+02  0.15884288787E+03  0.12509000000E+03 0.  0.
         25    1    4    4    0    0 -0.20117731678E+02 -0.50863241279E+02 -0.68668905638E+02  0.15282250863E+03  0.12509000000E+03 0.  0.
         25    1    3    3    0    0  0.92318677322E+02  0.39275901559E+02  0.27321970603E+01  0.16037552066E+03  0.12509000000E+03 0.  0.
<mgrwt>
<rscale>  2 0.45349248E+03</rscale>
<asrwt>0</asrwt>
<pdfrwt beam="1">  1       21 0.25074798E-01 0.45349248E+03</pdfrwt>
<pdfrwt beam="2">  1       21 0.44342983E-01 0.45349248E+03</pdfrwt>
<totfact> 0.68095148E+04</totfact>
</mgrwt>
</event>
<event>
 7    0  0.4737014E-002  0.4527114E+03  0.7546771E-02  0.1026917E+00
         21   -1    0    0  502  501  0.00000000000E+00  0.00000000000E+00  0.20598280654E+03  0.20598280654E+03  0.00000000000E+00 0.  1.
         21   -1    0    0  501  502 -0.00000000000E+00 -0.00000000000E+00 -0.24874359909E+03  0.24874359909E+03  0.00000000000E+00 0.  1.
      99926    2    1    2    0    0 -0.44408920985E-15  0.00000000000E+00 -0.42760792543E+02  0.45472640563E+03  0.45271140763E+03 0.  0.
      99925    2    3    3    0    0 -0.31304803740E+01 -0.10470373767E+03  0.10048336173E+02  0.28323592553E+03  0.26296187530E+03 0.  0.
         25    1    3    3    0    0  0.31304803740E+01  0.10470373767E+03 -0.52809128717E+02  0.17149048010E+03  0.12509000000E+03 0.  0.
         25    1    4    4    0    0 -0.43789709364E+01 -0.63108426387E+02 -0.34001313577E+02  0.14424093140E+03  0.12509000000E+03 0.  0.
         25    1    4    4    0    0  0.12484905624E+01 -0.41595311281E+02  0.44049649751E+02  0.13899499413E+03  0.12509000000E+03 0.  0.
<mgrwt>
<rscale>  2 0.45271141E+03</rscale>
<asrwt>0</asrwt>
<pdfrwt beam="1">  1       21 0.30291590E-01 0.45271141E+03</pdfrwt>
<pdfrwt beam="2">  1       21 0.36579941E-01 0.45271141E+03</pdfrwt>
<totfact> 0.69832285E+04</totfact>
</mgrwt>
</event>
<event>
 7    0  0.4737014E-002  0.4577220E+03  0.7546771E-02  0.1025444E+00
         21   -1    0    0  502  501  0.00000000000E+00  0.00000000000E+00  0.70769434751E+02  0.70769434751E+02  0.00000000000E+00 0.  1.
         21   -1    0    0  501  502 -0.00000000000E+00 -0.00000000000E+00 -0.74011272967E+03  0.74011272967E+03  0.00000000000E+00 0.  1.
      99926    2    1    2    0    0  0.14210854715E-13 -0.13322676296E-14 -0.66934329492E+03  0.81088216442E+03  0.45772200966E+03 0.  0.
      99925    2    3    3    0    0 -0.65532331666E+02  0.31345123297E+01 -0.25111428317E+03  0.36944437035E+03  0.26291909005E+03 0.  0.
         25    1    3    3    0    0  0.65532331666E+02 -0.31345123297E+01 -0.41822901175E+03  0.44143779407E+03  0.12509000000E+03 0.  0.
         25    1    4    4    0    0 -0.29728211836E+02 -0.12558852458E+02 -0.17621103500E+03  0.21849331411E+03  0.12509000000E+03 0.  0.
         25    1    4    4    0    0 -0.35804119830E+02  0.15693364788E+02 -0.74903248164E+02  0.15095105624E+03  0.12509000000E+03 0.  0.
<mgrwt>
<rscale>  2 0.45772201E+03</rscale>
<asrwt>0</asrwt>
<pdfrwt beam="1">  1       21 0.10407270E-01 0.45772201E+03</pdfrwt>
<pdfrwt beam="2">  1       21 0.10884010E+00 0.45772201E+03</pdfrwt>
<totfact> 0.46247169E+04</totfact>
</mgrwt>
</event>
<event>
 7    0  0.4737014E-002  0.4567150E+03  0.7546771E-02  0.1025738E+00
         21   -1    0    0  502  501  0.00000000000E+00  0.00000000000E+00  0.17042833146E+03  0.17042833146E+03  0.00000000000E+00 0. -1.
         21   -1    0    0  501  502 -0.00000000000E+00 -0.00000000000E+00 -0.30597698607E+03  0.30597698607E+03  0.00000000000E+00 0. -1.
      99926    2    1    2    0    0  0.00000000000E+00  0.00000000000E+00 -0.13554865461E+03  0.47640531753E+03  0.45671499735E+03 0.  0.
      99925    2    3    3    0    0 -0.91248465794E+02 -0.24399459294E+02 -0.15325126700E+03  0.31866341850E+03  0.26294259322E+03 0.  0.
         25    1    4    4    0    0 -0.60416862452E+02  0.23298211926E+02 -0.63091262292E+02  0.15434059552E+03  0.12509000000E+03 0.  0.
         25    1    4    4    0    0 -0.30831603342E+02 -0.47697671219E+02 -0.90160004711E+02  0.16432282299E+03  0.12509000000E+03 0.  0.
         25    1    3    3    0    0  0.91248465794E+02  0.24399459294E+02  0.17702612397E+02  0.15774189903E+03  0.12509000000E+03 0.  0.
<mgrwt>
<rscale>  2 0.45671500E+03</rscale>
<asrwt>0</asrwt>
<pdfrwt beam="1">  1       21 0.25062990E-01 0.45671500E+03</pdfrwt>
<pdfrwt beam="2">  1       21 0.44996615E-01 0.45671500E+03</pdfrwt>
<totfact> 0.66059050E+04</totfact>
</mgrwt>
</event>
<event>
 7    0  0.4737014E-002  0.4582186E+03  0.7546771E-02  0.1025299E+00
         21   -1    0    0  502  501  0.00000000000E+00  0.00000000000E+00  0.68624202365E+03  0.68624202365E+03  0.00000000000E+00 0.  1.
         21   -1    0    0  501  502 -0.00000000000E+00 -0.00000000000E+00 -0.76490605813E+02  0.76490605813E+02  0.00000000000E+00 0.  1.
      99926    2    1    2    0    0  0.35527136788E-14  0.00000000000E+00  0.60975141784E+03  0.76273262946E+03  0.45821858593E+03 0.  0.
      99925    2    3    3    0    0  0.30251582168E+02 -0.92639968536E+02  0.48787840342E+03  0.56273797519E+03  0.26296648114E+03 0.  0.
         25    1    3    3    0    0 -0.30251582168E+02  0.92639968536E+02  0.12187301442E+03  0.19999465427E+03  0.12509000000E+03 0.  0.
         25    1    4    4    0    0  0.23330352897E+02 -0.34772067238E+02  0.31520543281E+03  0.34169485656E+03  0.12509000000E+03 0.  0.
         25    1    4    4    0    0  0.69212292715E+01 -0.57867901298E+02  0.17267297061E+03  0.22104311863E+03  0.12509000000E+03 0.  0.
<mgrwt>
<rscale>  2 0.45821859E+03</rscale>
<asrwt>0</asrwt>
<pdfrwt beam="1">  1       21 0.10091794E+00 0.45821859E+03</pdfrwt>
<pdfrwt beam="2">  1       21 0.11248619E-01 0.45821859E+03</pdfrwt>
<totfact> 0.48385623E+04</totfact>
</mgrwt>
</event>
<event>
 7    0  0.4737014E-002  0.4602034E+03  0.7546771E-02  0.1024722E+00
         21   -1    0    0  502  501  0.00000000000E+00  0.00000000000E+00  0.19053291469E+04  0.19053291469E+04  0.00000000000E+00 0. -1.
         21   -1    0    0  501  502 -0.00000000000E+00 -0.00000000000E+00 -0.27788786262E+02  0.27788786262E+02  0.00000000000E+00 0. -1.
      99926    2    1    2    0    0  0.00000000000E+00  0.17763568394E-14  0.18775403607E+04  0.19331179332E+04  0.46020336558E+03 0.  0.
      99925    2    3    3    0    0 -0.10194134326E+03  0.10603403719E+02  0.93042755995E+03  0.97229816080E+03  0.26299011302E+03 0.  0.
         25    1    3    3    0    0  0.10194134326E+03 -0.10603403719E+02  0.94711280071E+03  0.96081977239E+03  0.12509000000E+03 0.  0.
         25    1    4    4    0    0 -0.44515976140E+02  0.19482538897E+02  0.58835587825E+03  0.60346614572E+03  0.12509000000E+03 0.  0.
         25    1    4    4    0    0 -0.57425367118E+02 -0.88791351784E+01  0.34207168170E+03  0.36883201509E+03  0.12509000000E+03 0.  0.
<mgrwt>
<rscale>  2 0.46020337E+03</rscale>
<asrwt>0</asrwt>
<pdfrwt beam="1">  1       21 0.28019538E+00 0.46020337E+03</pdfrwt>
<pdfrwt beam="2">  1       21 0.40865875E-02 0.46020337E+03</pdfrwt>
<totfact> 0.14248541E+04</totfact>
</mgrwt>
</event>
<event>
 7    0  0.4737014E-002  0.4581519E+03  0.7546771E-02  0.1025319E+00
         21   -1    0    0  502  501  0.00000000000E+00  0.00000000000E+00  0.67762429613E+03  0.67762429613E+03  0.00000000000E+00 0. -1.
         21   -1    0    0  501  502 -0.00000000000E+00 -0.00000000000E+00 -0.77440846125E+02  0.77440846125E+02  0.00000000000E+00 0. -1.
      99926    2    1    2    0    0  0.00000000000E+00  0.35527136788E-14  0.60018345001E+03  0.75506514226E+03  0.45815193483E+03 0.  0.
      99925    2    3    3    0    0 -0.11211834389E+03  0.19892150729E+02  0.41403409942E+03  0.50353918033E+03  0.26298526566E+03 0.  0.
         25    1    3    3    0    0  0.11211834389E+03 -0.19892150729E+02  0.18614935059E+03  0.25152596192E+03  0.12509000000E+03 0.  0.
         25    1    4    4    0    0 -0.46622520166E+02  0.19891963318E+02  0.13545475213E+03  0.19121937027E+03  0.12509000000E+03 0.  0.
         25    1    4    4    0    0 -0.65495823720E+02  0.18741058693E-03  0.27857934728E+03  0.31231981006E+03  0.12509000000E+03 0.  0.
<mgrwt>
<rscale>  2 0.45815193E+03</rscale>
<asrwt>0</asrwt>
<pdfrwt beam="1">  1       21 0.99650629E-01 0.45815193E+03</pdfrwt>
<pdfrwt beam="2">  1       21 0.11388360E-01 0.45815193E+03</pdfrwt>
<totfact> 0.48793332E+04</totfact>
</mgrwt>
</event>
<event>
 7    0  0.4737014E-002  0.4511080E+03  0.7546771E-02  0.1027392E+00
         21   -1    0    0  502  501  0.00000000000E+00  0.00000000000E+00  0.60934333251E+02  0.60934333251E+02  0.00000000000E+00 0.  1.
         21   -1    0    0  501  502 -0.00000000000E+00 -0.00000000000E+00 -0.83490876532E+03  0.83490876532E+03  0.00000000000E+00 0.  1.
      99926    2    1    2    0    0  0.00000000000E+00  0.71054273576E-14 -0.77397443207E+03  0.89584309857E+03  0.45110800897E+03 0.  0.
      99925    2    3    3    0    0  0.91988257183E+02 -0.58830132645E+02 -0.48953220981E+03  0.56648355359E+03  0.26332301092E+03 0.  0.
         25    1    3    3    0    0 -0.91988257183E+02  0.58830132645E+02 -0.28444222225E+03  0.32935954498E+03  0.12509000000E+03 0.  0.
         25    1    4    4    0    0  0.74324047576E+02 -0.53306403459E+02 -0.31389314501E+03  0.35006006811E+03  0.12509000000E+03 0.  0.
         25    1    4    4    0    0  0.17664209607E+02 -0.55237291861E+01 -0.17563906480E+03  0.21642348549E+03  0.12509000000E+03 0.  0.
<mgrwt>
<rscale>  2 0.45110801E+03</rscale>
<asrwt>0</asrwt>
<pdfrwt beam="1">  1       21 0.89609319E-02 0.45110801E+03</pdfrwt>
<pdfrwt beam="2">  1       21 0.12278069E+00 0.45110801E+03</pdfrwt>
<totfact> 0.44762481E+04</totfact>
</mgrwt>
</event>
<event>
 7    0  0.4737014E-002  0.4072757E+03  0.7546771E-02  0.1041289E+00
         21   -1    0    0  502  501  0.00000000000E+00  0.00000000000E+00  0.70541868133E+02  0.70541868133E+02  0.00000000000E+00 0.  1.
         21   -1    0    0  501  502 -0.00000000000E+00 -0.00000000000E+00 -0.58785490899E+03  0.58785490899E+03  0.00000000000E+00 0.  1.
      99926    2    1    2    0    0 -0.71054273576E-14 -0.35527136788E-14 -0.51731304085E+03  0.65839677712E+03  0.40727574674E+03 0.  0.
      99925    2    3    3    0    0  0.39159561408E+02  0.18562597050E+02 -0.40487612088E+03  0.48470852095E+03  0.26294416853E+03 0.  0.
         25    1    3    3    0    0 -0.39159561408E+02 -0.18562597050E+02 -0.11243691997E+03  0.17368825617E+03  0.12509000000E+03 0.  0.
         25    1    4    4    0    0  0.38289358850E+02  0.41554592020E+02 -0.23995918690E+03  0.27644308383E+03  0.12509000000E+03 0.  0.
         25    1    4    4    0    0  0.87020255823E+00 -0.22991994969E+02 -0.16491693398E+03  0.20826543712E+03  0.12509000000E+03 0.  0.
<mgrwt>
<rscale>  2 0.40727575E+03</rscale>
<asrwt>0</asrwt>
<pdfrwt beam="1">  1       21 0.10373804E-01 0.40727575E+03</pdfrwt>
<pdfrwt beam="2">  1       21 0.86449253E-01 0.40727575E+03</pdfrwt>
<totfact> 0.81961457E+04</totfact>
</mgrwt>
</event>
<event>
 7    0  0.4737014E-002  0.4484146E+03  0.7546771E-02  0.1028196E+00
         21   -1    0    0  502  501  0.00000000000E+00  0.00000000000E+00  0.78893387078E+02  0.78893387078E+02  0.00000000000E+00 0. -1.
         21   -1    0    0  501  502 -0.00000000000E+00 -0.00000000000E+00 -0.63717511500E+03  0.63717511500E+03  0.00000000000E+00 0. -1.
      99926    2    1    2    0    0  0.00000000000E+00  0.00000000000E+00 -0.55828172792E+03  0.71606850208E+03  0.44841455366E+03 0.  0.
      99925    2    3    3    0    0 -0.51508163061E+02  0.10088532837E+02 -0.50211873801E+03  0.56924664099E+03  0.26298981322E+03 0.  0.
         25    1    4    4    0    0  0.15160951292E+02  0.77977034883E+01 -0.22660159413E+03  0.25939631683E+03  0.12509000000E+03 0.  0.
         25    1    3    3    0    0  0.51508163061E+02 -0.10088532837E+02 -0.56162989905E+02  0.14682186108E+03  0.12509000000E+03 0.  0.
         25    1    4    4    0    0 -0.66669114354E+02  0.22908293489E+01 -0.27551714389E+03  0.30985032416E+03  0.12509000000E+03 0.  0.
<mgrwt>
<rscale>  2 0.44841455E+03</rscale>
<asrwt>0</asrwt>
<pdfrwt beam="1">  1       21 0.11601968E-01 0.44841455E+03</pdfrwt>
<pdfrwt beam="2">  1       21 0.93702227E-01 0.44841455E+03</pdfrwt>
<totfact> 0.54824604E+04</totfact>
</mgrwt>
</event>
<event>
 7    0  0.4737014E-002  0.4582844E+03  0.7546771E-02  0.1025280E+00
         21   -1    0    0  502  501  0.00000000000E+00  0.00000000000E+00  0.75120406662E+02  0.75120406662E+02  0.00000000000E+00 0.  1.
         21   -1    0    0  501  502 -0.00000000000E+00 -0.00000000000E+00 -0.69895989080E+03  0.69895989080E+03  0.00000000000E+00 0.  1.
      99926    2    1    2    0    0  0.00000000000E+00  0.00000000000E+00 -0.62383948414E+03  0.77408029747E+03  0.45828441491E+03 0.  0.
      99925    2    3    3    0    0 -0.51531742939E+02  0.17264106397E+02 -0.56493134161E+03  0.62551634741E+03  0.26300135027E+03 0.  0.
         25    1    3    3    0    0  0.51531742939E+02 -0.17264106397E+02 -0.58908142531E+02  0.14856395006E+03  0.12509000000E+03 0.  0.
         25    1    4    4    0    0 -0.60263491149E+02  0.30180392601E+02 -0.28209695852E+03  0.31586191060E+03  0.12509000000E+03 0.  0.
         25    1    4    4    0    0  0.87317482094E+01 -0.12916286203E+02 -0.28283438309E+03  0.30965443681E+03  0.12509000000E+03 0.  0.
<mgrwt>
<rscale>  2 0.45828441E+03</rscale>
<asrwt>0</asrwt>
<pdfrwt beam="1">  1       21 0.11047119E-01 0.45828441E+03</pdfrwt>
<pdfrwt beam="2">  1       21 0.10278822E+00 0.45828441E+03</pdfrwt>
<totfact> 0.47799753E+04</totfact>
</mgrwt>
</event>
<event>
 7    0  0.4737014E-002  0.4525384E+03  0.7546771E-02  0.1026968E+00
         21   -1    0    0  502  501  0.00000000000E+00  0.00000000000E+00  0.31973499230E+02  0.31973499230E+02  0.00000000000E+00 0.  1.
         21   -1    0    0  501  502 -0.00000000000E+00 -0.00000000000E+00 -0.16012555000E+04  0.16012555000E+04  0.00000000000E+00 0.  1.
      99926    2    1    2    0    0  0.00000000000E+00  0.00000000000E+00 -0.15692820008E+04  0.16332289993E+04  0.45253835858E+03 0.  0.
      99925    2    3    3    0    0 -0.88435921281E+02 -0.36236945473E+02 -0.11929648788E+04  0.12253122029E+04  0.26285122025E+03 0.  0.
         25    1    3    3    0    0  0.88435921281E+02  0.36236945473E+02 -0.37631712197E+03  0.40791679639E+03  0.12509000000E+03 0.  0.
         25    1    4    4    0    0 -0.76133557813E+02 -0.35532983213E+02 -0.74268091914E+03  0.75781354387E+03  0.12509000000E+03 0.  0.
         25    1    4    4    0    0 -0.12302363468E+02 -0.70396226046E+00 -0.45028395968E+03  0.46749865899E+03  0.12509000000E+03 0.  0.
<mgrwt>
<rscale>  2 0.45253836E+03</rscale>
<asrwt>0</asrwt>
<pdfrwt beam="1">  1       21 0.47019850E-02 0.45253836E+03</pdfrwt>
<pdfrwt beam="2">  1       21 0.23547876E+00 0.45253836E+03</pdfrwt>
<totfact> 0.21089410E+04</totfact>
</mgrwt>
</event>
<event>
 7    0  0.4737014E-002  0.4510672E+03  0.7546771E-02  0.1027404E+00
         21   -1    0    0  502  501  0.00000000000E+00  0.00000000000E+00  0.98010091518E+03  0.98010091518E+03  0.00000000000E+00 0.  1.
         21   -1    0    0  501  502 -0.00000000000E+00 -0.00000000000E+00 -0.51898139942E+02  0.51898139942E+02  0.00000000000E+00 0.  1.
      99926    2    1    2    0    0  0.17763568394E-14  0.14210854715E-13  0.92820277524E+03  0.10319990551E+04  0.45106724312E+03 0.  0.
      99925    2    3    3    0    0  0.70553520903E+01  0.10816800022E+03  0.61897677805E+03  0.68125938001E+03  0.26311973856E+03 0.  0.
         25    1    4    4    0    0 -0.15567593759E+02  0.15092259923E+02  0.28357090481E+03  0.31069292306E+03  0.12509000000E+03 0.  0.
         25    1    3    3    0    0 -0.70553520903E+01 -0.10816800022E+03  0.30922599719E+03  0.35073967512E+03  0.12509000000E+03 0.  0.
         25    1    4    4    0    0  0.22622945850E+02  0.93075740292E+02  0.33540587324E+03  0.37056645694E+03  0.12509000000E+03 0.  0.
<mgrwt>
<rscale>  2 0.45106724E+03</rscale>
<asrwt>0</asrwt>
<pdfrwt beam="1">  1       21 0.14413248E+00 0.45106724E+03</pdfrwt>
<pdfrwt beam="2">  1       21 0.76320800E-02 0.45106724E+03</pdfrwt>
<totfact> 0.39132633E+04</totfact>
</mgrwt>
</event>
<event>
 7    0  0.4737014E-002  0.4588547E+03  0.7546771E-02  0.1025114E+00
         21   -1    0    0  502  501  0.00000000000E+00  0.00000000000E+00  0.68484656494E+02  0.68484656494E+02  0.00000000000E+00 0. -1.
         21   -1    0    0  501  502 -0.00000000000E+00 -0.00000000000E+00 -0.76859428509E+03  0.76859428509E+03  0.00000000000E+00 0. -1.
      99926    2    1    2    0    0  0.00000000000E+00  0.00000000000E+00 -0.70010962859E+03  0.83707894158E+03  0.45885472907E+03 0.  0.
      99925    2    3    3    0    0 -0.30035316373E+02  0.38923016525E+02 -0.24694689849E+03  0.36440454044E+03  0.26342129180E+03 0.  0.
         25    1    4    4    0    0 -0.12800869742E+02  0.15253254965E+02 -0.17839111446E+03  0.21878624699E+03  0.12509000000E+03 0.  0.
         25    1    3    3    0    0  0.30035316373E+02 -0.38923016525E+02 -0.45316273010E+03  0.47267440114E+03  0.12509000000E+03 0.  0.
         25    1    4    4    0    0 -0.17234446631E+02  0.23669761560E+02 -0.68555784036E+02  0.14561829345E+03  0.12509000000E+03 0.  0.
<mgrwt>
<rscale>  2 0.45885473E+03</rscale>
<asrwt>0</asrwt>
<pdfrwt beam="1">  1       21 0.10071272E-01 0.45885473E+03</pdfrwt>
<pdfrwt beam="2">  1       21 0.11302858E+00 0.45885473E+03</pdfrwt>
<totfact> 0.44657076E+04</totfact>
</mgrwt>
</event>
<event>
 7    0  0.4737014E-002  0.4526742E+03  0.7546771E-02  0.1026928E+00
         21   -1    0    0  502  501  0.00000000000E+00  0.00000000000E+00  0.96215067095E+02  0.96215067095E+02  0.00000000000E+00 0.  1.
         21   -1    0    0  501  502 -0.00000000000E+00 -0.00000000000E+00 -0.53243725981E+03  0.53243725981E+03  0.00000000000E+00 0.  1.
      99926    2    1    2    0    0  0.00000000000E+00  0.00000000000E+00 -0.43622219271E+03  0.62865232690E+03  0.45267421697E+03 0.  0.
      99925    2    3    3    0    0 -0.75484373415E+02 -0.27530394318E+02 -0.38136562914E+03  0.47018288534E+03  0.26301404780E+03 0.  0.
         25    1    4    4    0    0 -0.51242777218E+02 -0.36244529071E+02 -0.14502684739E+03  0.20154350068E+03  0.12509000000E+03 0.  0.
         25    1    3    3    0    0  0.75484373415E+02  0.27530394318E+02 -0.54856563574E+02  0.15846944156E+03  0.12509000000E+03 0.  0.
         25    1    4    4    0    0 -0.24241596198E+02  0.87141347533E+01 -0.23633878175E+03  0.26863938466E+03  0.12509000000E+03 0.  0.
<mgrwt>
<rscale>  2 0.45267422E+03</rscale>
<asrwt>0</asrwt>
<pdfrwt beam="1">  1       21 0.14149275E-01 0.45267422E+03</pdfrwt>
<pdfrwt beam="2">  1       21 0.78299597E-01 0.45267422E+03</pdfrwt>
<totfact> 0.58006108E+04</totfact>
</mgrwt>
</event>
<event>
 7    0  0.4737014E-002  0.4404740E+03  0.7546771E-02  0.1030601E+00
         21   -1    0    0  502  501  0.00000000000E+00  0.00000000000E+00  0.66661848930E+02  0.66661848930E+02  0.00000000000E+00 0. -1.
         21   -1    0    0  501  502 -0.00000000000E+00 -0.00000000000E+00 -0.72761778851E+03  0.72761778851E+03  0.00000000000E+00 0. -1.
      99926    2    1    2    0    0  0.00000000000E+00 -0.47184478547E-15 -0.66095593958E+03  0.79427963744E+03  0.44047404962E+03 0.  0.
      99925    2    3    3    0    0  0.98861404859E+02  0.14465117422E+00 -0.40998148377E+03  0.49694265040E+03  0.26285658153E+03 0.  0.
         25    1    4    4    0    0  0.53073305724E+02  0.37832884587E+02 -0.18259929731E+03  0.23073386058E+03  0.12509000000E+03 0.  0.
         25    1    3    3    0    0 -0.98861404859E+02 -0.14465117422E+00 -0.25097445580E+03  0.29733698704E+03  0.12509000000E+03 0.  0.
         25    1    4    4    0    0  0.45788099135E+02 -0.37688233413E+02 -0.22738218646E+03  0.26620878982E+03  0.12509000000E+03 0.  0.
<mgrwt>
<rscale>  2 0.44047405E+03</rscale>
<asrwt>0</asrwt>
<pdfrwt beam="1">  1       21 0.98032136E-02 0.44047405E+03</pdfrwt>
<pdfrwt beam="2">  1       21 0.10700261E+00 0.44047405E+03</pdfrwt>
<totfact> 0.53933521E+04</totfact>
</mgrwt>
</event>
<event>
 7    0  0.4737014E-002  0.4575535E+03  0.7546771E-02  0.1025493E+00
         21   -1    0    0  502  501  0.00000000000E+00  0.00000000000E+00  0.17383809786E+03  0.17383809786E+03  0.00000000000E+00 0.  1.
         21   -1    0    0  501  502 -0.00000000000E+00 -0.00000000000E+00 -0.30107788393E+03  0.30107788393E+03  0.00000000000E+00 0.  1.
      99926    2    1    2    0    0  0.00000000000E+00  0.71054273576E-14 -0.12723978607E+03  0.47491598179E+03  0.45755352321E+03 0.  0.
      99925    2    3    3    0    0  0.85401747561E+01 -0.49101687089E+02  0.28397737316E+02  0.26911399676E+03  0.26292965125E+03 0.  0.
         25    1    4    4    0    0  0.18327376025E+02 -0.51077248072E+02 -0.13005335092E+02  0.13697235058E+03  0.12509000000E+03 0.  0.
         25    1    3    3    0    0 -0.85401747561E+01  0.49101687089E+02 -0.15563752338E+03  0.20580198504E+03  0.12509000000E+03 0.  0.
         25    1    4    4    0    0 -0.97872012690E+01  0.19755609829E+01  0.41403072408E+02  0.13214164618E+03  0.12509000000E+03 0.  0.
<mgrwt>
<rscale>  2 0.45755352E+03</rscale>
<asrwt>0</asrwt>
<pdfrwt beam="1">  1       21 0.25564426E-01 0.45755352E+03</pdfrwt>
<pdfrwt beam="2">  1       21 0.44276159E-01 0.45755352E+03</pdfrwt>
<totfact> 0.65730123E+04</totfact>
</mgrwt>
</event>
<event>
 7    0  0.4737014E-002  0.4561705E+03  0.7546771E-02  0.1025898E+00
         21   -1    0    0  502  501  0.00000000000E+00  0.00000000000E+00  0.33190625164E+03  0.33190625164E+03  0.00000000000E+00 0.  1.
         21   -1    0    0  501  502 -0.00000000000E+00 -0.00000000000E+00 -0.15673969960E+03  0.15673969960E+03  0.00000000000E+00 0.  1.
      99926    2    1    2    0    0  0.00000000000E+00  0.35527136788E-14  0.17516655204E+03  0.48864595124E+03  0.45617052153E+03 0.  0.
      99925    2    3    3    0    0 -0.13411045788E+02  0.86710349027E+01  0.23125985447E+03  0.35062780145E+03  0.26306594584E+03 0.  0.
         25    1    4    4    0    0  0.23358304407E+01 -0.34579539975E+02  0.12443511127E+03  0.17981325231E+03  0.12509000000E+03 0.  0.
         25    1    4    4    0    0 -0.15746876229E+02  0.43250574878E+02  0.10682474320E+03  0.17081454914E+03  0.12509000000E+03 0.  0.
         25    1    3    3    0    0  0.13411045788E+02 -0.86710349027E+01 -0.56093302430E+02  0.13801814980E+03  0.12509000000E+03 0.  0.
<mgrwt>
<rscale>  2 0.45617052E+03</rscale>
<asrwt>0</asrwt>
<pdfrwt beam="1">  1       21 0.48809743E-01 0.45617052E+03</pdfrwt>
<pdfrwt beam="2">  1       21 0.23049956E-01 0.45617052E+03</pdfrwt>
<totfact> 0.65465477E+04</totfact>
</mgrwt>
</event>
<event>
 7    0  0.4737014E-002  0.4463157E+03  0.7546771E-02  0.1028826E+00
         21   -1    0    0  502  501  0.00000000000E+00  0.00000000000E+00  0.20721204693E+03  0.20721204693E+03  0.00000000000E+00 0.  1.
         21   -1    0    0  501  502 -0.00000000000E+00 -0.00000000000E+00 -0.24033072141E+03  0.24033072141E+03  0.00000000000E+00 0.  1.
      99926    2    1    2    0    0  0.71054273576E-14 -0.14210854715E-13 -0.33118674476E+02  0.44754276834E+03  0.44631567628E+03 0.  0.
      99925    2    3    3    0    0 -0.44124683894E+02  0.77417296574E+02  0.34459264547E+02  0.27974911089E+03  0.26292907522E+03 0.  0.
         25    1    4    4    0    0 -0.28218402802E+02  0.45482608470E+02 -0.22212533987E+02  0.13786170859E+03  0.12509000000E+03 0.  0.
         25    1    3    3    0    0  0.44124683894E+02 -0.77417296574E+02 -0.67577939023E+02  0.16779365745E+03  0.12509000000E+03 0.  0.
         25    1    4    4    0    0 -0.15906281093E+02  0.31934688104E+02  0.56671798534E+02  0.14188740230E+03  0.12509000000E+03 0.  0.
<mgrwt>
<rscale>  2 0.44631568E+03</rscale>
<asrwt>0</asrwt>
<pdfrwt beam="1">  1       21 0.30472360E-01 0.44631568E+03</pdfrwt>
<pdfrwt beam="2">  1       21 0.35342753E-01 0.44631568E+03</pdfrwt>
<totfact> 0.74098325E+04</totfact>
</mgrwt>
</event>
<event>
 7    0  0.4737014E-002  0.4530810E+03  0.7546771E-02  0.1026807E+00
         21   -1    0    0  502  501  0.00000000000E+00  0.00000000000E+00  0.58606787249E+03  0.58606787249E+03  0.00000000000E+00 0. -1.
         21   -1    0    0  501  502 -0.00000000000E+00 -0.00000000000E+00 -0.87567673419E+02  0.87567673419E+02  0.00000000000E+00 0. -1.
      99926    2    1    2    0    0  0.00000000000E+00  0.00000000000E+00  0.49850019907E+03  0.67363554591E+03  0.45308100847E+03 0.  0.
      99925    2    3    3    0    0 -0.47818301780E+01 -0.83175661203E+02  0.42408010839E+03  0.50592473972E+03  0.26301111651E+03 0.  0.
         25    1    4    4    0    0  0.22231843347E+02 -0.25213396066E+02  0.15191030192E+03  0.19963521265E+03  0.12509000000E+03 0.  0.
         25    1    4    4    0    0 -0.27013673525E+02 -0.57962265136E+02  0.27216980647E+03  0.30628952707E+03  0.12509000000E+03 0.  0.
         25    1    3    3    0    0  0.47818301780E+01  0.83175661203E+02  0.74420090677E+02  0.16771080619E+03  0.12509000000E+03 0.  0.
<mgrwt>
<rscale>  2 0.45308101E+03</rscale>
<asrwt>0</asrwt>
<pdfrwt beam="1">  1       21 0.86186450E-01 0.45308101E+03</pdfrwt>
<pdfrwt beam="2">  1       21 0.12877599E-01 0.45308101E+03</pdfrwt>
<totfact> 0.55188012E+04</totfact>
</mgrwt>
</event>
<event>
 7    0  0.4737014E-002  0.4666985E+03  0.7546771E-02  0.1022856E+00
         21   -1    0    0  502  501  0.00000000000E+00  0.00000000000E+00  0.59179347489E+03  0.59179347489E+03  0.00000000000E+00 0.  1.
         21   -1    0    0  501  502 -0.00000000000E+00 -0.00000000000E+00 -0.92011603731E+02  0.92011603731E+02  0.00000000000E+00 0.  1.
      99926    2    1    2    0    0  0.00000000000E+00  0.00000000000E+00  0.49978187116E+03  0.68380507862E+03  0.46669847526E+03 0.  0.
      99925    2    3    3    0    0 -0.11773268658E+03  0.32658881563E+02  0.33920371280E+03  0.44640153805E+03  0.26322535281E+03 0.  0.
         25    1    4    4    0    0 -0.33338669169E+02  0.16723582582E+02  0.20923283290E+03  0.24661109370E+03  0.12509000000E+03 0.  0.
         25    1    4    4    0    0 -0.84394017409E+02  0.15935298980E+02  0.12997087990E+03  0.19979044434E+03  0.12509000000E+03 0.  0.
         25    1    3    3    0    0  0.11773268658E+03 -0.32658881563E+02  0.16057815836E+03  0.23740354057E+03  0.12509000000E+03 0.  0.
<mgrwt>
<rscale>  2 0.46669848E+03</rscale>
<asrwt>0</asrwt>
<pdfrwt beam="1">  1       21 0.87028451E-01 0.46669848E+03</pdfrwt>
<pdfrwt beam="2">  1       21 0.13531118E-01 0.46669848E+03</pdfrwt>
<totfact> 0.49106169E+04</totfact>
</mgrwt>
</event>
<event>
 7    0  0.4737014E-002  0.4538681E+03  0.7546771E-02  0.1026575E+00
         21   -1    0    0  502  501  0.00000000000E+00  0.00000000000E+00  0.72275865100E+02  0.72275865100E+02  0.00000000000E+00 0.  1.
         21   -1    0    0  501  502 -0.00000000000E+00 -0.00000000000E+00 -0.71253467436E+03  0.71253467436E+03  0.00000000000E+00 0.  1.
      99926    2    1    2    0    0  0.00000000000E+00  0.35527136788E-14 -0.64025880926E+03  0.78481053946E+03  0.45386808658E+03 0.  0.
      99925    2    3    3    0    0 -0.97304720729E+02  0.16832328106E+02 -0.31366558059E+03  0.42140693318E+03  0.26352641412E+03 0.  0.
         25    1    4    4    0    0 -0.10676357196E+02 -0.11175716507E+01 -0.11280991088E+03  0.16878630769E+03  0.12509000000E+03 0.  0.
         25    1    4    4    0    0 -0.86628363532E+02  0.17949899756E+02 -0.20085566970E+03  0.25262062549E+03  0.12509000000E+03 0.  0.
         25    1    3    3    0    0  0.97304720729E+02 -0.16832328106E+02 -0.32659322867E+03  0.36340360628E+03  0.12509000000E+03 0.  0.
<mgrwt>
<rscale>  2 0.45386809E+03</rscale>
<asrwt>0</asrwt>
<pdfrwt beam="1">  1       21 0.10628803E-01 0.45386809E+03</pdfrwt>
<pdfrwt beam="2">  1       21 0.10478452E+00 0.45386809E+03</pdfrwt>
<totfact> 0.48941674E+04</totfact>
</mgrwt>
</event>
<event>
 7    0  0.4737014E-002  0.4554762E+03  0.7546771E-02  0.1026101E+00
         21   -1    0    0  502  501  0.00000000000E+00  0.00000000000E+00  0.42249121284E+03  0.42249121284E+03  0.00000000000E+00 0. -1.
         21   -1    0    0  501  502 -0.00000000000E+00 -0.00000000000E+00 -0.12275911358E+03  0.12275911358E+03  0.00000000000E+00 0. -1.
      99926    2    1    2    0    0  0.00000000000E+00  0.00000000000E+00  0.29973209925E+03  0.54525032642E+03  0.45547622017E+03 0.  0.
      99925    2    3    3    0    0 -0.14688032319E+02  0.92309973574E+02  0.11106120299E+03  0.30033996586E+03  0.26293085549E+03 0.  0.
         25    1    3    3    0    0  0.14688032319E+02 -0.92309973574E+02  0.18867089626E+03  0.24491036056E+03  0.12509000000E+03 0.  0.
         25    1    4    4    0    0 -0.17345601475E+02  0.32583152832E+02  0.93748837560E+02  0.16062031124E+03  0.12509000000E+03 0.  0.
         25    1    4    4    0    0  0.26575691564E+01  0.59726820742E+02  0.17312365431E+02  0.13971965462E+03  0.12509000000E+03 0.  0.
<mgrwt>
<rscale>  2 0.45547622E+03</rscale>
<asrwt>0</asrwt>
<pdfrwt beam="1">  1       21 0.62131060E-01 0.45547622E+03</pdfrwt>
<pdfrwt beam="2">  1       21 0.18052811E-01 0.45547622E+03</pdfrwt>
<totfact> 0.61947704E+04</totfact>
</mgrwt>
</event>
<event>
 7    0  0.4737014E-002  0.4257831E+03  0.7546771E-02  0.1035200E+00
         21   -1    0    0  502  501  0.00000000000E+00  0.00000000000E+00  0.75344521758E+03  0.75344521758E+03  0.00000000000E+00 0.  1.
         21   -1    0    0  501  502 -0.00000000000E+00 -0.00000000000E+00 -0.60154084657E+02  0.60154084657E+02  0.00000000000E+00 0.  1.
      99926    2    1    2    0    0  0.00000000000E+00  0.00000000000E+00  0.69329113292E+03  0.81359930224E+03  0.42578307812E+03 0.  0.
      99925    2    3    3    0    0 -0.61005047220E+02 -0.34178036964E+02  0.36109354864E+03  0.45180862090E+03  0.26239802792E+03 0.  0.
         25    1    4    4    0    0 -0.18640648565E+02 -0.52353598132E+02  0.20550593875E+03  0.24691814834E+03  0.12509000000E+03 0.  0.
         25    1    4    4    0    0 -0.42364398655E+02  0.18175561167E+02  0.15558760989E+03  0.20489047257E+03  0.12509000000E+03 0.  0.
         25    1    3    3    0    0  0.61005047220E+02  0.34178036964E+02  0.33219758428E+03  0.36179068133E+03  0.12509000000E+03 0.  0.
<mgrwt>
<rscale>  2 0.42578308E+03</rscale>
<asrwt>0</asrwt>
<pdfrwt beam="1">  1       21 0.11080076E+00 0.42578308E+03</pdfrwt>
<pdfrwt beam="2">  1       21 0.88461894E-02 0.42578308E+03</pdfrwt>
<totfact> 0.59660529E+04</totfact>
</mgrwt>
</event>
<event>
 7    0  0.4737014E-002  0.4535842E+03  0.7546771E-02  0.1026659E+00
         21   -1    0    0  502  501  0.00000000000E+00  0.00000000000E+00  0.12055074644E+03  0.12055074644E+03  0.00000000000E+00 0. -1.
         21   -1    0    0  501  502 -0.00000000000E+00 -0.00000000000E+00 -0.42666398616E+03  0.42666398616E+03  0.00000000000E+00 0. -1.
      99926    2    1    2    0    0  0.14210854715E-13  0.00000000000E+00 -0.30611323973E+03  0.54721473260E+03  0.45358422375E+03 0.  0.
      99925    2    3    3    0    0  0.10044598649E+03  0.48296619261E+02 -0.20366143599E+03  0.35083286016E+03  0.26302805102E+03 0.  0.
         25    1    3    3    0    0 -0.10044598649E+03 -0.48296619261E+02 -0.10245180374E+03  0.19638187244E+03  0.12509000000E+03 0.  0.
         25    1    4    4    0    0  0.86949014931E+02  0.22812406542E+02 -0.84569717531E+02  0.17572729530E+03  0.12509000000E+03 0.  0.
         25    1    4    4    0    0  0.13496971562E+02  0.25484212719E+02 -0.11909171846E+03  0.17510556486E+03  0.12509000000E+03 0.  0.
<mgrwt>
<rscale>  2 0.45358422E+03</rscale>
<asrwt>0</asrwt>
<pdfrwt beam="1">  1       21 0.17728051E-01 0.45358422E+03</pdfrwt>
<pdfrwt beam="2">  1       21 0.62744704E-01 0.45358422E+03</pdfrwt>
<totfact> 0.62750943E+04</totfact>
</mgrwt>
</event>
<event>
 7    0  0.4737014E-002  0.4577249E+03  0.7546771E-02  0.1025443E+00
         21   -1    0    0  502  501  0.00000000000E+00  0.00000000000E+00  0.83121654868E+02  0.83121654868E+02  0.00000000000E+00 0.  1.
         21   -1    0    0  501  502 -0.00000000000E+00 -0.00000000000E+00 -0.63013701952E+03  0.63013701952E+03  0.00000000000E+00 0.  1.
      99926    2    1    2    0    0 -0.71054273576E-14  0.00000000000E+00 -0.54701536465E+03  0.71325867438E+03  0.45772494735E+03 0.  0.
      99925    2    3    3    0    0 -0.37338619713E+02 -0.42446477005E+02 -0.50061722272E+03  0.56835811674E+03  0.26309213072E+03 0.  0.
         25    1    4    4    0    0 -0.39630749322E+02 -0.42164602437E+02 -0.32225429175E+03  0.35049077968E+03  0.12509000000E+03 0.  0.
         25    1    3    3    0    0  0.37338619713E+02  0.42446477005E+02 -0.46398141927E+02  0.14490055765E+03  0.12509000000E+03 0.  0.
         25    1    4    4    0    0  0.22921296089E+01 -0.28187456789E+00 -0.17836293097E+03  0.21786733706E+03  0.12509000000E+03 0.  0.
<mgrwt>
<rscale>  2 0.45772495E+03</rscale>
<asrwt>0</asrwt>
<pdfrwt beam="1">  1       21 0.12223773E-01 0.45772495E+03</pdfrwt>
<pdfrwt beam="2">  1       21 0.92667208E-01 0.45772495E+03</pdfrwt>
<totfact> 0.51085061E+04</totfact>
</mgrwt>
</event>
<event>
 7    0  0.4737014E-002  0.4499753E+03  0.7546771E-02  0.1027729E+00
         21   -1    0    0  502  501  0.00000000000E+00  0.00000000000E+00  0.51315542008E+02  0.51315542008E+02  0.00000000000E+00 0. -1.
         21   -1    0    0  501  502 -0.00000000000E+00 -0.00000000000E+00 -0.98643501022E+03  0.98643501022E+03  0.00000000000E+00 0. -1.
      99926    2    1    2    0    0  0.00000000000E+00  0.00000000000E+00 -0.93511946821E+03  0.10377505522E+04  0.44997532023E+03 0.  0.
      99925    2    3    3    0    0  0.58801753627E+02 -0.67246337213E+02 -0.44940970188E+03  0.52829868864E+03  0.26296522238E+03 0.  0.
         25    1    3    3    0    0 -0.58801753627E+02  0.67246337213E+02 -0.48570976633E+03  0.50945186358E+03  0.12509000000E+03 0.  0.
         25    1    4    4    0    0  0.57496951281E+02 -0.65349407823E+01 -0.24432663518E+03  0.28052026240E+03  0.12509000000E+03 0.  0.
         25    1    4    4    0    0  0.13048023468E+01 -0.60711396431E+02 -0.20508306670E+03  0.24777842625E+03  0.12509000000E+03 0.  0.
<mgrwt>
<rscale>  2 0.44997532E+03</rscale>
<asrwt>0</asrwt>
<pdfrwt beam="1">  1       21 0.75464037E-02 0.44997532E+03</pdfrwt>
<pdfrwt beam="2">  1       21 0.14506396E+00 0.44997532E+03</pdfrwt>
<totfact> 0.39247067E+04</totfact>
</mgrwt>
</event>
<event>
 7    0  0.4737014E-002  0.4544460E+03  0.7546771E-02  0.1026404E+00
         21   -1    0    0  502  501  0.00000000000E+00  0.00000000000E+00  0.37426037890E+03  0.37426037890E+03  0.00000000000E+00 0. -1.
         21   -1    0    0  501  502 -0.00000000000E+00 -0.00000000000E+00 -0.13795287030E+03  0.13795287030E+03  0.00000000000E+00 0. -1.
      99926    2    1    2    0    0  0.35527136788E-14  0.00000000000E+00  0.23630750860E+03  0.51221324921E+03  0.45444600784E+03 0.  0.
      99925    2    3    3    0    0 -0.28063020135E+02  0.11200621539E+02  0.26426577022E+02  0.26602124982E+03  0.26297519723E+03 0.  0.
         25    1    4    4    0    0 -0.50306604943E+02  0.30535154934E+01  0.31927787413E+02  0.13858921375E+03  0.12509000000E+03 0.  0.
         25    1    3    3    0    0  0.28063020135E+02 -0.11200621539E+02  0.20988093158E+03  0.24619199939E+03  0.12509000000E+03 0.  0.
         25    1    4    4    0    0  0.22243584808E+02  0.81471060459E+01 -0.55012103910E+01  0.12743203607E+03  0.12509000000E+03 0.  0.
<mgrwt>
<rscale>  2 0.45444601E+03</rscale>
<asrwt>0</asrwt>
<pdfrwt beam="1">  1       21 0.55038291E-01 0.45444601E+03</pdfrwt>
<pdfrwt beam="2">  1       21 0.20287187E-01 0.45444601E+03</pdfrwt>
<totfact> 0.64704877E+04</totfact>
</mgrwt>
</event>
<event>
 7    0  0.4737014E-002  0.4569795E+03  0.7546771E-02  0.1025661E+00
         21   -1    0    0  502  501  0.00000000000E+00  0.00000000000E+00  0.27867326327E+02  0.27867326327E+02  0.00000000000E+00 0.  1.
         21   -1    0    0  501  502 -0.00000000000E+00 -0.00000000000E+00 -0.18734328970E+04  0.18734328970E+04  0.00000000000E+00 0.  1.
      99926    2    1    2    0    0  0.00000000000E+00  0.17763568394E-14 -0.18455655706E+04  0.19013002233E+04  0.45697950016E+03 0.  0.
      99925    2    3    3    0    0  0.52223280116E+02  0.12339944203E+02 -0.73613063524E+03  0.78354670431E+03  0.26301631221E+03 0.  0.
         25    1    4    4    0    0  0.24837071661E+02 -0.10784434020E+02 -0.47284859674E+03  0.48986374400E+03  0.12509000000E+03 0.  0.
         25    1    3    3    0    0 -0.52223280116E+02 -0.12339944203E+02 -0.11094349354E+04  0.11177535190E+04  0.12509000000E+03 0.  0.
         25    1    4    4    0    0  0.27386208455E+02  0.23124378223E+02 -0.26328203850E+03  0.29368296032E+03  0.12509000000E+03 0.  0.
<mgrwt>
<rscale>  2 0.45697950E+03</rscale>
<asrwt>0</asrwt>
<pdfrwt beam="1">  1       21 0.40981373E-02 0.45697950E+03</pdfrwt>
<pdfrwt beam="2">  1       21 0.27550476E+00 0.45697950E+03</pdfrwt>
<totfact> 0.15154694E+04</totfact>
</mgrwt>
</event>
<event>
 7    0  0.4737014E-002  0.4599580E+03  0.7546771E-02  0.1024793E+00
         21   -1    0    0  502  501  0.00000000000E+00  0.00000000000E+00  0.22463722863E+03  0.22463722863E+03  0.00000000000E+00 0.  1.
         21   -1    0    0  501  502 -0.00000000000E+00 -0.00000000000E+00 -0.23544784113E+03  0.23544784113E+03  0.00000000000E+00 0.  1.
      99926    2    1    2    0    0  0.00000000000E+00 -0.35527136788E-14 -0.10810612498E+02  0.46008506976E+03  0.45995804382E+03 0.  0.
      99925    2    3    3    0    0  0.10505794852E+03  0.25854818241E+02  0.40079248980E+02  0.28704481354E+03  0.26283594619E+03 0.  0.
         25    1    3    3    0    0 -0.10505794852E+03 -0.25854818241E+02 -0.50889861478E+02  0.17304025623E+03  0.12509000000E+03 0.  0.
         25    1    4    4    0    0  0.95280656629E+02  0.13665091173E+02  0.29182197559E+02  0.16051245123E+03  0.12509000000E+03 0.  0.
         25    1    4    4    0    0  0.97772918903E+01  0.12189727068E+02  0.10897051421E+02  0.12653236231E+03  0.12509000000E+03 0.  0.
<mgrwt>
<rscale>  2 0.45995804E+03</rscale>
<asrwt>0</asrwt>
<pdfrwt beam="1">  1       21 0.33034887E-01 0.45995804E+03</pdfrwt>
<pdfrwt beam="2">  1       21 0.34624683E-01 0.45995804E+03</pdfrwt>
<totfact> 0.65543344E+04</totfact>
</mgrwt>
</event>
<event>
 7    0  0.4737014E-002  0.4537597E+03  0.7546771E-02  0.1026607E+00
         21   -1    0    0  502  501  0.00000000000E+00  0.00000000000E+00  0.10606019597E+04  0.10606019597E+04  0.00000000000E+00 0. -1.
         21   -1    0    0  501  502 -0.00000000000E+00 -0.00000000000E+00 -0.48533249227E+02  0.48533249227E+02  0.00000000000E+00 0. -1.
      99926    2    1    2    0    0  0.00000000000E+00 -0.71054273576E-14  0.10120687105E+04  0.11091352090E+04  0.45375966874E+03 0.  0.
      99925    2    3    3    0    0  0.73240842909E+02  0.52607638352E+02  0.79994222895E+03  0.84688163518E+03  0.26300028455E+03 0.  0.
         25    1    4    4    0    0  0.11938053635E+02 -0.61132229443E+01  0.40021326799E+03  0.41952122306E+03  0.12509000000E+03 0.  0.
         25    1    4    4    0    0  0.61302789274E+02  0.58720861296E+02  0.39972896095E+03  0.42736041212E+03  0.12509000000E+03 0.  0.
         25    1    3    3    0    0 -0.73240842909E+02 -0.52607638352E+02  0.21212648157E+03  0.26225357379E+03  0.12509000000E+03 0.  0.
<mgrwt>
<rscale>  2 0.45375967E+03</rscale>
<asrwt>0</asrwt>
<pdfrwt beam="1">  1       21 0.15597086E+00 0.45375967E+03</pdfrwt>
<pdfrwt beam="2">  1       21 0.71372432E-02 0.45375967E+03</pdfrwt>
<totfact> 0.35518578E+04</totfact>
</mgrwt>
</event>
<event>
 7    0  0.4737014E-002  0.4588791E+03  0.7546771E-02  0.1025107E+00
         21   -1    0    0  502  501  0.00000000000E+00  0.00000000000E+00  0.10697593466E+04  0.10697593466E+04  0.00000000000E+00 0. -1.
         21   -1    0    0  501  502 -0.00000000000E+00 -0.00000000000E+00 -0.49209663107E+02  0.49209663107E+02  0.00000000000E+00 0. -1.
      99926    2    1    2    0    0 -0.71054273576E-14  0.00000000000E+00  0.10205496834E+04  0.11189690097E+04  0.45887905618E+03 0.  0.
      99925    2    3    3    0    0  0.39093584206E+02 -0.72456758334E+02  0.84174807868E+03  0.88573991173E+03  0.26309137788E+03 0.  0.
         25    1    3    3    0    0 -0.39093584206E+02  0.72456758334E+02  0.17880160477E+03  0.23322909793E+03  0.12509000000E+03 0.  0.
         25    1    4    4    0    0 -0.96919766095E+01 -0.13677038956E+02  0.45395353445E+03  0.47117121660E+03  0.12509000000E+03 0.  0.
         25    1    4    4    0    0  0.48785560816E+02 -0.58779719378E+02  0.38779454422E+03  0.41456869513E+03  0.12509000000E+03 0.  0.
<mgrwt>
<rscale>  2 0.45887906E+03</rscale>
<asrwt>0</asrwt>
<pdfrwt beam="1">  1       21 0.15731754E+00 0.45887906E+03</pdfrwt>
<pdfrwt beam="2">  1       21 0.72367158E-02 0.45887906E+03</pdfrwt>
<totfact> 0.33801593E+04</totfact>
</mgrwt>
</event>
<event>
 7    0  0.4737014E-002  0.4511202E+03  0.7546771E-02  0.1027389E+00
         21   -1    0    0  502  501  0.00000000000E+00  0.00000000000E+00  0.70840797110E+02  0.70840797110E+02  0.00000000000E+00 0.  1.
         21   -1    0    0  501  502 -0.00000000000E+00 -0.00000000000E+00 -0.71819285768E+03  0.71819285768E+03  0.00000000000E+00 0.  1.
      99926    2    1    2    0    0  0.00000000000E+00 -0.88817841970E-15 -0.64735206057E+03  0.78903365479E+03  0.45112018140E+03 0.  0.
      99925    2    3    3    0    0  0.87454963803E+02 -0.56062120430E+01 -0.52418125254E+03  0.59282367452E+03  0.26266732429E+03 0.  0.
         25    1    4    4    0    0  0.15649685883E+02 -0.21184055144E+02 -0.19593667879E+03  0.23394949680E+03  0.12509000000E+03 0.  0.
         25    1    3    3    0    0 -0.87454963803E+02  0.56062120430E+01 -0.12317080803E+03  0.19620998027E+03  0.12509000000E+03 0.  0.
         25    1    4    4    0    0  0.71805277920E+02  0.15577843101E+02 -0.32824457375E+03  0.35887417772E+03  0.12509000000E+03 0.  0.
<mgrwt>
<rscale>  2 0.45112018E+03</rscale>
<asrwt>0</asrwt>
<pdfrwt beam="1">  1       21 0.10417764E-01 0.45112018E+03</pdfrwt>
<pdfrwt beam="2">  1       21 0.10561660E+00 0.45112018E+03</pdfrwt>
<totfact> 0.49799035E+04</totfact>
</mgrwt>
</event>
<event>
 7    0  0.4737014E-002  0.4541972E+03  0.7546771E-02  0.1026478E+00
         21   -1    0    0  502  501  0.00000000000E+00  0.00000000000E+00  0.20765491401E+03  0.20765491401E+03  0.00000000000E+00 0.  1.
         21   -1    0    0  501  502 -0.00000000000E+00 -0.00000000000E+00 -0.24836285186E+03  0.24836285186E+03  0.00000000000E+00 0.  1.
      99926    2    1    2    0    0  0.00000000000E+00  0.14210854715E-13 -0.40707937847E+02  0.45601776588E+03  0.45419716709E+03 0.  0.
      99925    2    3    3    0    0 -0.31140132418E+02 -0.93714590061E+02 -0.79247567896E+02  0.29205147842E+03  0.26317628463E+03 0.  0.
         25    1    4    4    0    0 -0.23248308914E+02 -0.89732906302E+02 -0.44070061170E+02  0.16180901314E+03  0.12509000000E+03 0.  0.
         25    1    4    4    0    0 -0.78918235043E+01 -0.39816837598E+01 -0.35177506725E+02  0.13024246528E+03  0.12509000000E+03 0.  0.
         25    1    3    3    0    0  0.31140132418E+02  0.93714590061E+02  0.38539630049E+02  0.16396628745E+03  0.12509000000E+03 0.  0.
<mgrwt>
<rscale>  2 0.45419717E+03</rscale>
<asrwt>0</asrwt>
<pdfrwt beam="1">  1       21 0.30537488E-01 0.45419717E+03</pdfrwt>
<pdfrwt beam="2">  1       21 0.36523948E-01 0.45419717E+03</pdfrwt>
<totfact> 0.68911673E+04</totfact>
</mgrwt>
</event>
<event>
 7    0  0.4737014E-002  0.4524965E+03  0.7546771E-02  0.1026980E+00
         21   -1    0    0  502  501  0.00000000000E+00  0.00000000000E+00  0.92939628547E+02  0.92939628547E+02  0.00000000000E+00 0.  1.
         21   -1    0    0  501  502 -0.00000000000E+00 -0.00000000000E+00 -0.55076912025E+03  0.55076912025E+03  0.00000000000E+00 0.  1.
      99926    2    1    2    0    0  0.00000000000E+00  0.14210854715E-13 -0.45782949170E+03  0.64370874880E+03  0.45249653016E+03 0.  0.
      99925    2    3    3    0    0 -0.14810616653E+02 -0.90883428965E+02 -0.37642061445E+03  0.46834037815E+03  0.26300395206E+03 0.  0.
         25    1    3    3    0    0  0.14810616653E+02  0.90883428965E+02 -0.81408877256E+02  0.17536837064E+03  0.12509000000E+03 0.  0.
         25    1    4    4    0    0  0.16200945315E+02 -0.10069175560E+02 -0.16985835659E+03  0.21180941511E+03  0.12509000000E+03 0.  0.
         25    1    4    4    0    0 -0.31011561968E+02 -0.80814253405E+02 -0.20656225786E+03  0.25653096304E+03  0.12509000000E+03 0.  0.
<mgrwt>
<rscale>  2 0.45249653E+03</rscale>
<asrwt>0</asrwt>
<pdfrwt beam="1">  1       21 0.13667593E-01 0.45249653E+03</pdfrwt>
<pdfrwt beam="2">  1       21 0.80995458E-01 0.45249653E+03</pdfrwt>
<totfact> 0.57186678E+04</totfact>
</mgrwt>
</event>
<event>
 7    0  0.4737014E-002  0.4282684E+03  0.7546771E-02  0.1034408E+00
         21   -1    0    0  502  501  0.00000000000E+00  0.00000000000E+00  0.20975481065E+03  0.20975481065E+03  0.00000000000E+00 0. -1.
         21   -1    0    0  501  502 -0.00000000000E+00 -0.00000000000E+00 -0.21860504811E+03  0.21860504811E+03  0.00000000000E+00 0. -1.
      99926    2    1    2    0    0  0.00000000000E+00 -0.17763568394E-14 -0.88502374567E+01  0.42835985876E+03  0.42826842272E+03 0.  0.
      99925    2    3    3    0    0 -0.84445746021E+02  0.56686654396E+01  0.75260320047E+01  0.27644242036E+03  0.26305997953E+03 0.  0.
         25    1    4    4    0    0 -0.13784295547E+02 -0.18390315661E+02 -0.18326450665E+02  0.12849738288E+03  0.12509000000E+03 0.  0.
         25    1    3    3    0    0  0.84445746021E+02 -0.56686654396E+01 -0.16376269461E+02  0.15191743840E+03  0.12509000000E+03 0.  0.
         25    1    4    4    0    0 -0.70661450473E+02  0.24058981101E+02  0.25852482669E+02  0.14794503748E+03  0.12509000000E+03 0.  0.
<mgrwt>
<rscale>  2 0.42826842E+03</rscale>
<asrwt>0</asrwt>
<pdfrwt beam="1">  1       21 0.30846296E-01 0.42826842E+03</pdfrwt>
<pdfrwt beam="2">  1       21 0.32147801E-01 0.42826842E+03</pdfrwt>
<totfact> 0.87835053E+04</totfact>
</mgrwt>
</event>
<event>
 7    0  0.4737014E-002  0.4526648E+03  0.7546771E-02  0.1026930E+00
         21   -1    0    0  502  501  0.00000000000E+00  0.00000000000E+00  0.56551626645E+02  0.56551626645E+02  0.00000000000E+00 0.  1.
         21   -1    0    0  501  502 -0.00000000000E+00 -0.00000000000E+00 -0.90583339822E+03  0.90583339822E+03  0.00000000000E+00 0.  1.
      99926    2    1    2    0    0  0.00000000000E+00  0.35527136788E-14 -0.84928177158E+03  0.96238502487E+03  0.45266478608E+03 0.  0.
      99925    2    3    3    0    0 -0.56934311546E+02 -0.22094095577E+02 -0.33830349770E+03  0.43278520485E+03  0.26291464792E+03 0.  0.
         25    1    3    3    0    0  0.56934311546E+02  0.22094095577E+02 -0.51097827388E+03  0.52959982002E+03  0.12509000000E+03 0.  0.
         25    1    4    4    0    0 -0.93400047682E+01 -0.32380207108E+02 -0.21213697533E+03  0.24856652611E+03  0.12509000000E+03 0.  0.
         25    1    4    4    0    0 -0.47594306778E+02  0.10286111532E+02 -0.12616652237E+03  0.18421867874E+03  0.12509000000E+03 0.  0.
<mgrwt>
<rscale>  2 0.45266479E+03</rscale>
<asrwt>0</asrwt>
<pdfrwt beam="1">  1       21 0.83164161E-02 0.45266479E+03</pdfrwt>
<pdfrwt beam="2">  1       21 0.13321079E+00 0.45266479E+03</pdfrwt>
<totfact> 0.41393987E+04</totfact>
</mgrwt>
</event>
<event>
 7    0  0.4737014E-002  0.4566403E+03  0.7546771E-02  0.1025760E+00
         21   -1    0    0  502  501  0.00000000000E+00  0.00000000000E+00  0.83957381810E+03  0.83957381810E+03  0.00000000000E+00 0. -1.
         21   -1    0    0  501  502 -0.00000000000E+00 -0.00000000000E+00 -0.62091132858E+02  0.62091132858E+02  0.00000000000E+00 0. -1.
      99926    2    1    2    0    0  0.00000000000E+00 -0.14210854715E-13  0.77748268524E+03  0.90166495096E+03  0.45664029382E+03 0.  0.
      99925    2    3    3    0    0 -0.75336288720E+02  0.83227332938E+02  0.44591327370E+03  0.52992831285E+03  0.26340657499E+03 0.  0.
         25    1    4    4    0    0 -0.32882937064E+02  0.23723180138E+00  0.22415312599E+03  0.25879234111E+03  0.12509000000E+03 0.  0.
         25    1    4    4    0    0 -0.42453351656E+02  0.82990101136E+02  0.22176014771E+03  0.27113597173E+03  0.12509000000E+03 0.  0.
         25    1    3    3    0    0  0.75336288720E+02 -0.83227332938E+02  0.33156941154E+03  0.37173663811E+03  0.12509000000E+03 0.  0.
<mgrwt>
<rscale>  2 0.45664029E+03</rscale>
<asrwt>0</asrwt>
<pdfrwt beam="1">  1       21 0.12346673E+00 0.45664029E+03</pdfrwt>
<pdfrwt beam="2">  1       21 0.91310494E-02 0.45664029E+03</pdfrwt>
<totfact> 0.42611906E+04</totfact>
</mgrwt>
</event>
<event>
 6    0  0.4737014E-002  0.4740621E+03  0.7546771E-02  0.1020780E+00
         21   -1    0    0  502  501  0.00000000000E+00  0.00000000000E+00  0.11618553221E+03  0.11618553221E+03  0.00000000000E+00 0.  1.
         21   -1    0    0  501  502 -0.00000000000E+00 -0.00000000000E+00 -0.48356903788E+03  0.48356903788E+03  0.00000000000E+00 0.  1.
      99926    2    1    2    0    0  0.00000000000E+00  0.14210854715E-13 -0.36738350567E+03  0.59975457009E+03  0.47406213107E+03 0.  0.
         25    1    3    3    0    0 -0.45840576980E+02 -0.69173379072E+02 -0.12279603366E+03  0.19393991042E+03  0.12509000000E+03 0.  0.
         25    1    3    3    0    0  0.24135519252E+02  0.10587723843E+03 -0.21318381603E+03  0.26997659236E+03  0.12509000000E+03 0.  0.
         25    1    3    3    0    0  0.21705057728E+02 -0.36703859362E+02 -0.31403655980E+02  0.13583806732E+03  0.12509000000E+03 0.  0.
<mgrwt>
<rscale>  2 0.47406213E+03</rscale>
<asrwt>0</asrwt>
<pdfrwt beam="1">  1       21 0.17086108E-01 0.47406213E+03</pdfrwt>
<pdfrwt beam="2">  1       21 0.71113093E-01 0.47406213E+03</pdfrwt>
<totfact> 0.50625665E+04</totfact>
</mgrwt>
</event>
<event>
 7    0  0.4737014E-002  0.4507321E+03  0.7546771E-02  0.1027504E+00
         21   -1    0    0  502  501  0.00000000000E+00  0.00000000000E+00  0.30047052768E+03  0.30047052768E+03  0.00000000000E+00 0. -1.
         21   -1    0    0  501  502 -0.00000000000E+00 -0.00000000000E+00 -0.16903438945E+03  0.16903438945E+03  0.00000000000E+00 0. -1.
      99926    2    1    2    0    0 -0.71054273576E-14  0.00000000000E+00  0.13143613823E+03  0.46950491713E+03  0.45073208092E+03 0.  0.
      99925    2    3    3    0    0  0.60697388254E+02 -0.90503509395E+02  0.90027214788E+02  0.29851583796E+03  0.26292916909E+03 0.  0.
         25    1    4    4    0    0 -0.22814501287E+01 -0.44551693985E+02  0.16588798917E+02  0.13383854004E+03  0.12509000000E+03 0.  0.
         25    1    3    3    0    0 -0.60697388254E+02  0.90503509395E+02  0.41408923443E+02  0.17098907917E+03  0.12509000000E+03 0.  0.
         25    1    4    4    0    0  0.62978838382E+02 -0.45951815410E+02  0.73438415871E+02  0.16467729792E+03  0.12509000000E+03 0.  0.
<mgrwt>
<rscale>  2 0.45073208E+03</rscale>
<asrwt>0</asrwt>
<pdfrwt beam="1">  1       21 0.44186842E-01 0.45073208E+03</pdfrwt>
<pdfrwt beam="2">  1       21 0.24857999E-01 0.45073208E+03</pdfrwt>
<totfact> 0.69806567E+04</totfact>
</mgrwt>
</event>
<event>
 7    0  0.4737014E-002  0.4500903E+03  0.7546771E-02  0.1027695E+00
         21   -1    0    0  502  501  0.00000000000E+00  0.00000000000E+00  0.22320533291E+04  0.22320533291E+04  0.00000000000E+00 0. -1.
         21   -1    0    0  501  502 -0.00000000000E+00 -0.00000000000E+00 -0.22690011460E+02  0.22690011460E+02  0.00000000000E+00 0. -1.
      99926    2    1    2    0    0  0.71054273576E-14 -0.14210854715E-13  0.22093633176E+04  0.22547433405E+04  0.45009028257E+03 0.  0.
      99925    2    3    3    0    0  0.34969935531E+02 -0.73043226069E+02  0.17570704161E+04  0.17785347874E+04  0.26330843779E+03 0.  0.
         25    1    3    3    0    0 -0.34969935531E+02  0.73043226069E+02  0.45229290149E+03  0.47620855317E+03  0.12509000000E+03 0.  0.
         25    1    4    4    0    0  0.46991634931E+02 -0.15571290981E+02  0.74130125891E+03  0.75340941288E+03  0.12509000000E+03 0.  0.
         25    1    4    4    0    0 -0.12021699400E+02 -0.57471935088E+02  0.10157691572E+04  0.10251253745E+04  0.12509000000E+03 0.  0.
<mgrwt>
<rscale>  2 0.45009028E+03</rscale>
<asrwt>0</asrwt>
<pdfrwt beam="1">  1       21 0.32824299E+00 0.45009028E+03</pdfrwt>
<pdfrwt beam="2">  1       21 0.33367679E-02 0.45009028E+03</pdfrwt>
<totfact> 0.10368487E+04</totfact>
</mgrwt>
</event>
<event>
 7    0  0.4737014E-002  0.4595316E+03  0.7546771E-02  0.1024917E+00
         21   -1    0    0  502  501  0.00000000000E+00  0.00000000000E+00  0.39115502026E+03  0.39115502026E+03  0.00000000000E+00 0.  1.
         21   -1    0    0  501  502 -0.00000000000E+00 -0.00000000000E+00 -0.13496522785E+03  0.13496522785E+03  0.00000000000E+00 0.  1.
      99926    2    1    2    0    0  0.44408920985E-15 -0.71054273576E-14  0.25618979241E+03  0.52612024811E+03  0.45953161560E+03 0.  0.
      99925    2    3    3    0    0  0.14255478524E+01 -0.49546155353E+02  0.38382672188E+02  0.27010403101E+03  0.26272819481E+03 0.  0.
         25    1    3    3    0    0 -0.14255478524E+01  0.49546155353E+02  0.21780712022E+03  0.25601621709E+03  0.12509000000E+03 0.  0.
         25    1    4    4    0    0 -0.31641111518E+02 -0.44747190810E+01  0.31630891405E+02  0.13292555977E+03  0.12509000000E+03 0.  0.
         25    1    4    4    0    0  0.33066659370E+02 -0.45071436272E+02  0.67517807825E+01  0.13717847125E+03  0.12509000000E+03 0.  0.
<mgrwt>
<rscale>  2 0.45953162E+03</rscale>
<asrwt>0</asrwt>
<pdfrwt beam="1">  1       21 0.57522797E-01 0.45953162E+03</pdfrwt>
<pdfrwt beam="2">  1       21 0.19847828E-01 0.45953162E+03</pdfrwt>
<totfact> 0.61240102E+04</totfact>
</mgrwt>
</event>
<event>
 7    0  0.4737014E-002  0.4572657E+03  0.7546771E-02  0.1025577E+00
         21   -1    0    0  502  501  0.00000000000E+00  0.00000000000E+00  0.15951714311E+03  0.15951714311E+03  0.00000000000E+00 0. -1.
         21   -1    0    0  501  502 -0.00000000000E+00 -0.00000000000E+00 -0.32769508032E+03  0.32769508032E+03  0.00000000000E+00 0. -1.
      99926    2    1    2    0    0  0.00000000000E+00  0.00000000000E+00 -0.16817793721E+03  0.48721222343E+03  0.45726571279E+03 0.  0.
      99925    2    3    3    0    0  0.54491189785E+02 -0.76415161255E+02 -0.34156075964E+02  0.28125607755E+03  0.26292542099E+03 0.  0.
         25    1    3    3    0    0 -0.54491189785E+02  0.76415161255E+02 -0.13402186125E+03  0.20595614588E+03  0.12509000000E+03 0.  0.
         25    1    4    4    0    0  0.37767543826E+02 -0.55082173418E+01  0.63503175104E+01  0.13093724626E+03  0.12509000000E+03 0.  0.
         25    1    4    4    0    0  0.16723645959E+02 -0.70906943913E+02 -0.40506393474E+02  0.15031883129E+03  0.12509000000E+03 0.  0.
<mgrwt>
<rscale>  2 0.45726571E+03</rscale>
<asrwt>0</asrwt>
<pdfrwt beam="1">  1       21 0.23458404E-01 0.45726571E+03</pdfrwt>
<pdfrwt beam="2">  1       21 0.48190452E-01 0.45726571E+03</pdfrwt>
<totfact> 0.65001708E+04</totfact>
</mgrwt>
</event>
<event>
 7    0  0.4737014E-002  0.4553538E+03  0.7546771E-02  0.1026137E+00
         21   -1    0    0  502  501  0.00000000000E+00  0.00000000000E+00  0.60306780674E+02  0.60306780674E+02  0.00000000000E+00 0.  1.
         21   -1    0    0  501  502 -0.00000000000E+00 -0.00000000000E+00 -0.85955111795E+03  0.85955111795E+03  0.00000000000E+00 0.  1.
      99926    2    1    2    0    0  0.00000000000E+00  0.00000000000E+00 -0.79924433728E+03  0.91985789862E+03  0.45535375588E+03 0.  0.
      99925    2    3    3    0    0 -0.38980294216E+02 -0.10442917851E+03 -0.54518079220E+03  0.61552139129E+03  0.26309612367E+03 0.  0.
         25    1    4    4    0    0 -0.24985022757E+02 -0.93980977166E+02 -0.27772854561E+03  0.31974572488E+03  0.12509000000E+03 0.  0.
         25    1    4    4    0    0 -0.13995271459E+02 -0.10448201340E+02 -0.26745224659E+03  0.29577566641E+03  0.12509000000E+03 0.  0.
         25    1    3    3    0    0  0.38980294216E+02  0.10442917851E+03 -0.25406354508E+03  0.30433650734E+03  0.12509000000E+03 0.  0.
<mgrwt>
<rscale>  2 0.45535376E+03</rscale>
<asrwt>0</asrwt>
<pdfrwt beam="1">  1       21 0.88686439E-02 0.45535376E+03</pdfrwt>
<pdfrwt beam="2">  1       21 0.12640458E+00 0.45535376E+03</pdfrwt>
<totfact> 0.42269058E+04</totfact>
</mgrwt>
</event>
<event>
 7    0  0.4737014E-002  0.4541325E+03  0.7546771E-02  0.1026497E+00
         21   -1    0    0  502  501  0.00000000000E+00  0.00000000000E+00  0.23564757534E+03  0.23564757534E+03  0.00000000000E+00 0.  1.
         21   -1    0    0  501  502 -0.00000000000E+00 -0.00000000000E+00 -0.21879737549E+03  0.21879737549E+03  0.00000000000E+00 0.  1.
      99926    2    1    2    0    0  0.00000000000E+00  0.00000000000E+00  0.16850199854E+02  0.45444495083E+03  0.45413245215E+03 0.  0.
      99925    2    3    3    0    0 -0.25100629766E+02 -0.39623361512E+02 -0.91678242104E+02  0.28232294989E+03  0.26287125284E+03 0.  0.
         25    1    3    3    0    0  0.25100629766E+02  0.39623361512E+02  0.10852844196E+03  0.17212200094E+03  0.12509000000E+03 0.  0.
         25    1    4    4    0    0  0.10189801969E+02  0.75350578509E+00 -0.15791716085E+02  0.12649619058E+03  0.12509000000E+03 0.  0.
         25    1    4    4    0    0 -0.35290431735E+02 -0.40376867297E+02 -0.75886526020E+02  0.15582675931E+03  0.12509000000E+03 0.  0.
<mgrwt>
<rscale>  2 0.45413245E+03</rscale>
<asrwt>0</asrwt>
<pdfrwt beam="1">  1       21 0.34654055E-01 0.45413245E+03</pdfrwt>
<pdfrwt beam="2">  1       21 0.32176085E-01 0.45413245E+03</pdfrwt>
<totfact> 0.69063315E+04</totfact>
</mgrwt>
</event>
<event>
 7    0  0.4737014E-002  0.4462304E+03  0.7546771E-02  0.1028852E+00
         21   -1    0    0  502  501  0.00000000000E+00  0.00000000000E+00  0.11267203841E+03  0.11267203841E+03  0.00000000000E+00 0.  1.
         21   -1    0    0  501  502 -0.00000000000E+00 -0.00000000000E+00 -0.44181672460E+03  0.44181672460E+03  0.00000000000E+00 0.  1.
      99926    2    1    2    0    0  0.00000000000E+00  0.00000000000E+00 -0.32914468619E+03  0.55448876300E+03  0.44623039324E+03 0.  0.
      99925    2    3    3    0    0 -0.62151285135E+02 -0.81168715750E+02 -0.18224199620E+03  0.33613343084E+03  0.26329146489E+03 0.  0.
         25    1    4    4    0    0 -0.11435540121E+02 -0.40967666741E+02 -0.13155903638E+03  0.18645216397E+03  0.12509000000E+03 0.  0.
         25    1    4    4    0    0 -0.50715745014E+02 -0.40201049009E+02 -0.50682959815E+02  0.14968126686E+03  0.12509000000E+03 0.  0.
         25    1    3    3    0    0  0.62151285135E+02  0.81168715750E+02 -0.14690268999E+03  0.21835533217E+03  0.12509000000E+03 0.  0.
<mgrwt>
<rscale>  2 0.44623039E+03</rscale>
<asrwt>0</asrwt>
<pdfrwt beam="1">  1       21 0.16569417E-01 0.44623039E+03</pdfrwt>
<pdfrwt beam="2">  1       21 0.64973048E-01 0.44623039E+03</pdfrwt>
<totfact> 0.66034147E+04</totfact>
</mgrwt>
</event>
<event>
 7    0  0.4737014E-002  0.4578141E+03  0.7546771E-02  0.1025417E+00
         21   -1    0    0  502  501  0.00000000000E+00  0.00000000000E+00  0.79443038670E+02  0.79443038670E+02  0.00000000000E+00 0.  1.
         21   -1    0    0  501  502 -0.00000000000E+00 -0.00000000000E+00 -0.65957251604E+03  0.65957251604E+03  0.00000000000E+00 0.  1.
      99926    2    1    2    0    0  0.71054273576E-14  0.00000000000E+00 -0.58012947737E+03  0.73901555471E+03  0.45781413214E+03 0.  0.
      99925    2    3    3    0    0  0.35650439042E+02  0.16367766472E+01 -0.54189180988E+03  0.60343067297E+03  0.26307453434E+03 0.  0.
         25    1    3    3    0    0 -0.35650439042E+02 -0.16367766472E+01 -0.38237667485E+02  0.13558488174E+03  0.12509000000E+03 0.  0.
         25    1    4    4    0    0 -0.76428428369E+01 -0.31098470499E+02 -0.26484397426E+03  0.29464447512E+03  0.12509000000E+03 0.  0.
         25    1    4    4    0    0  0.43293281879E+02  0.32735247146E+02 -0.27704783562E+03  0.30878619785E+03  0.12509000000E+03 0.  0.
<mgrwt>
<rscale>  2 0.45781413E+03</rscale>
<asrwt>0</asrwt>
<pdfrwt beam="1">  1       21 0.11682800E-01 0.45781413E+03</pdfrwt>
<pdfrwt beam="2">  1       21 0.96995955E-01 0.45781413E+03</pdfrwt>
<totfact> 0.49726034E+04</totfact>
</mgrwt>
</event>
<event>
 7    0  0.4737014E-002  0.4485818E+03  0.7546771E-02  0.1028146E+00
         21   -1    0    0  502  501  0.00000000000E+00  0.00000000000E+00  0.30963231311E+03  0.30963231311E+03  0.00000000000E+00 0.  1.
         21   -1    0    0  501  502 -0.00000000000E+00 -0.00000000000E+00 -0.16247142626E+03  0.16247142626E+03  0.00000000000E+00 0.  1.
      99926    2    1    2    0    0  0.00000000000E+00  0.71054273576E-14  0.14716088686E+03  0.47210373937E+03  0.44858178085E+03 0.  0.
      99925    2    3    3    0    0  0.57820515064E+02 -0.62642711351E+02  0.16037553936E+03  0.32015158773E+03  0.26364636211E+03 0.  0.
         25    1    4    4    0    0  0.37132154578E+02 -0.18600034669E+02  0.12429173090E+03  0.18116484389E+03  0.12509000000E+03 0.  0.
         25    1    4    4    0    0  0.20688360487E+02 -0.44042676682E+02  0.36083808463E+02  0.13898674384E+03  0.12509000000E+03 0.  0.
         25    1    3    3    0    0 -0.57820515064E+02  0.62642711351E+02 -0.13214652502E+02  0.15195215164E+03  0.12509000000E+03 0.  0.
<mgrwt>
<rscale>  2 0.44858178E+03</rscale>
<asrwt>0</asrwt>
<pdfrwt beam="1">  1       21 0.45534164E-01 0.44858178E+03</pdfrwt>
<pdfrwt beam="2">  1       21 0.23892857E-01 0.44858178E+03</pdfrwt>
<totfact> 0.70818582E+04</totfact>
</mgrwt>
</event>
<event>
 7    0  0.4737014E-002  0.4608322E+03  0.7546771E-02  0.1024540E+00
         21   -1    0    0  502  501  0.00000000000E+00  0.00000000000E+00  0.61829581068E+02  0.61829581068E+02  0.00000000000E+00 0. -1.
         21   -1    0    0  501  502 -0.00000000000E+00 -0.00000000000E+00 -0.85867612955E+03  0.85867612955E+03  0.00000000000E+00 0. -1.
      99926    2    1    2    0    0  0.00000000000E+00  0.00000000000E+00 -0.79684654849E+03  0.92050571062E+03  0.46083222701E+03 0.  0.
      99925    2    3    3    0    0 -0.44613779204E+02  0.81590448282E+02 -0.64572052165E+03  0.70340210717E+03  0.26300597283E+03 0.  0.
         25    1    3    3    0    0  0.44613779204E+02 -0.81590448282E+02 -0.15112602684E+03  0.21710360346E+03  0.12509000000E+03 0.  0.
         25    1    4    4    0    0 -0.57303028335E+01  0.49627301271E+02 -0.41336312733E+03  0.43475543532E+03  0.12509000000E+03 0.  0.
         25    1    4    4    0    0 -0.38883476371E+02  0.31963147012E+02 -0.23235739432E+03  0.26864667185E+03  0.12509000000E+03 0.  0.
<mgrwt>
<rscale>  2 0.46083223E+03</rscale>
<asrwt>0</asrwt>
<pdfrwt beam="1">  1       21 0.90925861E-02 0.46083223E+03</pdfrwt>
<pdfrwt beam="2">  1       21 0.12627589E+00 0.46083223E+03</pdfrwt>
<totfact> 0.40479322E+04</totfact>
</mgrwt>
</event>
<event>
 7    0  0.4737014E-002  0.4546810E+03  0.7546771E-02  0.1026335E+00
         21   -1    0    0  502  501  0.00000000000E+00  0.00000000000E+00  0.10250065803E+03  0.10250065803E+03  0.00000000000E+00 0.  1.
         21   -1    0    0  501  502 -0.00000000000E+00 -0.00000000000E+00 -0.50422810332E+03  0.50422810332E+03  0.00000000000E+00 0.  1.
      99926    2    1    2    0    0  0.14210854715E-13  0.00000000000E+00 -0.40172744529E+03  0.60672876135E+03  0.45468104155E+03 0.  0.
      99925    2    3    3    0    0 -0.10578406949E+03  0.39684402666E+02 -0.26124691222E+03  0.38730358174E+03  0.26265756055E+03 0.  0.
         25    1    4    4    0    0 -0.25226270833E+02  0.28086021713E+02 -0.16178622985E+03  0.20796028857E+03  0.12509000000E+03 0.  0.
         25    1    4    4    0    0 -0.80557798662E+02  0.11598380953E+02 -0.99460682371E+02  0.17934329317E+03  0.12509000000E+03 0.  0.
         25    1    3    3    0    0  0.10578406949E+03 -0.39684402666E+02 -0.14048053307E+03  0.21942517961E+03  0.12509000000E+03 0.  0.
<mgrwt>
<rscale>  2 0.45468104E+03</rscale>
<asrwt>0</asrwt>
<pdfrwt beam="1">  1       21 0.15073626E-01 0.45468104E+03</pdfrwt>
<pdfrwt beam="2">  1       21 0.74151193E-01 0.45468104E+03</pdfrwt>
<totfact> 0.58413038E+04</totfact>
</mgrwt>
</event>
<event>
 7    0  0.4737014E-002  0.4546263E+03  0.7546771E-02  0.1026351E+00
         21   -1    0    0  502  501  0.00000000000E+00  0.00000000000E+00  0.12081228276E+03  0.12081228276E+03  0.00000000000E+00 0. -1.
         21   -1    0    0  501  502 -0.00000000000E+00 -0.00000000000E+00 -0.42769885592E+03  0.42769885592E+03  0.00000000000E+00 0. -1.
      99926    2    1    2    0    0  0.00000000000E+00  0.71054273576E-14 -0.30688657316E+03  0.54851113868E+03  0.45462633060E+03 0.  0.
      99925    2    3    3    0    0 -0.57626793903E+02 -0.61128554277E+02 -0.10230789413E+03  0.29442947555E+03  0.26299099481E+03 0.  0.
         25    1    4    4    0    0 -0.43568934378E+02 -0.70137605903E+02 -0.55405356697E+02  0.15979611214E+03  0.12509000000E+03 0.  0.
         25    1    3    3    0    0  0.57626793903E+02  0.61128554277E+02 -0.20457867904E+03  0.25408166313E+03  0.12509000000E+03 0.  0.
         25    1    4    4    0    0 -0.14057859524E+02  0.90090516253E+01 -0.46902537428E+02  0.13463336341E+03  0.12509000000E+03 0.  0.
<mgrwt>
<rscale>  2 0.45462633E+03</rscale>
<asrwt>0</asrwt>
<pdfrwt beam="1">  1       21 0.17766512E-01 0.45462633E+03</pdfrwt>
<pdfrwt beam="2">  1       21 0.62896890E-01 0.45462633E+03</pdfrwt>
<totfact> 0.62148546E+04</totfact>
</mgrwt>
</event>
<event>
 7    0  0.4737014E-002  0.4179975E+03  0.7546771E-02  0.1037720E+00
         21   -1    0    0  502  501  0.00000000000E+00  0.00000000000E+00  0.31369192076E+03  0.31369192076E+03  0.00000000000E+00 0. -1.
         21   -1    0    0  501  502 -0.00000000000E+00 -0.00000000000E+00 -0.13924643365E+03  0.13924643365E+03  0.00000000000E+00 0. -1.
      99926    2    1    2    0    0  0.88817841970E-15  0.00000000000E+00  0.17444548711E+03  0.45293835441E+03  0.41799751784E+03 0.  0.
      99925    2    3    3    0    0  0.67704221589E+01 -0.68557555188E+02  0.87754344017E+02  0.28587896563E+03  0.26321090613E+03 0.  0.
         25    1    4    4    0    0 -0.20032832038E+02 -0.50225775468E+02  0.76182827800E+02  0.15612582820E+03  0.12509000000E+03 0.  0.
         25    1    3    3    0    0 -0.67704221589E+01  0.68557555188E+02  0.86691143093E+02  0.16705938878E+03  0.12509000000E+03 0.  0.
         25    1    4    4    0    0  0.26803254196E+02 -0.18331779720E+02  0.11571516217E+02  0.12975313742E+03  0.12509000000E+03 0.  0.
<mgrwt>
<rscale>  2 0.41799752E+03</rscale>
<asrwt>0</asrwt>
<pdfrwt beam="1">  1       21 0.46131165E-01 0.41799752E+03</pdfrwt>
<pdfrwt beam="2">  1       21 0.20477417E-01 0.41799752E+03</pdfrwt>
<totfact> 0.93242746E+04</totfact>
</mgrwt>
</event>
<event>
 7    0  0.4737014E-002  0.4549714E+03  0.7546771E-02  0.1026250E+00
         21   -1    0    0  502  501  0.00000000000E+00  0.00000000000E+00  0.51867846654E+02  0.51867846654E+02  0.00000000000E+00 0. -1.
         21   -1    0    0  501  502 -0.00000000000E+00 -0.00000000000E+00 -0.99772295075E+03  0.99772295075E+03  0.00000000000E+00 0. -1.
      99926    2    1    2    0    0  0.00000000000E+00  0.00000000000E+00 -0.94585510410E+03  0.10495907974E+04  0.45497138817E+03 0.  0.
      99925    2    3    3    0    0  0.22386665210E+02 -0.32310354569E+02 -0.83985616747E+03  0.88098354828E+03  0.26311310973E+03 0.  0.
         25    1    4    4    0    0  0.47549504365E+01 -0.42164358712E+02 -0.53018055138E+03  0.54638756195E+03  0.12509000000E+03 0.  0.
         25    1    4    4    0    0  0.17631714774E+02  0.98540041433E+01 -0.30967561610E+03  0.33459598633E+03  0.12509000000E+03 0.  0.
         25    1    3    3    0    0 -0.22386665210E+02  0.32310354569E+02 -0.10599893663E+03  0.16860724913E+03  0.12509000000E+03 0.  0.
<mgrwt>
<rscale>  2 0.45497139E+03</rscale>
<asrwt>0</asrwt>
<pdfrwt beam="1">  1       21 0.76276242E-02 0.45497139E+03</pdfrwt>
<pdfrwt beam="2">  1       21 0.14672397E+00 0.45497139E+03</pdfrwt>
<totfact> 0.37300732E+04</totfact>
</mgrwt>
</event>
<event>
 7    0  0.4737014E-002  0.4636887E+03  0.7546771E-02  0.1023717E+00
         21   -1    0    0  502  501  0.00000000000E+00  0.00000000000E+00  0.63440268954E+02  0.63440268954E+02  0.00000000000E+00 0. -1.
         21   -1    0    0  501  502 -0.00000000000E+00 -0.00000000000E+00 -0.84728222662E+03  0.84728222662E+03  0.00000000000E+00 0. -1.
      99926    2    1    2    0    0  0.00000000000E+00  0.14210854715E-13 -0.78384195767E+03  0.91072249558E+03  0.46368874188E+03 0.  0.
      99925    2    3    3    0    0  0.27810873428E+02  0.94622942789E+02 -0.62757320658E+03  0.68757595931E+03  0.26303160307E+03 0.  0.
         25    1    4    4    0    0 -0.20172551893E+02  0.31543101421E+02 -0.25098503525E+03  0.28291853089E+03  0.12509000000E+03 0.  0.
         25    1    3    3    0    0 -0.27810873428E+02 -0.94622942789E+02 -0.15626875109E+03  0.22314653627E+03  0.12509000000E+03 0.  0.
         25    1    4    4    0    0  0.47983425321E+02  0.63079841369E+02 -0.37658817133E+03  0.40465742842E+03  0.12509000000E+03 0.  0.
<mgrwt>
<rscale>  2 0.46368874E+03</rscale>
<asrwt>0</asrwt>
<pdfrwt beam="1">  1       21 0.93294518E-02 0.46368874E+03</pdfrwt>
<pdfrwt beam="2">  1       21 0.12460032E+00 0.46368874E+03</pdfrwt>
<totfact> 0.39983565E+04</totfact>
</mgrwt>
</event>
<event>
 7    0  0.4737014E-002  0.4573004E+03  0.7546771E-02  0.1025567E+00
         21   -1    0    0  502  501  0.00000000000E+00  0.00000000000E+00  0.20760279495E+03  0.20760279495E+03  0.00000000000E+00 0. -1.
         21   -1    0    0  501  502 -0.00000000000E+00 -0.00000000000E+00 -0.25183143176E+03  0.25183143176E+03  0.00000000000E+00 0. -1.
      99926    2    1    2    0    0  0.00000000000E+00  0.00000000000E+00 -0.44228636816E+02  0.45943422671E+03  0.45730037870E+03 0.  0.
      99925    2    3    3    0    0  0.95521480841E+02  0.61886597419E+02 -0.46164553902E+02  0.29030244343E+03  0.26303999388E+03 0.  0.
         25    1    3    3    0    0 -0.95521480841E+02 -0.61886597419E+02  0.19359170863E+01  0.16913178328E+03  0.12509000000E+03 0.  0.
         25    1    4    4    0    0  0.45814565144E+02  0.35671386099E+02  0.17676023662E+02  0.13903730463E+03  0.12509000000E+03 0.  0.
         25    1    4    4    0    0  0.49706915697E+02  0.26215211320E+02 -0.63840577564E+02  0.15126513880E+03  0.12509000000E+03 0.  0.
<mgrwt>
<rscale>  2 0.45730038E+03</rscale>
<asrwt>0</asrwt>
<pdfrwt beam="1">  1       21 0.30529823E-01 0.45730038E+03</pdfrwt>
<pdfrwt beam="2">  1       21 0.37034034E-01 0.45730038E+03</pdfrwt>
<totfact> 0.66984277E+04</totfact>
</mgrwt>
</event>
<event>
 7    0  0.4737014E-002  0.4433155E+03  0.7546771E-02  0.1029734E+00
         21   -1    0    0  502  501  0.00000000000E+00  0.00000000000E+00  0.43454141795E+03  0.43454141795E+03  0.00000000000E+00 0. -1.
         21   -1    0    0  501  502 -0.00000000000E+00 -0.00000000000E+00 -0.11306671154E+03  0.11306671154E+03  0.00000000000E+00 0. -1.
      99926    2    1    2    0    0  0.35527136788E-14  0.00000000000E+00  0.32147470640E+03  0.54760812949E+03  0.44331554972E+03 0.  0.
      99925    2    3    3    0    0 -0.21779918272E+02  0.90338422834E+02  0.25603750997E+03  0.37859650191E+03  0.26295381584E+03 0.  0.
         25    1    4    4    0    0  0.25825011276E+02  0.55732923382E+02  0.14671014626E+03  0.20234738711E+03  0.12509000000E+03 0.  0.
         25    1    4    4    0    0 -0.47604929548E+02  0.34605499451E+02  0.10932736371E+03  0.17624911479E+03  0.12509000000E+03 0.  0.
         25    1    3    3    0    0  0.21779918272E+02 -0.90338422834E+02  0.65437196434E+02  0.16901162758E+03  0.12509000000E+03 0.  0.
<mgrwt>
<rscale>  2 0.44331555E+03</rscale>
<asrwt>0</asrwt>
<pdfrwt beam="1">  1       21 0.63903149E-01 0.44331555E+03</pdfrwt>
<pdfrwt beam="2">  1       21 0.16627458E-01 0.44331555E+03</pdfrwt>
<totfact> 0.68106270E+04</totfact>
</mgrwt>
</event>
<event>
 7    0  0.4737014E-002  0.4532595E+03  0.7546771E-02  0.1026754E+00
         21   -1    0    0  502  501  0.00000000000E+00  0.00000000000E+00  0.39551955180E+02  0.39551955180E+02  0.00000000000E+00 0. -1.
         21   -1    0    0  501  502 -0.00000000000E+00 -0.00000000000E+00 -0.12985715682E+04  0.12985715682E+04  0.00000000000E+00 0. -1.
      99926    2    1    2    0    0  0.00000000000E+00  0.00000000000E+00 -0.12590196130E+04  0.13381235234E+04  0.45325950387E+03 0.  0.
      99925    2    3    3    0    0  0.10665816653E+03 -0.18778233964E+02 -0.71472148005E+03  0.76923289047E+03  0.26299022639E+03 0.  0.
         25    1    4    4    0    0  0.15118970637E+02 -0.23924625969E+02 -0.35698833894E+03  0.37932723767E+03  0.12509000000E+03 0.  0.
         25    1    4    4    0    0  0.91539195891E+02  0.51463920048E+01 -0.35773314112E+03  0.38990565281E+03  0.12509000000E+03 0.  0.
         25    1    3    3    0    0 -0.10665816653E+03  0.18778233964E+02 -0.54429813295E+03  0.56889063289E+03  0.12509000000E+03 0.  0.
<mgrwt>
<rscale>  2 0.45325950E+03</rscale>
<asrwt>0</asrwt>
<pdfrwt beam="1">  1       21 0.58164638E-02 0.45325950E+03</pdfrwt>
<pdfrwt beam="2">  1       21 0.19096641E+00 0.45325950E+03</pdfrwt>
<totfact> 0.28409866E+04</totfact>
</mgrwt>
</event>
<event>
 7    0  0.4737014E-002  0.4553265E+03  0.7546771E-02  0.1026145E+00
         21   -1    0    0  502  501  0.00000000000E+00  0.00000000000E+00  0.83485202019E+03  0.83485202019E+03  0.00000000000E+00 0.  1.
         21   -1    0    0  501  502 -0.00000000000E+00 -0.00000000000E+00 -0.62083521499E+02  0.62083521499E+02  0.00000000000E+00 0.  1.
      99926    2    1    2    0    0  0.00000000000E+00  0.00000000000E+00  0.77276849869E+03  0.89693554169E+03  0.45532649096E+03 0.  0.
      99925    2    3    3    0    0 -0.30897850279E+02 -0.74545311287E+02  0.32491277661E+03  0.42498857805E+03  0.26179247216E+03 0.  0.
         25    1    4    4    0    0 -0.48667379498E+02 -0.54189490133E+02  0.19237126957E+03  0.24074722870E+03  0.12509000000E+03 0.  0.
         25    1    3    3    0    0  0.30897850279E+02  0.74545311287E+02  0.44785572208E+03  0.47194696364E+03  0.12509000000E+03 0.  0.
         25    1    4    4    0    0  0.17769529219E+02 -0.20355821155E+02  0.13254150703E+03  0.18424134935E+03  0.12509000000E+03 0.  0.
<mgrwt>
<rscale>  2 0.45532649E+03</rscale>
<asrwt>0</asrwt>
<pdfrwt beam="1">  1       21 0.12277235E+00 0.45532649E+03</pdfrwt>
<pdfrwt beam="2">  1       21 0.91299301E-02 0.45532649E+03</pdfrwt>
<totfact> 0.43255762E+04</totfact>
</mgrwt>
</event>
<event>
 7    0  0.4737014E-002  0.4586300E+03  0.7546771E-02  0.1025179E+00
         21   -1    0    0  502  501  0.00000000000E+00  0.00000000000E+00  0.12419657544E+04  0.12419657544E+04  0.00000000000E+00 0. -1.
         21   -1    0    0  501  502 -0.00000000000E+00 -0.00000000000E+00 -0.42340434699E+02  0.42340434699E+02  0.00000000000E+00 0. -1.
      99926    2    1    2    0    0  0.00000000000E+00 -0.14210854715E-13  0.11996253197E+04  0.12843061891E+04  0.45863000304E+03 0.  0.
      99925    2    3    3    0    0 -0.57049774237E+02 -0.53500661697E+02  0.50997294877E+03  0.57905098822E+03  0.26288902779E+03 0.  0.
         25    1    4    4    0    0 -0.29346642590E-01 -0.17492038357E+02  0.30003141865E+03  0.32553391919E+03  0.12509000000E+03 0.  0.
         25    1    4    4    0    0 -0.57020427594E+02 -0.36008623340E+02  0.20994153012E+03  0.25351706903E+03  0.12509000000E+03 0.  0.
         25    1    3    3    0    0  0.57049774237E+02  0.53500661697E+02  0.68965237094E+03  0.70525520089E+03  0.12509000000E+03 0.  0.
<mgrwt>
<rscale>  2 0.45863000E+03</rscale>
<asrwt>0</asrwt>
<pdfrwt beam="1">  1       21 0.18264200E+00 0.45863000E+03</pdfrwt>
<pdfrwt beam="2">  1       21 0.62265353E-02 0.45863000E+03</pdfrwt>
<totfact> 0.28753170E+04</totfact>
</mgrwt>
</event>
<event>
 7    0  0.4737014E-002  0.4617827E+03  0.7546771E-02  0.1024265E+00
         21   -1    0    0  502  501  0.00000000000E+00  0.00000000000E+00  0.65484252534E+02  0.65484252534E+02  0.00000000000E+00 0. -1.
         21   -1    0    0  501  502 -0.00000000000E+00 -0.00000000000E+00 -0.81410127806E+03  0.81410127806E+03  0.00000000000E+00 0. -1.
      99926    2    1    2    0    0  0.00000000000E+00  0.00000000000E+00 -0.74861702553E+03  0.87958553059E+03  0.46178269210E+03 0.  0.
      99925    2    3    3    0    0 -0.11233434352E+03 -0.42668039168E+02 -0.46118409622E+03  0.54387022971E+03  0.26203909986E+03 0.  0.
         25    1    4    4    0    0 -0.88181452782E+02 -0.47062677986E+02 -0.23807226712E+03  0.28690900429E+03  0.12509000000E+03 0.  0.
         25    1    3    3    0    0  0.11233434352E+03  0.42668039168E+02 -0.28743292931E+03  0.33571530089E+03  0.12509000000E+03 0.  0.
         25    1    4    4    0    0 -0.24152890735E+02  0.43946388175E+01 -0.22311182910E+03  0.25696122541E+03  0.12509000000E+03 0.  0.
<mgrwt>
<rscale>  2 0.46178269E+03</rscale>
<asrwt>0</asrwt>
<pdfrwt beam="1">  1       21 0.96300376E-02 0.46178269E+03</pdfrwt>
<pdfrwt beam="2">  1       21 0.11972077E+00 0.46178269E+03</pdfrwt>
<totfact> 0.41859765E+04</totfact>
</mgrwt>
</event>
<event>
 7    0  0.4737014E-002  0.4519484E+03  0.7546771E-02  0.1027143E+00
         21   -1    0    0  502  501  0.00000000000E+00  0.00000000000E+00  0.10169016642E+03  0.10169016642E+03  0.00000000000E+00 0. -1.
         21   -1    0    0  501  502 -0.00000000000E+00 -0.00000000000E+00 -0.50215609785E+03  0.50215609785E+03  0.00000000000E+00 0. -1.
      99926    2    1    2    0    0  0.00000000000E+00  0.00000000000E+00 -0.40046593143E+03  0.60384626428E+03  0.45194839157E+03 0.  0.
      99925    2    3    3    0    0  0.36807878839E+02  0.97443999474E+02 -0.20386125118E+03  0.34859920479E+03  0.26289131380E+03 0.  0.
         25    1    3    3    0    0 -0.36807878839E+02 -0.97443999474E+02 -0.19660468025E+03  0.25524705948E+03  0.12509000000E+03 0.  0.
         25    1    4    4    0    0  0.30742425722E+02  0.29653872627E+02 -0.56741342091E+02  0.14384553140E+03  0.12509000000E+03 0.  0.
         25    1    4    4    0    0  0.60654531177E+01  0.67790126847E+02 -0.14711990908E+03  0.20475367339E+03  0.12509000000E+03 0.  0.
<mgrwt>
<rscale>  2 0.45194839E+03</rscale>
<asrwt>0</asrwt>
<pdfrwt beam="1">  1       21 0.14954436E-01 0.45194839E+03</pdfrwt>
<pdfrwt beam="2">  1       21 0.73846485E-01 0.45194839E+03</pdfrwt>
<totfact> 0.59872575E+04</totfact>
</mgrwt>
</event>
<event>
 7    0  0.4737014E-002  0.4554748E+03  0.7546771E-02  0.1026102E+00
         21   -1    0    0  502  501  0.00000000000E+00  0.00000000000E+00  0.67022571324E+02  0.67022571324E+02  0.00000000000E+00 0.  1.
         21   -1    0    0  501  502 -0.00000000000E+00 -0.00000000000E+00 -0.77383379024E+03  0.77383379024E+03  0.00000000000E+00 0.  1.
      99926    2    1    2    0    0  0.00000000000E+00  0.00000000000E+00 -0.70681121891E+03  0.84085636156E+03  0.45547483091E+03 0.  0.
      99925    2    3    3    0    0 -0.72906811206E+02  0.35555701773E+02 -0.29766948457E+03  0.40539789290E+03  0.26298425518E+03 0.  0.
         25    1    4    4    0    0 -0.36883854559E+02  0.58655209779E+02 -0.15584474443E+03  0.21150873464E+03  0.12509000000E+03 0.  0.
         25    1    4    4    0    0 -0.36022956647E+02 -0.23099508006E+02 -0.14182474014E+03  0.19388915826E+03  0.12509000000E+03 0.  0.
         25    1    3    3    0    0  0.72906811206E+02 -0.35555701773E+02 -0.40914173434E+03  0.43545846866E+03  0.12509000000E+03 0.  0.
<mgrwt>
<rscale>  2 0.45547483E+03</rscale>
<asrwt>0</asrwt>
<pdfrwt beam="1">  1       21 0.98562609E-02 0.45547483E+03</pdfrwt>
<pdfrwt beam="2">  1       21 0.11379908E+00 0.45547483E+03</pdfrwt>
<totfact> 0.45680808E+04</totfact>
</mgrwt>
</event>
<event>
 7    0  0.4737014E-002  0.4479238E+03  0.7546771E-02  0.1028343E+00
         21   -1    0    0  502  501  0.00000000000E+00  0.00000000000E+00  0.88499065691E+03  0.88499065691E+03  0.00000000000E+00 0.  1.
         21   -1    0    0  501  502 -0.00000000000E+00 -0.00000000000E+00 -0.56677349495E+02  0.56677349495E+02  0.00000000000E+00 0.  1.
      99926    2    1    2    0    0  0.00000000000E+00  0.00000000000E+00  0.82831330741E+03  0.94166800640E+03  0.44792376477E+03 0.  0.
      99925    2    3    3    0    0 -0.64890939475E+02  0.84009618986E+02  0.53050336055E+03  0.60165812029E+03  0.26323037067E+03 0.  0.
         25    1    4    4    0    0 -0.11632751270E+02  0.12415264831E+02  0.19031818277E+03  0.22838121310E+03  0.12509000000E+03 0.  0.
         25    1    4    4    0    0 -0.53258188204E+02  0.71594354155E+02  0.34018517778E+03  0.37327690719E+03  0.12509000000E+03 0.  0.
         25    1    3    3    0    0  0.64890939475E+02 -0.84009618986E+02  0.29780994686E+03  0.34000988612E+03  0.12509000000E+03 0.  0.
<mgrwt>
<rscale>  2 0.44792376E+03</rscale>
<asrwt>0</asrwt>
<pdfrwt beam="1">  1       21 0.13014568E+00 0.44792376E+03</pdfrwt>
<pdfrwt beam="2">  1       21 0.83349049E-02 0.44792376E+03</pdfrwt>
<totfact> 0.43857223E+04</totfact>
</mgrwt>
</event>
<event>
 7    0  0.4737014E-002  0.4512753E+03  0.7546771E-02  0.1027342E+00
         21   -1    0    0  502  501  0.00000000000E+00  0.00000000000E+00  0.10419447765E+04  0.10419447765E+04  0.00000000000E+00 0.  1.
         21   -1    0    0  501  502 -0.00000000000E+00 -0.00000000000E+00 -0.48862803114E+02  0.48862803114E+02  0.00000000000E+00 0.  1.
      99926    2    1    2    0    0  0.00000000000E+00  0.00000000000E+00  0.99308197337E+03  0.10908075796E+04  0.45127527062E+03 0.  0.
      99925    2    3    3    0    0 -0.40785641841E+02  0.52550043273E+02  0.83738688223E+03  0.88029999035E+03  0.26322292233E+03 0.  0.
         25    1    4    4    0    0  0.72570800914E+01 -0.28952360448E+01  0.34814188569E+03  0.37001530817E+03  0.12509000000E+03 0.  0.
         25    1    3    3    0    0  0.40785641841E+02 -0.52550043273E+02  0.15569509114E+03  0.21050758925E+03  0.12509000000E+03 0.  0.
         25    1    4    4    0    0 -0.48042721932E+02  0.55445279318E+02  0.48924499654E+03  0.51028468218E+03  0.12509000000E+03 0.  0.
<mgrwt>
<rscale>  2 0.45127527E+03</rscale>
<asrwt>0</asrwt>
<pdfrwt beam="1">  1       21 0.15322716E+00 0.45127527E+03</pdfrwt>
<pdfrwt beam="2">  1       21 0.71857070E-02 0.45127527E+03</pdfrwt>
<totfact> 0.36874608E+04</totfact>
</mgrwt>
</event>
<event>
 7    0  0.4737014E-002  0.4567736E+03  0.7546771E-02  0.1025721E+00
         21   -1    0    0  502  501  0.00000000000E+00  0.00000000000E+00  0.85990821662E+02  0.85990821662E+02  0.00000000000E+00 0.  1.
         21   -1    0    0  501  502 -0.00000000000E+00 -0.00000000000E+00 -0.60658263232E+03  0.60658263232E+03  0.00000000000E+00 0.  1.
      99926    2    1    2    0    0  0.71054273576E-14  0.00000000000E+00 -0.52059181066E+03  0.69257345398E+03  0.45677363742E+03 0.  0.
      99925    2    3    3    0    0  0.42948938432E+02  0.10649085701E+03 -0.33351841494E+03  0.43992967824E+03  0.26290430721E+03 0.  0.
         25    1    4    4    0    0  0.59800951509E+01  0.13818378138E+02 -0.12989992383E+03  0.18096465794E+03  0.12509000000E+03 0.  0.
         25    1    4    4    0    0  0.36968843281E+02  0.92672478872E+02 -0.20361849111E+03  0.25896502030E+03  0.12509000000E+03 0.  0.
         25    1    3    3    0    0 -0.42948938432E+02 -0.10649085701E+03 -0.18707339572E+03  0.25264377575E+03  0.12509000000E+03 0.  0.
<mgrwt>
<rscale>  2 0.45677364E+03</rscale>
<asrwt>0</asrwt>
<pdfrwt beam="1">  1       21 0.12645709E-01 0.45677364E+03</pdfrwt>
<pdfrwt beam="2">  1       21 0.89203329E-01 0.45677364E+03</pdfrwt>
<totfact> 0.52570296E+04</totfact>
</mgrwt>
</event>
<event>
 7    0  0.4737014E-002  0.4567081E+03  0.7546771E-02  0.1025740E+00
         21   -1    0    0  502  501  0.00000000000E+00  0.00000000000E+00  0.55191647610E+02  0.55191647610E+02  0.00000000000E+00 0.  1.
         21   -1    0    0  501  502 -0.00000000000E+00 -0.00000000000E+00 -0.94480923055E+03  0.94480923055E+03  0.00000000000E+00 0.  1.
      99926    2    1    2    0    0  0.00000000000E+00  0.71054273576E-14 -0.88961758294E+03  0.10000008782E+04  0.45670812610E+03 0.  0.
      99925    2    3    3    0    0  0.10327227382E+03 -0.40427625106E+02 -0.62354344413E+03  0.68576766723E+03  0.26300439404E+03 0.  0.
         25    1    4    4    0    0  0.68122059511E+02  0.14647925868E+02 -0.28369658156E+03  0.31778362955E+03  0.12509000000E+03 0.  0.
         25    1    3    3    0    0 -0.10327227382E+03  0.40427625106E+02 -0.26607413881E+03  0.31423321093E+03  0.12509000000E+03 0.  0.
         25    1    4    4    0    0  0.35150214306E+02 -0.55075550974E+02 -0.33984686257E+03  0.36798403767E+03  0.12509000000E+03 0.  0.
<mgrwt>
<rscale>  2 0.45670813E+03</rscale>
<asrwt>0</asrwt>
<pdfrwt beam="1">  1       21 0.81164195E-02 0.45670813E+03</pdfrwt>
<pdfrwt beam="2">  1       21 0.13894252E+00 0.45670813E+03</pdfrwt>
<totfact> 0.38648609E+04</totfact>
</mgrwt>
</event>
<event>
 7    0  0.4737014E-002  0.4587755E+03  0.7546771E-02  0.1025137E+00
         21   -1    0    0  502  501  0.00000000000E+00  0.00000000000E+00  0.11712019415E+03  0.11712019415E+03  0.00000000000E+00 0. -1.
         21   -1    0    0  501  502 -0.00000000000E+00 -0.00000000000E+00 -0.44927129492E+03  0.44927129492E+03  0.00000000000E+00 0. -1.
      99926    2    1    2    0    0 -0.35527136788E-14  0.00000000000E+00 -0.33215110077E+03  0.56639148907E+03  0.45877550626E+03 0.  0.
      99925    2    3    3    0    0 -0.25755326030E+02  0.94640463330E+02 -0.13031773245E+03  0.30947833100E+03  0.26300945202E+03 0.  0.
         25    1    4    4    0    0 -0.32196662792E+02  0.85649101058E+02 -0.67098691946E+02  0.16888497911E+03  0.12509000000E+03 0.  0.
         25    1    3    3    0    0  0.25755326030E+02 -0.94640463330E+02 -0.20183336832E+03  0.25691315806E+03  0.12509000000E+03 0.  0.
         25    1    4    4    0    0  0.64413367616E+01  0.89913622716E+01 -0.63219040506E+02  0.14059335190E+03  0.12509000000E+03 0.  0.
<mgrwt>
<rscale>  2 0.45877551E+03</rscale>
<asrwt>0</asrwt>
<pdfrwt beam="1">  1       21 0.17223558E-01 0.45877551E+03</pdfrwt>
<pdfrwt beam="2">  1       21 0.66069308E-01 0.45877551E+03</pdfrwt>
<totfact> 0.59014214E+04</totfact>
</mgrwt>
</event>
<event>
 7    0  0.4737014E-002  0.4515221E+03  0.7546771E-02  0.1027269E+00
         21   -1    0    0  502  501  0.00000000000E+00  0.00000000000E+00  0.88690005286E+02  0.88690005286E+02  0.00000000000E+00 0.  1.
         21   -1    0    0  501  502 -0.00000000000E+00 -0.00000000000E+00 -0.57467629890E+03  0.57467629890E+03  0.00000000000E+00 0.  1.
      99926    2    1    2    0    0  0.00000000000E+00  0.17763568394E-14 -0.48598629361E+03  0.66336630419E+03  0.45152206585E+03 0.  0.
      99925    2    3    3    0    0  0.85850800432E+02 -0.13648629891E+02 -0.20798800413E+03  0.34636914002E+03  0.26297514381E+03 0.  0.
         25    1    4    4    0    0  0.57829180449E+02  0.16737052048E+02 -0.69574178332E+02  0.15528173561E+03  0.12509000000E+03 0.  0.
         25    1    4    4    0    0  0.28021619983E+02 -0.30385681939E+02 -0.13841382580E+03  0.19108740441E+03  0.12509000000E+03 0.  0.
         25    1    3    3    0    0 -0.85850800432E+02  0.13648629891E+02 -0.27799828949E+03  0.31699716417E+03  0.12509000000E+03 0.  0.
<mgrwt>
<rscale>  2 0.45152207E+03</rscale>
<asrwt>0</asrwt>
<pdfrwt beam="1">  1       21 0.13042648E-01 0.45152207E+03</pdfrwt>
<pdfrwt beam="2">  1       21 0.84511220E-01 0.45152207E+03</pdfrwt>
<totfact> 0.56469800E+04</totfact>
</mgrwt>
</event>
<event>
 7    0  0.4737014E-002  0.4535644E+03  0.7546771E-02  0.1026664E+00
         21   -1    0    0  502  501  0.00000000000E+00  0.00000000000E+00  0.10314028920E+04  0.10314028920E+04  0.00000000000E+00 0.  1.
         21   -1    0    0  501  502 -0.00000000000E+00 -0.00000000000E+00 -0.49864278152E+02  0.49864278152E+02  0.00000000000E+00 0.  1.
      99926    2    1    2    0    0  0.00000000000E+00  0.00000000000E+00  0.98153861387E+03  0.10812671702E+04  0.45356437556E+03 0.  0.
      99925    2    3    3    0    0  0.73242368336E+02 -0.65401475427E+01  0.41747692221E+03  0.49884093609E+03  0.26296022683E+03 0.  0.
         25    1    4    4    0    0  0.22860984873E+02  0.13390030241E+02  0.26549001873E+03  0.29467673081E+03  0.12509000000E+03 0.  0.
         25    1    4    4    0    0  0.50381383464E+02 -0.19930177784E+02  0.15198690348E+03  0.20416420528E+03  0.12509000000E+03 0.  0.
         25    1    3    3    0    0 -0.73242368336E+02  0.65401475427E+01  0.56406169167E+03  0.58242623409E+03  0.12509000000E+03 0.  0.
<mgrwt>
<rscale>  2 0.45356438E+03</rscale>
<asrwt>0</asrwt>
<pdfrwt beam="1">  1       21 0.15167688E+00 0.45356438E+03</pdfrwt>
<pdfrwt beam="2">  1       21 0.73329827E-02 0.45356438E+03</pdfrwt>
<totfact> 0.36558396E+04</totfact>
</mgrwt>
</event>
<event>
 7    0  0.4737014E-002  0.4310508E+03  0.7546771E-02  0.1033529E+00
         21   -1    0    0  502  501  0.00000000000E+00  0.00000000000E+00  0.56999420200E+02  0.56999420200E+02  0.00000000000E+00 0. -1.
         21   -1    0    0  501  502 -0.00000000000E+00 -0.00000000000E+00 -0.81494152634E+03  0.81494152634E+03  0.00000000000E+00 0. -1.
      99926    2    1    2    0    0  0.35527136788E-14  0.00000000000E+00 -0.75794210614E+03  0.87194094654E+03  0.43105078354E+03 0.  0.
      99925    2    3    3    0    0  0.31756489851E+02 -0.81362774834E+02 -0.52129706029E+03  0.59037965374E+03  0.26300025610E+03 0.  0.
         25    1    3    3    0    0 -0.31756489851E+02  0.81362774834E+02 -0.23664504585E+03  0.28156129280E+03  0.12509000000E+03 0.  0.
         25    1    4    4    0    0  0.45541489627E+02 -0.40248856269E+02 -0.20748168804E+03  0.24978021675E+03  0.12509000000E+03 0.  0.
         25    1    4    4    0    0 -0.13784999777E+02 -0.41113918565E+02 -0.31381537225E+03  0.34059943700E+03  0.12509000000E+03 0.  0.
<mgrwt>
<rscale>  2 0.43105078E+03</rscale>
<asrwt>0</asrwt>
<pdfrwt beam="1">  1       21 0.83822676E-02 0.43105078E+03</pdfrwt>
<pdfrwt beam="2">  1       21 0.11984434E+00 0.43105078E+03</pdfrwt>
<totfact> 0.53886015E+04</totfact>
</mgrwt>
</event>
<event>
 7    0  0.4737014E-002  0.4471583E+03  0.7546771E-02  0.1028573E+00
         21   -1    0    0  502  501  0.00000000000E+00  0.00000000000E+00  0.18645131590E+03  0.18645131590E+03  0.00000000000E+00 0.  1.
         21   -1    0    0  501  502 -0.00000000000E+00 -0.00000000000E+00 -0.26810019255E+03  0.26810019255E+03  0.00000000000E+00 0.  1.
      99926    2    1    2    0    0  0.00000000000E+00 -0.35527136788E-14 -0.81648876657E+02  0.45455150845E+03  0.44715828828E+03 0.  0.
      99925    2    3    3    0    0  0.81892862547E+02 -0.21238287937E+02  0.12445283837E+02  0.27662251995E+03  0.26307342633E+03 0.  0.
         25    1    4    4    0    0  0.68772156647E+02  0.15651284134E+02  0.21643495626E+02  0.14522575952E+03  0.12509000000E+03 0.  0.
         25    1    4    4    0    0  0.13120705900E+02 -0.36889572072E+02 -0.91982117892E+01  0.13139676043E+03  0.12509000000E+03 0.  0.
         25    1    3    3    0    0 -0.81892862547E+02  0.21238287937E+02 -0.94094160493E+02  0.17792898850E+03  0.12509000000E+03 0.  0.
<mgrwt>
<rscale>  2 0.44715829E+03</rscale>
<asrwt>0</asrwt>
<pdfrwt beam="1">  1       21 0.27419311E-01 0.44715829E+03</pdfrwt>
<pdfrwt beam="2">  1       21 0.39426499E-01 0.44715829E+03</pdfrwt>
<totfact> 0.73040835E+04</totfact>
</mgrwt>
</event>
<event>
 7    0  0.4737014E-002  0.4567708E+03  0.7546771E-02  0.1025722E+00
         21   -1    0    0  502  501  0.00000000000E+00  0.00000000000E+00  0.51234086161E+03  0.51234086161E+03  0.00000000000E+00 0. -1.
         21   -1    0    0  501  502 -0.00000000000E+00 -0.00000000000E+00 -0.10180701103E+03  0.10180701103E+03  0.00000000000E+00 0. -1.
      99926    2    1    2    0    0 -0.71054273576E-14  0.00000000000E+00  0.41053385058E+03  0.61414787264E+03  0.45677080357E+03 0.  0.
      99925    2    3    3    0    0  0.35134672086E+02  0.41519679764E+02  0.39464158920E+03  0.47682197901E+03  0.26202840829E+03 0.  0.
         25    1    3    3    0    0 -0.35134672086E+02 -0.41519679764E+02  0.15892261386E+02  0.13732589363E+03  0.12509000000E+03 0.  0.
         25    1    4    4    0    0  0.36009680048E+02 -0.84377665302E+01  0.16189117574E+03  0.20790419391E+03  0.12509000000E+03 0.  0.
         25    1    4    4    0    0 -0.87500796247E+00  0.49957446294E+02  0.23275041345E+03  0.26891778510E+03  0.12509000000E+03 0.  0.
<mgrwt>
<rscale>  2 0.45677080E+03</rscale>
<asrwt>0</asrwt>
<pdfrwt beam="1">  1       21 0.75344243E-01 0.45677080E+03</pdfrwt>
<pdfrwt beam="2">  1       21 0.14971620E-01 0.45677080E+03</pdfrwt>
<totfact> 0.57014189E+04</totfact>
</mgrwt>
</event>
<event>
 7    0  0.4737014E-002  0.4507156E+03  0.7546771E-02  0.1027509E+00
         21   -1    0    0  502  501  0.00000000000E+00  0.00000000000E+00  0.21362545257E+03  0.21362545257E+03  0.00000000000E+00 0. -1.
         21   -1    0    0  501  502 -0.00000000000E+00 -0.00000000000E+00 -0.23773452339E+03  0.23773452339E+03  0.00000000000E+00 0. -1.
      99926    2    1    2    0    0  0.14210854715E-13 -0.88817841970E-15 -0.24109070817E+02  0.45135997597E+03  0.45071563164E+03 0.  0.
      99925    2    3    3    0    0 -0.93207710150E+02  0.22653885749E+01  0.40281713657E+02  0.28258056240E+03  0.26369745652E+03 0.  0.
         25    1    4    4    0    0 -0.86075114632E+02 -0.78657721861E+01  0.38587025751E+02  0.15686702135E+03  0.12509000000E+03 0.  0.
         25    1    3    3    0    0  0.93207710150E+02 -0.22653885749E+01 -0.64390784474E+02  0.16877941356E+03  0.12509000000E+03 0.  0.
         25    1    4    4    0    0 -0.71325955182E+01  0.10131160761E+02  0.16946879056E+01  0.12571354105E+03  0.12509000000E+03 0.  0.
<mgrwt>
<rscale>  2 0.45071563E+03</rscale>
<asrwt>0</asrwt>
<pdfrwt beam="1">  1       21 0.31415508E-01 0.45071563E+03</pdfrwt>
<pdfrwt beam="2">  1       21 0.34960959E-01 0.45071563E+03</pdfrwt>
<totfact> 0.71216854E+04</totfact>
</mgrwt>
</event>
<event>
 7    0  0.4737014E-002  0.4543763E+03  0.7546771E-02  0.1026425E+00
         21   -1    0    0  502  501  0.00000000000E+00  0.00000000000E+00  0.32729108311E+03  0.32729108311E+03  0.00000000000E+00 0.  1.
         21   -1    0    0  501  502 -0.00000000000E+00 -0.00000000000E+00 -0.15770198938E+03  0.15770198938E+03  0.00000000000E+00 0.  1.
      99926    2    1    2    0    0  0.35527136788E-14  0.14210854715E-13  0.16958909372E+03  0.48499307249E+03  0.45437629742E+03 0.  0.
      99925    2    3    3    0    0 -0.27924199521E+02 -0.10896642435E+03  0.11196902357E+03  0.30717006178E+03  0.26298848275E+03 0.  0.
         25    1    3    3    0    0  0.27924199521E+02  0.10896642435E+03  0.57620070150E+02  0.17782301071E+03  0.12509000000E+03 0.  0.
         25    1    4    4    0    0  0.26678210601E+02 -0.49699731375E+02  0.55322678724E+02  0.14795234740E+03  0.12509000000E+03 0.  0.
         25    1    4    4    0    0 -0.54602410122E+02 -0.59266692977E+02  0.56646344850E+02  0.15921771438E+03  0.12509000000E+03 0.  0.
<mgrwt>
<rscale>  2 0.45437630E+03</rscale>
<asrwt>0</asrwt>
<pdfrwt beam="1">  1       21 0.48131042E-01 0.45437630E+03</pdfrwt>
<pdfrwt beam="2">  1       21 0.23191469E-01 0.45437630E+03</pdfrwt>
<totfact> 0.66667877E+04</totfact>
</mgrwt>
</event>
<event>
 7    0  0.4737014E-002  0.4542970E+03  0.7546771E-02  0.1026448E+00
         21   -1    0    0  502  501  0.00000000000E+00  0.00000000000E+00  0.97933497239E+03  0.97933497239E+03  0.00000000000E+00 0.  1.
         21   -1    0    0  501  502 -0.00000000000E+00 -0.00000000000E+00 -0.52685190099E+02  0.52685190099E+02  0.00000000000E+00 0.  1.
      99926    2    1    2    0    0  0.00000000000E+00  0.00000000000E+00  0.92664978229E+03  0.10320201625E+04  0.45429703583E+03 0.  0.
      99925    2    3    3    0    0 -0.69170736738E+02 -0.44287413624E+02  0.40898229868E+03  0.49315738077E+03  0.26304318230E+03 0.  0.
         25    1    3    3    0    0  0.69170736738E+02  0.44287413624E+02  0.51766748361E+03  0.53886278171E+03  0.12509000000E+03 0.  0.
         25    1    4    4    0    0 -0.93888447650E+01 -0.42889602616E+02  0.24367319908E+03  0.27740188260E+03  0.12509000000E+03 0.  0.
         25    1    4    4    0    0 -0.59781891973E+02 -0.13978110084E+01  0.16530909959E+03  0.21575549817E+03  0.12509000000E+03 0.  0.
<mgrwt>
<rscale>  2 0.45429704E+03</rscale>
<asrwt>0</asrwt>
<pdfrwt beam="1">  1       21 0.14401984E+00 0.45429704E+03</pdfrwt>
<pdfrwt beam="2">  1       21 0.77478227E-02 0.45429704E+03</pdfrwt>
<totfact> 0.38153078E+04</totfact>
</mgrwt>
</event>
<event>
 7    0  0.4737014E-002  0.4683589E+03  0.7546771E-02  0.1022384E+00
         21   -1    0    0  502  501  0.00000000000E+00  0.00000000000E+00  0.17730852104E+03  0.17730852104E+03  0.00000000000E+00 0.  1.
         21   -1    0    0  501  502 -0.00000000000E+00 -0.00000000000E+00 -0.30929144671E+03  0.30929144671E+03  0.00000000000E+00 0.  1.
      99926    2    1    2    0    0  0.00000000000E+00  0.00000000000E+00 -0.13198292567E+03  0.48659996775E+03  0.46835887516E+03 0.  0.
      99925    2    3    3    0    0  0.82316063016E+02  0.83240654964E+02 -0.35288770213E+02  0.28987119845E+03  0.26282137189E+03 0.  0.
         25    1    4    4    0    0 -0.40870598325E+00  0.40529529404E+02 -0.96715690774E+01  0.13184785604E+03  0.12509000000E+03 0.  0.
         25    1    4    4    0    0  0.82724769000E+02  0.42711125560E+02 -0.25617201136E+02  0.15802334241E+03  0.12509000000E+03 0.  0.
         25    1    3    3    0    0 -0.82316063016E+02 -0.83240654964E+02 -0.96694155462E+02  0.19672876930E+03  0.12509000000E+03 0.  0.
<mgrwt>
<rscale>  2 0.46835888E+03</rscale>
<asrwt>0</asrwt>
<pdfrwt beam="1">  1       21 0.26074783E-01 0.46835888E+03</pdfrwt>
<pdfrwt beam="2">  1       21 0.45484035E-01 0.46835888E+03</pdfrwt>
<totfact> 0.59643440E+04</totfact>
</mgrwt>
</event>
<event>
 7    0  0.4737014E-002  0.4552885E+03  0.7546771E-02  0.1026157E+00
         21   -1    0    0  502  501  0.00000000000E+00  0.00000000000E+00  0.78369346263E+03  0.78369346263E+03  0.00000000000E+00 0.  1.
         21   -1    0    0  501  502 -0.00000000000E+00 -0.00000000000E+00 -0.66125211781E+02  0.66125211781E+02  0.00000000000E+00 0.  1.
      99926    2    1    2    0    0  0.00000000000E+00  0.00000000000E+00  0.71756825085E+03  0.84981867441E+03  0.45528846323E+03 0.  0.
      99925    2    3    3    0    0  0.74335363584E+02 -0.26249344024E+02  0.60340615792E+03  0.66301592844E+03  0.26320401898E+03 0.  0.
         25    1    4    4    0    0  0.33665001602E+02 -0.53331794382E+02  0.32530309350E+03  0.35418529524E+03  0.12509000000E+03 0.  0.
         25    1    4    4    0    0  0.40670361983E+02  0.27082450358E+02  0.27810306442E+03  0.30883063320E+03  0.12509000000E+03 0.  0.
         25    1    3    3    0    0 -0.74335363584E+02  0.26249344024E+02  0.11416209293E+03  0.18680274597E+03  0.12509000000E+03 0.  0.
<mgrwt>
<rscale>  2 0.45528846E+03</rscale>
<asrwt>0</asrwt>
<pdfrwt beam="1">  1       21 0.11524903E+00 0.45528846E+03</pdfrwt>
<pdfrwt beam="2">  1       21 0.97242963E-02 0.45528846E+03</pdfrwt>
<totfact> 0.45344794E+04</totfact>
</mgrwt>
</event>
<event>
 7    0  0.4737014E-002  0.4500292E+03  0.7546771E-02  0.1027713E+00
         21   -1    0    0  502  501  0.00000000000E+00  0.00000000000E+00  0.25939255512E+03  0.25939255512E+03  0.00000000000E+00 0. -1.
         21   -1    0    0  501  502 -0.00000000000E+00 -0.00000000000E+00 -0.19519281874E+03  0.19519281874E+03  0.00000000000E+00 0. -1.
      99926    2    1    2    0    0  0.00000000000E+00  0.00000000000E+00  0.64199736378E+02  0.45458537387E+03  0.45002917237E+03 0.  0.
      99925    2    3    3    0    0  0.25048893473E+02  0.79737023160E+02  0.11087473054E+03  0.29706869822E+03  0.26262361978E+03 0.  0.
         25    1    4    4    0    0 -0.18860651367E+01  0.19427662660E+02  0.18072976098E+02  0.12788718420E+03  0.12509000000E+03 0.  0.
         25    1    3    3    0    0 -0.25048893473E+02 -0.79737023160E+02 -0.46674994158E+02  0.15751667565E+03  0.12509000000E+03 0.  0.
         25    1    4    4    0    0  0.26934958610E+02  0.60309360500E+02  0.92801754438E+02  0.16918151402E+03  0.12509000000E+03 0.  0.
<mgrwt>
<rscale>  2 0.45002917E+03</rscale>
<asrwt>0</asrwt>
<pdfrwt beam="1">  1       21 0.38145964E-01 0.45002917E+03</pdfrwt>
<pdfrwt beam="2">  1       21 0.28704827E-01 0.45002917E+03</pdfrwt>
<totfact> 0.71364258E+04</totfact>
</mgrwt>
</event>
<event>
 7    0  0.4737014E-002  0.4571857E+03  0.7546771E-02  0.1025601E+00
         21   -1    0    0  502  501  0.00000000000E+00  0.00000000000E+00  0.25113134557E+03  0.25113134557E+03  0.00000000000E+00 0. -1.
         21   -1    0    0  501  502 -0.00000000000E+00 -0.00000000000E+00 -0.20807712318E+03  0.20807712318E+03  0.00000000000E+00 0. -1.
      99926    2    1    2    0    0  0.00000000000E+00 -0.71054273576E-14  0.43054222383E+02  0.45920846875E+03  0.45718568625E+03 0.  0.
      99925    2    3    3    0    0  0.50188091108E+02 -0.54083836254E+02 -0.61773767362E+02  0.28009866621E+03  0.26305010672E+03 0.  0.
         25    1    4    4    0    0 -0.94025847470E+01 -0.40876182143E+02 -0.47316737819E+02  0.14016295033E+03  0.12509000000E+03 0.  0.
         25    1    4    4    0    0  0.59590675855E+02 -0.13207654111E+02 -0.14457029543E+02  0.13993571588E+03  0.12509000000E+03 0.  0.
         25    1    3    3    0    0 -0.50188091108E+02  0.54083836254E+02  0.10482798975E+03  0.17910980254E+03  0.12509000000E+03 0.  0.
<mgrwt>
<rscale>  2 0.45718569E+03</rscale>
<asrwt>0</asrwt>
<pdfrwt beam="1">  1       21 0.36931081E-01 0.45718569E+03</pdfrwt>
<pdfrwt beam="2">  1       21 0.30599577E-01 0.45718569E+03</pdfrwt>
<totfact> 0.67061466E+04</totfact>
</mgrwt>
</event>
<event>
 7    0  0.4737014E-002  0.4156809E+03  0.7546771E-02  0.1038481E+00
         21   -1    0    0  502  501  0.00000000000E+00  0.00000000000E+00  0.12917447175E+04  0.12917447175E+04  0.00000000000E+00 0.  1.
         21   -1    0    0  501  502 -0.00000000000E+00 -0.00000000000E+00 -0.33441319929E+02  0.33441319929E+02  0.00000000000E+00 0.  1.
      99926    2    1    2    0    0 -0.12767564783E-14  0.71054273576E-14  0.12583033976E+04  0.13251860374E+04  0.41568087935E+03 0.  0.
      99925    2    3    3    0    0  0.31009168954E+00 -0.62626237390E+02  0.72288419665E+03  0.77179343667E+03  0.26302358325E+03 0.  0.
         25    1    4    4    0    0 -0.29093145097E+02 -0.44067466459E+02  0.44136583290E+03  0.46177879904E+03  0.12509000000E+03 0.  0.
         25    1    4    4    0    0  0.29403236786E+02 -0.18558770930E+02  0.28151836376E+03  0.31001463763E+03  0.12509000000E+03 0.  0.
         25    1    3    3    0    0 -0.31009168954E+00  0.62626237390E+02  0.53541920090E+03  0.55339260074E+03  0.12509000000E+03 0.  0.
<mgrwt>
<rscale>  2 0.41568088E+03</rscale>
<asrwt>0</asrwt>
<pdfrwt beam="1">  1       21 0.18996243E+00 0.41568088E+03</pdfrwt>
<pdfrwt beam="2">  1       21 0.49178420E-02 0.41568088E+03</pdfrwt>
<totfact> 0.39029704E+04</totfact>
</mgrwt>
</event>
<event>
 7    0  0.4737014E-002  0.4537345E+03  0.7546771E-02  0.1026614E+00
         21   -1    0    0  502  501  0.00000000000E+00  0.00000000000E+00  0.34047698477E+03  0.34047698477E+03  0.00000000000E+00 0.  1.
         21   -1    0    0  501  502 -0.00000000000E+00 -0.00000000000E+00 -0.15116663263E+03  0.15116663263E+03  0.00000000000E+00 0.  1.
      99926    2    1    2    0    0  0.00000000000E+00  0.35527136788E-14  0.18931035214E+03  0.49164361740E+03  0.45373454476E+03 0.  0.
      99925    2    3    3    0    0  0.10124634547E+03  0.24943740784E+02  0.74841759847E+02  0.29258689333E+03  0.26293114775E+03 0.  0.
         25    1    4    4    0    0  0.39845709920E+02  0.46698875644E+02  0.17881205608E+02  0.14048384676E+03  0.12509000000E+03 0.  0.
         25    1    3    3    0    0 -0.10124634547E+03 -0.24943740784E+02  0.11446859229E+03  0.19905672407E+03  0.12509000000E+03 0.  0.
         25    1    4    4    0    0  0.61400635554E+02 -0.21755134860E+02  0.56960554239E+02  0.15210304658E+03  0.12509000000E+03 0.  0.
<mgrwt>
<rscale>  2 0.45373454E+03</rscale>
<asrwt>0</asrwt>
<pdfrwt beam="1">  1       21 0.50070145E-01 0.45373454E+03</pdfrwt>
<pdfrwt beam="2">  1       21 0.22230387E-01 0.45373454E+03</pdfrwt>
<totfact> 0.66527627E+04</totfact>
</mgrwt>
</event>
<event>
 7    0  0.4737014E-002  0.4169533E+03  0.7546771E-02  0.1038062E+00
         21   -1    0    0  502  501  0.00000000000E+00  0.00000000000E+00  0.39123883269E+03  0.39123883269E+03  0.00000000000E+00 0. -1.
         21   -1    0    0  501  502 -0.00000000000E+00 -0.00000000000E+00 -0.11108945134E+03  0.11108945134E+03  0.00000000000E+00 0. -1.
      99926    2    1    2    0    0 -0.71054273576E-14  0.00000000000E+00  0.28014938135E+03  0.50232828403E+03  0.41695326965E+03 0.  0.
      99925    2    3    3    0    0  0.43950599626E+02  0.36248969807E+02  0.23624961993E+03  0.35803573339E+03  0.26292596000E+03 0.  0.
         25    1    4    4    0    0  0.12390339887E+01  0.47302249401E+02  0.14364105315E+03  0.19626333904E+03  0.12509000000E+03 0.  0.
         25    1    3    3    0    0 -0.43950599626E+02 -0.36248969807E+02  0.43899761411E+02  0.14429255064E+03  0.12509000000E+03 0.  0.
         25    1    4    4    0    0  0.42711565637E+02 -0.11053279595E+02  0.92608566789E+02  0.16177239434E+03  0.12509000000E+03 0.  0.
<mgrwt>
<rscale>  2 0.41695327E+03</rscale>
<asrwt>0</asrwt>
<pdfrwt beam="1">  1       21 0.57535122E-01 0.41695327E+03</pdfrwt>
<pdfrwt beam="2">  1       21 0.16336684E-01 0.41695327E+03</pdfrwt>
<totfact> 0.89098669E+04</totfact>
</mgrwt>
</event>
<event>
 7    0  0.4737014E-002  0.4562177E+03  0.7546771E-02  0.1025884E+00
         21   -1    0    0  502  501  0.00000000000E+00  0.00000000000E+00  0.18523687278E+03  0.18523687278E+03  0.00000000000E+00 0.  1.
         21   -1    0    0  501  502 -0.00000000000E+00 -0.00000000000E+00 -0.28090324832E+03  0.28090324832E+03  0.00000000000E+00 0.  1.
      99926    2    1    2    0    0  0.00000000000E+00  0.00000000000E+00 -0.95666375539E+02  0.46614012110E+03  0.45621766416E+03 0.  0.
      99925    2    3    3    0    0 -0.44381108857E+02  0.67560358842E+02  0.22335719101E+02  0.27612410244E+03  0.26308088241E+03 0.  0.
         25    1    3    3    0    0  0.44381108857E+02 -0.67560358842E+02 -0.11800209464E+03  0.19001601867E+03  0.12509000000E+03 0.  0.
         25    1    4    4    0    0 -0.22710679761E+02  0.48652699018E+02 -0.26704973114E+02  0.13872102864E+03  0.12509000000E+03 0.  0.
         25    1    4    4    0    0 -0.21670429096E+02  0.18907659824E+02  0.49040692215E+02  0.13740307380E+03  0.12509000000E+03 0.  0.
<mgrwt>
<rscale>  2 0.45621766E+03</rscale>
<asrwt>0</asrwt>
<pdfrwt beam="1">  1       21 0.27240717E-01 0.45621766E+03</pdfrwt>
<pdfrwt beam="2">  1       21 0.41309301E-01 0.45621766E+03</pdfrwt>
<totfact> 0.67074167E+04</totfact>
</mgrwt>
</event>
<event>
 7    0  0.4737014E-002  0.4665094E+03  0.7546771E-02  0.1022910E+00
         21   -1    0    0  502  501  0.00000000000E+00  0.00000000000E+00  0.31561692715E+03  0.31561692715E+03  0.00000000000E+00 0. -1.
         21   -1    0    0  501  502 -0.00000000000E+00 -0.00000000000E+00 -0.17238538192E+03  0.17238538192E+03  0.00000000000E+00 0. -1.
      99926    2    1    2    0    0  0.00000000000E+00  0.35527136788E-14  0.14323154523E+03  0.48800230907E+03  0.46650935479E+03 0.  0.
      99925    2    3    3    0    0 -0.38259458238E+02  0.20892314085E+02  0.21025668966E+03  0.33954304523E+03  0.26302343829E+03 0.  0.
         25    1    3    3    0    0  0.38259458238E+02 -0.20892314085E+02 -0.67025144430E+02  0.14845926384E+03  0.12509000000E+03 0.  0.
         25    1    4    4    0    0 -0.20854382782E+02  0.42798364366E+02  0.75973632810E+02  0.15390291179E+03  0.12509000000E+03 0.  0.
         25    1    4    4    0    0 -0.17405075456E+02 -0.21906050282E+02  0.13428305685E+03  0.18564013345E+03  0.12509000000E+03 0.  0.
<mgrwt>
<rscale>  2 0.46650935E+03</rscale>
<asrwt>0</asrwt>
<pdfrwt beam="1">  1       21 0.46414254E-01 0.46650935E+03</pdfrwt>
<pdfrwt beam="2">  1       21 0.25350791E-01 0.46650935E+03</pdfrwt>
<totfact> 0.60411489E+04</totfact>
</mgrwt>
</event>
<event>
 7    0  0.4737014E-002  0.4559267E+03  0.7546771E-02  0.1025969E+00
         21   -1    0    0  502  501  0.00000000000E+00  0.00000000000E+00  0.11484555523E+04  0.11484555523E+04  0.00000000000E+00 0.  1.
         21   -1    0    0  501  502 -0.00000000000E+00 -0.00000000000E+00 -0.45249724313E+02  0.45249724313E+02  0.00000000000E+00 0.  1.
      99926    2    1    2    0    0  0.00000000000E+00 -0.14210854715E-13  0.11032058280E+04  0.11937052766E+04  0.45592673590E+03 0.  0.
      99925    2    3    3    0    0  0.83101165461E+02  0.75173859225E+02  0.75181883180E+03  0.80424765119E+03  0.26272764563E+03 0.  0.
         25    1    4    4    0    0  0.15044351801E+02  0.51214229230E+02  0.44152697075E+03  0.46199870541E+03  0.12509000000E+03 0.  0.
         25    1    4    4    0    0  0.68056813661E+02  0.23959629995E+02  0.31029186105E+03  0.34224894578E+03  0.12509000000E+03 0.  0.
         25    1    3    3    0    0 -0.83101165461E+02 -0.75173859225E+02  0.35138699618E+03  0.38945762541E+03  0.12509000000E+03 0.  0.
<mgrwt>
<rscale>  2 0.45592674E+03</rscale>
<asrwt>0</asrwt>
<pdfrwt beam="1">  1       21 0.16889050E+00 0.45592674E+03</pdfrwt>
<pdfrwt beam="2">  1       21 0.66543719E-02 0.45592674E+03</pdfrwt>
<totfact> 0.32123543E+04</totfact>
</mgrwt>
</event>
<event>
 7    0  0.4737014E-002  0.4530352E+03  0.7546771E-02  0.1026821E+00
         21   -1    0    0  502  501  0.00000000000E+00  0.00000000000E+00  0.58483558200E+02  0.58483558200E+02  0.00000000000E+00 0.  1.
         21   -1    0    0  501  502 -0.00000000000E+00 -0.00000000000E+00 -0.87734460103E+03  0.87734460103E+03  0.00000000000E+00 0.  1.
      99926    2    1    2    0    0 -0.35527136788E-14  0.00000000000E+00 -0.81886104283E+03  0.93582815923E+03  0.45303524823E+03 0.  0.
      99925    2    3    3    0    0 -0.27836725452E+02  0.10405828043E+03 -0.45812646837E+03  0.53911673978E+03  0.26299047336E+03 0.  0.
         25    1    4    4    0    0 -0.11287100345E+02  0.19301191937E+02 -0.26006540664E+03  0.28945026943E+03  0.12509000000E+03 0.  0.
         25    1    4    4    0    0 -0.16549625107E+02  0.84757088497E+02 -0.19806106173E+03  0.24966647034E+03  0.12509000000E+03 0.  0.
         25    1    3    3    0    0  0.27836725452E+02 -0.10405828043E+03 -0.36073457446E+03  0.39671141945E+03  0.12509000000E+03 0.  0.
<mgrwt>
<rscale>  2 0.45303525E+03</rscale>
<asrwt>0</asrwt>
<pdfrwt beam="1">  1       21 0.86005236E-02 0.45303525E+03</pdfrwt>
<pdfrwt beam="2">  1       21 0.12902126E+00 0.45303525E+03</pdfrwt>
<totfact> 0.42367351E+04</totfact>
</mgrwt>
</event>
<event>
 7    0  0.4737014E-002  0.4494764E+03  0.7546771E-02  0.1027878E+00
         21   -1    0    0  502  501  0.00000000000E+00  0.00000000000E+00  0.19691966162E+04  0.19691966162E+04  0.00000000000E+00 0.  1.
         21   -1    0    0  501  502 -0.00000000000E+00 -0.00000000000E+00 -0.25648665166E+02  0.25648665166E+02  0.00000000000E+00 0.  1.
      99926    2    1    2    0    0 -0.71054273576E-14 -0.71054273576E-14  0.19435479510E+04  0.19948452813E+04  0.44947642720E+03 0.  0.
      99925    2    3    3    0    0 -0.54095747877E+02 -0.54257849970E+02  0.15667258484E+04  0.15904782830E+04  0.26290876834E+03 0.  0.
         25    1    3    3    0    0  0.54095747877E+02  0.54257849970E+02  0.37682210262E+03  0.40436699833E+03  0.12509000000E+03 0.  0.
         25    1    4    4    0    0 -0.53445921038E+02 -0.59525529520E+02  0.82287209031E+03  0.83616131234E+03  0.12509000000E+03 0.  0.
         25    1    4    4    0    0 -0.64982683910E+00  0.52676795507E+01  0.74385375807E+03  0.75431697065E+03  0.12509000000E+03 0.  0.
<mgrwt>
<rscale>  2 0.44947643E+03</rscale>
<asrwt>0</asrwt>
<pdfrwt beam="1">  1       21 0.28958764E+00 0.44947643E+03</pdfrwt>
<pdfrwt beam="2">  1       21 0.37718638E-02 0.44947643E+03</pdfrwt>
<totfact> 0.14401672E+04</totfact>
</mgrwt>
</event>
<event>
 7    0  0.4737014E-002  0.4463427E+03  0.7546771E-02  0.1028818E+00
         21   -1    0    0  502  501  0.00000000000E+00  0.00000000000E+00  0.72016534890E+02  0.72016534890E+02  0.00000000000E+00 0.  1.
         21   -1    0    0  501  502 -0.00000000000E+00 -0.00000000000E+00 -0.69158365504E+03  0.69158365504E+03  0.00000000000E+00 0.  1.
      99926    2    1    2    0    0 -0.14210854715E-13 -0.14210854715E-13 -0.61956712015E+03  0.76360018993E+03  0.44634273120E+03 0.  0.
      99925    2    3    3    0    0  0.67671552134E+02  0.79786763347E+02 -0.38017718781E+03  0.47394450748E+03  0.26295120357E+03 0.  0.
         25    1    4    4    0    0 -0.21267754918E+01  0.38639174428E+02 -0.14359269501E+03  0.19432930590E+03  0.12509000000E+03 0.  0.
         25    1    3    3    0    0 -0.67671552134E+02 -0.79786763347E+02 -0.23938993234E+03  0.28965568245E+03  0.12509000000E+03 0.  0.
         25    1    4    4    0    0  0.69798327625E+02  0.41147588919E+02 -0.23658449281E+03  0.27961520157E+03  0.12509000000E+03 0.  0.
<mgrwt>
<rscale>  2 0.44634273E+03</rscale>
<asrwt>0</asrwt>
<pdfrwt beam="1">  1       21 0.10590667E-01 0.44634273E+03</pdfrwt>
<pdfrwt beam="2">  1       21 0.10170348E+00 0.44634273E+03</pdfrwt>
<totfact> 0.53093272E+04</totfact>
</mgrwt>
</event>
<event>
 7    0  0.4737014E-002  0.4518858E+03  0.7546771E-02  0.1027161E+00
         21   -1    0    0  502  501  0.00000000000E+00  0.00000000000E+00  0.76996649514E+03  0.76996649514E+03  0.00000000000E+00 0.  1.
         21   -1    0    0  501  502 -0.00000000000E+00 -0.00000000000E+00 -0.66301829844E+02  0.66301829844E+02  0.00000000000E+00 0.  1.
      99926    2    1    2    0    0 -0.35527136788E-14  0.00000000000E+00  0.70366466530E+03  0.83626832498E+03  0.45188577117E+03 0.  0.
      99925    2    3    3    0    0 -0.20059404881E+02 -0.63223108038E+02  0.60686273975E+03  0.66475254727E+03  0.26308558132E+03 0.  0.
         25    1    3    3    0    0  0.20059404881E+02  0.63223108038E+02  0.96801925551E+02  0.17151577771E+03  0.12509000000E+03 0.  0.
         25    1    4    4    0    0  0.66099211093E+01 -0.51002888213E+02  0.38880206244E+03  0.41165463379E+03  0.12509000000E+03 0.  0.
         25    1    4    4    0    0 -0.26669325990E+02 -0.12220219825E+02  0.21806067730E+03  0.25309791348E+03  0.12509000000E+03 0.  0.
<mgrwt>
<rscale>  2 0.45188577E+03</rscale>
<asrwt>0</asrwt>
<pdfrwt beam="1">  1       21 0.11323036E+00 0.45188577E+03</pdfrwt>
<pdfrwt beam="2">  1       21 0.97502695E-02 0.45188577E+03</pdfrwt>
<totfact> 0.47202813E+04</totfact>
</mgrwt>
</event>
<event>
 7    0  0.4737014E-002  0.4412464E+03  0.7546771E-02  0.1030365E+00
         21   -1    0    0  502  501  0.00000000000E+00  0.00000000000E+00  0.11808023848E+03  0.11808023848E+03  0.00000000000E+00 0. -1.
         21   -1    0    0  501  502 -0.00000000000E+00 -0.00000000000E+00 -0.41221630427E+03  0.41221630427E+03  0.00000000000E+00 0. -1.
      99926    2    1    2    0    0  0.00000000000E+00  0.00000000000E+00 -0.29413606579E+03  0.53029654274E+03  0.44124641420E+03 0.  0.
      99925    2    3    3    0    0 -0.83227092981E+02 -0.52586711566E+02 -0.20671517582E+03  0.34868698533E+03  0.26298163166E+03 0.  0.
         25    1    3    3    0    0  0.83227092981E+02  0.52586711566E+02 -0.87420889972E+02  0.18160955741E+03  0.12509000000E+03 0.  0.
         25    1    4    4    0    0 -0.47255027965E+02 -0.42747901211E+02 -0.61024325937E+02  0.15307480910E+03  0.12509000000E+03 0.  0.
         25    1    4    4    0    0 -0.35972065016E+02 -0.98388103545E+01 -0.14569084988E+03  0.19561217623E+03  0.12509000000E+03 0.  0.
<mgrwt>
<rscale>  2 0.44124641E+03</rscale>
<asrwt>0</asrwt>
<pdfrwt beam="1">  1       21 0.17364741E-01 0.44124641E+03</pdfrwt>
<pdfrwt beam="2">  1       21 0.60620045E-01 0.44124641E+03</pdfrwt>
<totfact> 0.70561544E+04</totfact>
</mgrwt>
</event>
<event>
 7    0  0.4737014E-002  0.4567157E+03  0.7546771E-02  0.1025738E+00
         21   -1    0    0  502  501  0.00000000000E+00  0.00000000000E+00  0.20438731961E+03  0.20438731961E+03  0.00000000000E+00 0.  1.
         21   -1    0    0  501  502 -0.00000000000E+00 -0.00000000000E+00 -0.25513960455E+03  0.25513960455E+03  0.00000000000E+00 0.  1.
      99926    2    1    2    0    0  0.00000000000E+00  0.00000000000E+00 -0.50752284943E+02  0.45952692416E+03  0.45671566604E+03 0.  0.
      99925    2    3    3    0    0  0.71088782462E+02  0.38812986284E+02  0.49911233342E+02  0.27969168037E+03  0.26301376762E+03 0.  0.
         25    1    4    4    0    0 -0.20811578954E+01  0.10237389584E+02  0.39598343560E+02  0.13162322089E+03  0.12509000000E+03 0.  0.
         25    1    4    4    0    0  0.73169940357E+02  0.28575596699E+02  0.10312889783E+02  0.14806845949E+03  0.12509000000E+03 0.  0.
         25    1    3    3    0    0 -0.71088782462E+02 -0.38812986284E+02 -0.10066351829E+03  0.17983524379E+03  0.12509000000E+03 0.  0.
<mgrwt>
<rscale>  2 0.45671567E+03</rscale>
<asrwt>0</asrwt>
<pdfrwt beam="1">  1       21 0.30056959E-01 0.45671567E+03</pdfrwt>
<pdfrwt beam="2">  1       21 0.37520530E-01 0.45671567E+03</pdfrwt>
<totfact> 0.67289544E+04</totfact>
</mgrwt>
</event>
<event>
 7    0  0.4737014E-002  0.4541669E+03  0.7546771E-02  0.1026487E+00
         21   -1    0    0  502  501  0.00000000000E+00  0.00000000000E+00  0.17655814861E+03  0.17655814861E+03  0.00000000000E+00 0.  1.
         21   -1    0    0  501  502 -0.00000000000E+00 -0.00000000000E+00 -0.29206744325E+03  0.29206744325E+03  0.00000000000E+00 0.  1.
      99926    2    1    2    0    0  0.71054273576E-14  0.00000000000E+00 -0.11550929464E+03  0.46862559187E+03  0.45416687264E+03 0.  0.
      99925    2    3    3    0    0  0.38308427687E+02  0.50240580851E+02  0.23297067401E+02  0.27137862525E+03  0.26289152382E+03 0.  0.
         25    1    4    4    0    0  0.32404372978E+02  0.99266584678E+01 -0.23562107181E+02  0.13172419266E+03  0.12509000000E+03 0.  0.
         25    1    4    4    0    0  0.59040547089E+01  0.40313922384E+02  0.46859174582E+02  0.13965443259E+03  0.12509000000E+03 0.  0.
         25    1    3    3    0    0 -0.38308427687E+02 -0.50240580851E+02 -0.13880636204E+03  0.19724696662E+03  0.12509000000E+03 0.  0.
<mgrwt>
<rscale>  2 0.45416687E+03</rscale>
<asrwt>0</asrwt>
<pdfrwt beam="1">  1       21 0.25964434E-01 0.45416687E+03</pdfrwt>
<pdfrwt beam="2">  1       21 0.42951094E-01 0.45416687E+03</pdfrwt>
<totfact> 0.67986309E+04</totfact>
</mgrwt>
</event>
<event>
 7    0  0.4737014E-002  0.4610672E+03  0.7546771E-02  0.1024472E+00
         21   -1    0    0  502  501  0.00000000000E+00  0.00000000000E+00  0.17200800916E+04  0.17200800916E+04  0.00000000000E+00 0. -1.
         21   -1    0    0  501  502 -0.00000000000E+00 -0.00000000000E+00 -0.30897244180E+02  0.30897244180E+02  0.00000000000E+00 0. -1.
      99926    2    1    2    0    0  0.00000000000E+00  0.14210854715E-13  0.16891828475E+04  0.17509773358E+04  0.46106717342E+03 0.  0.
      99925    2    3    3    0    0 -0.38941704543E+02  0.11083201381E+03  0.99145320489E+03  0.10324549953E+04  0.26302788473E+03 0.  0.
         25    1    4    4    0    0 -0.25675539981E+02  0.96063130009E+02  0.60670039718E+03  0.62739161482E+03  0.12509000000E+03 0.  0.
         25    1    3    3    0    0  0.38941704543E+02 -0.11083201381E+03  0.69772964257E+03  0.71852234054E+03  0.12509000000E+03 0.  0.
         25    1    4    4    0    0 -0.13266164563E+02  0.14768883805E+02  0.38475280771E+03  0.40506338047E+03  0.12509000000E+03 0.  0.
<mgrwt>
<rscale>  2 0.46106717E+03</rscale>
<asrwt>0</asrwt>
<pdfrwt beam="1">  1       21 0.25295289E+00 0.46106717E+03</pdfrwt>
<pdfrwt beam="2">  1       21 0.45437135E-02 0.46106717E+03</pdfrwt>
<totfact> 0.17387230E+04</totfact>
</mgrwt>
</event>
<event>
 7    0  0.4737014E-002  0.4463907E+03  0.7546771E-02  0.1028804E+00
         21   -1    0    0  502  501  0.00000000000E+00  0.00000000000E+00  0.57025079146E+03  0.57025079146E+03  0.00000000000E+00 0. -1.
         21   -1    0    0  501  502 -0.00000000000E+00 -0.00000000000E+00 -0.87358323931E+02  0.87358323931E+02  0.00000000000E+00 0. -1.
      99926    2    1    2    0    0  0.14210854715E-13 -0.35527136788E-14  0.48289246753E+03  0.65760911539E+03  0.44639065117E+03 0.  0.
      99925    2    3    3    0    0 -0.10364560525E+03  0.16022517083E+02  0.30952230142E+03  0.41948340250E+03  0.26298885405E+03 0.  0.
         25    1    4    4    0    0 -0.22276283627E+02  0.35589175115E+02  0.15911421339E+03  0.20670670816E+03  0.12509000000E+03 0.  0.
         25    1    4    4    0    0 -0.81369321626E+02 -0.19566658032E+02  0.15040808803E+03  0.21277669434E+03  0.12509000000E+03 0.  0.
         25    1    3    3    0    0  0.10364560525E+03 -0.16022517083E+02  0.17337016611E+03  0.23812571289E+03  0.12509000000E+03 0.  0.
<mgrwt>
<rscale>  2 0.44639065E+03</rscale>
<asrwt>0</asrwt>
<pdfrwt beam="1">  1       21 0.83860409E-01 0.44639065E+03</pdfrwt>
<pdfrwt beam="2">  1       21 0.12846813E-01 0.44639065E+03</pdfrwt>
<totfact> 0.59181347E+04</totfact>
</mgrwt>
</event>
<event>
 7    0  0.4737014E-002  0.4553346E+03  0.7546771E-02  0.1026143E+00
         21   -1    0    0  502  501  0.00000000000E+00  0.00000000000E+00  0.22698332640E+03  0.22698332640E+03  0.00000000000E+00 0.  1.
         21   -1    0    0  501  502 -0.00000000000E+00 -0.00000000000E+00 -0.22835334416E+03  0.22835334416E+03  0.00000000000E+00 0.  1.
      99926    2    1    2    0    0 -0.71054273576E-14  0.00000000000E+00 -0.13700177589E+01  0.45533667057E+03  0.45533460950E+03 0.  0.
      99925    2    3    3    0    0  0.61773148109E+02 -0.89274173193E+02  0.32381883309E+02  0.28630265401E+03  0.26293501764E+03 0.  0.
         25    1    4    4    0    0  0.11732076472E+02 -0.66550551533E+02 -0.11904093808E+02  0.14267386964E+03  0.12509000000E+03 0.  0.
         25    1    3    3    0    0 -0.61773148109E+02  0.89274173193E+02 -0.33751901068E+02  0.16903401655E+03  0.12509000000E+03 0.  0.
         25    1    4    4    0    0  0.50041071637E+02 -0.22723621660E+02  0.44285977117E+02  0.14362878438E+03  0.12509000000E+03 0.  0.
<mgrwt>
<rscale>  2 0.45533461E+03</rscale>
<asrwt>0</asrwt>
<pdfrwt beam="1">  1       21 0.33379901E-01 0.45533461E+03</pdfrwt>
<pdfrwt beam="2">  1       21 0.33581374E-01 0.45533461E+03</pdfrwt>
<totfact> 0.68338497E+04</totfact>
</mgrwt>
</event>
<event>
 7    0  0.4737014E-002  0.4573956E+03  0.7546771E-02  0.1025539E+00
         21   -1    0    0  502  501  0.00000000000E+00  0.00000000000E+00  0.78204882696E+03  0.78204882696E+03  0.00000000000E+00 0.  1.
         21   -1    0    0  501  502 -0.00000000000E+00 -0.00000000000E+00 -0.66879058686E+02  0.66879058686E+02  0.00000000000E+00 0.  1.
      99926    2    1    2    0    0  0.00000000000E+00  0.00000000000E+00  0.71516976828E+03  0.84892788565E+03  0.45739562479E+03 0.  0.
      99925    2    3    3    0    0  0.25147577211E+02 -0.89081720195E+02  0.32119581949E+03  0.42533499862E+03  0.26301169762E+03 0.  0.
         25    1    4    4    0    0  0.50243436766E+02 -0.35861813051E+02  0.14248918001E+03  0.19940197364E+03  0.12509000000E+03 0.  0.
         25    1    3    3    0    0 -0.25147577211E+02  0.89081720195E+02  0.39397394879E+03  0.42359288702E+03  0.12509000000E+03 0.  0.
         25    1    4    4    0    0 -0.25095859555E+02 -0.53219907144E+02  0.17870663948E+03  0.22593302498E+03  0.12509000000E+03 0.  0.
<mgrwt>
<rscale>  2 0.45739562E+03</rscale>
<asrwt>0</asrwt>
<pdfrwt beam="1">  1       21 0.11500718E+00 0.45739562E+03</pdfrwt>
<pdfrwt beam="2">  1       21 0.98351561E-02 0.45739562E+03</pdfrwt>
<totfact> 0.44642481E+04</totfact>
</mgrwt>
</event>
<event>
 7    0  0.4737014E-002  0.4561561E+03  0.7546771E-02  0.1025902E+00
         21   -1    0    0  502  501  0.00000000000E+00  0.00000000000E+00  0.74016780212E+02  0.74016780212E+02  0.00000000000E+00 0. -1.
         21   -1    0    0  501  502 -0.00000000000E+00 -0.00000000000E+00 -0.70280831011E+03  0.70280831011E+03  0.00000000000E+00 0. -1.
      99926    2    1    2    0    0  0.00000000000E+00 -0.71054273576E-14 -0.62879152990E+03  0.77682509032E+03  0.45615614967E+03 0.  0.
      99925    2    3    3    0    0 -0.99292054837E+02  0.55577278319E+02 -0.39847585360E+03  0.49109695928E+03  0.26352508703E+03 0.  0.
         25    1    3    3    0    0  0.99292054837E+02 -0.55577278319E+02 -0.23031567629E+03  0.28572813104E+03  0.12509000000E+03 0.  0.
         25    1    4    4    0    0 -0.61466151204E+02  0.48542579107E+02 -0.15100009910E+03  0.21114688669E+03  0.12509000000E+03 0.  0.
         25    1    4    4    0    0 -0.37825903632E+02  0.70346992113E+01 -0.24747575450E+03  0.27995007259E+03  0.12509000000E+03 0.  0.
<mgrwt>
<rscale>  2 0.45615615E+03</rscale>
<asrwt>0</asrwt>
<pdfrwt beam="1">  1       21 0.10884821E-01 0.45615615E+03</pdfrwt>
<pdfrwt beam="2">  1       21 0.10335416E+00 0.45615615E+03</pdfrwt>
<totfact> 0.48464883E+04</totfact>
</mgrwt>
</event>
<event>
 7    0  0.4737014E-002  0.4546403E+03  0.7546771E-02  0.1026347E+00
         21   -1    0    0  502  501  0.00000000000E+00  0.00000000000E+00  0.10034230881E+03  0.10034230881E+03  0.00000000000E+00 0. -1.
         21   -1    0    0  501  502 -0.00000000000E+00 -0.00000000000E+00 -0.51498159800E+03  0.51498159800E+03  0.00000000000E+00 0. -1.
      99926    2    1    2    0    0  0.71054273576E-14  0.00000000000E+00 -0.41463928919E+03  0.61532390681E+03  0.45464026455E+03 0.  0.
      99925    2    3    3    0    0 -0.57498473875E+02  0.96703682727E+02 -0.27297200856E+03  0.39538117960E+03  0.26297316018E+03 0.  0.
         25    1    3    3    0    0  0.57498473875E+02 -0.96703682727E+02 -0.14166728064E+03  0.21994272721E+03  0.12509000000E+03 0.  0.
         25    1    4    4    0    0  0.61355965580E+01  0.68490581865E+02 -0.13030837582E+03  0.19327800252E+03  0.12509000000E+03 0.  0.
         25    1    4    4    0    0 -0.63634070433E+02  0.28213100862E+02 -0.14266363274E+03  0.20210317708E+03  0.12509000000E+03 0.  0.
<mgrwt>
<rscale>  2 0.45464026E+03</rscale>
<asrwt>0</asrwt>
<pdfrwt beam="1">  1       21 0.14756222E-01 0.45464026E+03</pdfrwt>
<pdfrwt beam="2">  1       21 0.75732589E-01 0.45464026E+03</pdfrwt>
<totfact> 0.57909168E+04</totfact>
</mgrwt>
</event>
<event>
 7    0  0.5820918E-002  0.4254321E+03  0.7546771E-02  0.1035313E+00
         21   -1    0    0  502  501  0.00000000000E+00  0.00000000000E+00  0.37096982758E+03  0.37096982758E+03  0.00000000000E+00 0.  1.
         21   -1    0    0  501  502 -0.00000000000E+00 -0.00000000000E+00 -0.12197250101E+03  0.12197250101E+03  0.00000000000E+00 0.  1.
      99926    2    1    2    0    0  0.00000000000E+00  0.00000000000E+00  0.24899732657E+03  0.49294232858E+03  0.42543209878E+03 0.  0.
      99925    2    3    3    0    0 -0.41533005480E+02 -0.71144674160E+02  0.16307531822E+03  0.32026733090E+03  0.26304191420E+03 0.  0.
         25    1    4    4    0    0 -0.35244033384E+01  0.51692496785E+00  0.58371207697E+02  0.13808473709E+03  0.12509000000E+03 0.  0.
         25    1    4    4    0    0 -0.38008602141E+02 -0.71661599128E+02  0.10470411052E+03  0.18218259381E+03  0.12509000000E+03 0.  0.
         25    1    3    3    0    0  0.41533005480E+02  0.71144674160E+02  0.85922008349E+02  0.17267499768E+03  0.12509000000E+03 0.  0.
<mgrwt>
<rscale>  2 0.42543210E+03</rscale>
<asrwt>0</asrwt>
<pdfrwt beam="1">  1       21 0.54554386E-01 0.42543210E+03</pdfrwt>
<pdfrwt beam="2">  1       21 0.17937133E-01 0.42543210E+03</pdfrwt>
<totfact> 0.83760698E+04</totfact>
</mgrwt>
</event>
<event>
 7    0  0.4737014E-002  0.4661154E+03  0.7546771E-02  0.1023022E+00
         21   -1    0    0  502  501  0.00000000000E+00  0.00000000000E+00  0.14577570489E+04  0.14577570489E+04  0.00000000000E+00 0. -1.
         21   -1    0    0  501  502 -0.00000000000E+00 -0.00000000000E+00 -0.37259913401E+02  0.37259913401E+02  0.00000000000E+00 0. -1.
      99926    2    1    2    0    0  0.14210854715E-13  0.17763568394E-14  0.14204971355E+04  0.14950169623E+04  0.46611544236E+03 0.  0.
      99925    2    3    3    0    0  0.10662746073E+03  0.15995820972E+02  0.10772594303E+04  0.11141168283E+04  0.26295084215E+03 0.  0.
         25    1    4    4    0    0  0.66718849760E+02  0.46646666717E+02  0.58198986593E+03  0.60082196080E+03  0.12509000000E+03 0.  0.
         25    1    4    4    0    0  0.39908610965E+02 -0.30650845745E+02  0.49526956436E+03  0.51329486755E+03  0.12509000000E+03 0.  0.
         25    1    3    3    0    0 -0.10662746073E+03 -0.15995820972E+02  0.34323770522E+03  0.38090013396E+03  0.12509000000E+03 0.  0.
<mgrwt>
<rscale>  2 0.46611544E+03</rscale>
<asrwt>0</asrwt>
<pdfrwt beam="1">  1       21 0.21437600E+00 0.46611544E+03</pdfrwt>
<pdfrwt beam="2">  1       21 0.54794000E-02 0.46611544E+03</pdfrwt>
<totfact> 0.21944838E+04</totfact>
</mgrwt>
</event>
<event>
 7    0  0.4737014E-002  0.4384978E+03  0.7546771E-02  0.1031209E+00
         21   -1    0    0  502  501  0.00000000000E+00  0.00000000000E+00  0.10083892885E+04  0.10083892885E+04  0.00000000000E+00 0. -1.
         21   -1    0    0  501  502 -0.00000000000E+00 -0.00000000000E+00 -0.47670161022E+02  0.47670161022E+02  0.00000000000E+00 0. -1.
      99926    2    1    2    0    0  0.00000000000E+00  0.00000000000E+00  0.96071912747E+03  0.10560594495E+04  0.43849779820E+03 0.  0.
      99925    2    3    3    0    0  0.83120922486E+02 -0.35267381531E+02  0.69859515666E+03  0.75190593543E+03  0.26301039309E+03 0.  0.
         25    1    4    4    0    0  0.15617539048E+02 -0.29842715424E+02  0.41311773168E+03  0.43295295763E+03  0.12509000000E+03 0.  0.
         25    1    3    3    0    0 -0.83120922486E+02  0.35267381531E+02  0.26212397081E+03  0.30415351409E+03  0.12509000000E+03 0.  0.
         25    1    4    4    0    0  0.67503383438E+02 -0.54246661070E+01  0.28547742498E+03  0.31895297780E+03  0.12509000000E+03 0.  0.
<mgrwt>
<rscale>  2 0.43849780E+03</rscale>
<asrwt>0</asrwt>
<pdfrwt beam="1">  1       21 0.14829253E+00 0.43849780E+03</pdfrwt>
<pdfrwt beam="2">  1       21 0.70103185E-02 0.43849780E+03</pdfrwt>
<totfact> 0.42239383E+04</totfact>
</mgrwt>
</event>
<event>
 7    0  0.4737014E-002  0.4587629E+03  0.7546771E-02  0.1025141E+00
         21   -1    0    0  502  501  0.00000000000E+00  0.00000000000E+00  0.14342489432E+04  0.14342489432E+04  0.00000000000E+00 0. -1.
         21   -1    0    0  501  502 -0.00000000000E+00 -0.00000000000E+00 -0.36685293729E+02  0.36685293729E+02  0.00000000000E+00 0. -1.
      99926    2    1    2    0    0  0.00000000000E+00  0.14210854715E-13  0.13975636494E+04  0.14709342369E+04  0.45876287452E+03 0.  0.
      99925    2    3    3    0    0  0.26369913834E+02 -0.85194406590E+02  0.63519332179E+03  0.69323925565E+03  0.26297652036E+03 0.  0.
         25    1    4    4    0    0 -0.40790115403E+01 -0.58492618391E+02  0.24214935984E+03  0.27878637936E+03  0.12509000000E+03 0.  0.
         25    1    4    4    0    0  0.30448925374E+02 -0.26701788199E+02  0.39304396194E+03  0.41445287629E+03  0.12509000000E+03 0.  0.
         25    1    3    3    0    0 -0.26369913834E+02  0.85194406590E+02  0.76237032765E+03  0.77769498124E+03  0.12509000000E+03 0.  0.
<mgrwt>
<rscale>  2 0.45876287E+03</rscale>
<asrwt>0</asrwt>
<pdfrwt beam="1">  1       21 0.21091892E+00 0.45876287E+03</pdfrwt>
<pdfrwt beam="2">  1       21 0.53948971E-02 0.45876287E+03</pdfrwt>
<totfact> 0.23797307E+04</totfact>
</mgrwt>
</event>
<event>
 7    0  0.4737014E-002  0.4593077E+03  0.7546771E-02  0.1024982E+00
         21   -1    0    0  502  501  0.00000000000E+00  0.00000000000E+00  0.69997636145E+02  0.69997636145E+02  0.00000000000E+00 0.  1.
         21   -1    0    0  501  502 -0.00000000000E+00 -0.00000000000E+00 -0.75346687668E+03  0.75346687668E+03  0.00000000000E+00 0.  1.
      99926    2    1    2    0    0  0.14210854715E-13  0.00000000000E+00 -0.68346924053E+03  0.82346451282E+03  0.45930774120E+03 0.  0.
      99925    2    3    3    0    0 -0.66313036269E+02  0.84740223165E+01 -0.25585814775E+03  0.37294483223E+03  0.26297381672E+03 0.  0.
         25    1    4    4    0    0 -0.15243368284E+02  0.16992857485E+02 -0.77091595350E+02  0.14870016697E+03  0.12509000000E+03 0.  0.
         25    1    4    4    0    0 -0.51069667985E+02 -0.85188351684E+01 -0.17876655240E+03  0.22424466526E+03  0.12509000000E+03 0.  0.
         25    1    3    3    0    0  0.66313036269E+02 -0.84740223165E+01 -0.42761109278E+03  0.45051968059E+03  0.12509000000E+03 0.  0.
<mgrwt>
<rscale>  2 0.45930774E+03</rscale>
<asrwt>0</asrwt>
<pdfrwt beam="1">  1       21 0.10293770E-01 0.45930774E+03</pdfrwt>
<pdfrwt beam="2">  1       21 0.11080396E+00 0.45930774E+03</pdfrwt>
<totfact> 0.45106645E+04</totfact>
</mgrwt>
</event>
<event>
 7    0  0.4737014E-002  0.4586156E+03  0.7546771E-02  0.1025183E+00
         21   -1    0    0  502  501  0.00000000000E+00  0.00000000000E+00  0.87986986245E+03  0.87986986245E+03  0.00000000000E+00 0.  1.
         21   -1    0    0  501  502 -0.00000000000E+00 -0.00000000000E+00 -0.59761185574E+02  0.59761185574E+02  0.00000000000E+00 0.  1.
      99926    2    1    2    0    0  0.00000000000E+00 -0.71054273576E-14  0.82010867688E+03  0.93963104802E+03  0.45861559559E+03 0.  0.
      99925    2    3    3    0    0  0.81355260411E+02 -0.50665340840E+02  0.65015401539E+03  0.70786014773E+03  0.26302108256E+03 0.  0.
         25    1    4    4    0    0  0.78488932282E+02 -0.17804038896E+02  0.30714958135E+03  0.34127096231E+03  0.12509000000E+03 0.  0.
         25    1    4    4    0    0  0.28663281295E+01 -0.32861301943E+02  0.34300443403E+03  0.36658918542E+03  0.12509000000E+03 0.  0.
         25    1    3    3    0    0 -0.81355260411E+02  0.50665340840E+02  0.16995466149E+03  0.23177090029E+03  0.12509000000E+03 0.  0.
<mgrwt>
<rscale>  2 0.45861560E+03</rscale>
<asrwt>0</asrwt>
<pdfrwt beam="1">  1       21 0.12939262E+00 0.45861560E+03</pdfrwt>
<pdfrwt beam="2">  1       21 0.87884102E-02 0.45861560E+03</pdfrwt>
<totfact> 0.40408765E+04</totfact>
</mgrwt>
</event>
<event>
 7    0  0.4737014E-002  0.4542113E+03  0.7546771E-02  0.1026474E+00
         21   -1    0    0  502  501  0.00000000000E+00  0.00000000000E+00  0.12645584935E+03  0.12645584935E+03  0.00000000000E+00 0. -1.
         21   -1    0    0  501  502 -0.00000000000E+00 -0.00000000000E+00 -0.40786548617E+03  0.40786548617E+03  0.00000000000E+00 0. -1.
      99926    2    1    2    0    0 -0.35527136788E-14  0.00000000000E+00 -0.28140963683E+03  0.53432133552E+03  0.45421130093E+03 0.  0.
      99925    2    3    3    0    0  0.42478227391E+01 -0.88682304544E+02 -0.25824177784E+03  0.37918638483E+03  0.26307965235E+03 0.  0.
         25    1    4    4    0    0  0.40471044001E+02 -0.58070791042E+02 -0.13999310527E+03  0.20063823115E+03  0.12509000000E+03 0.  0.
         25    1    3    3    0    0 -0.42478227391E+01  0.88682304544E+02 -0.23167858982E+02  0.15513495069E+03  0.12509000000E+03 0.  0.
         25    1    4    4    0    0 -0.36223221262E+02 -0.30611513502E+02 -0.11824867258E+03  0.17854815368E+03  0.12509000000E+03 0.  0.
<mgrwt>
<rscale>  2 0.45421130E+03</rscale>
<asrwt>0</asrwt>
<pdfrwt beam="1">  1       21 0.18596448E-01 0.45421130E+03</pdfrwt>
<pdfrwt beam="2">  1       21 0.59980221E-01 0.45421130E+03</pdfrwt>
<totfact> 0.63308898E+04</totfact>
</mgrwt>
</event>
<event>
 7    0  0.4737014E-002  0.4233746E+03  0.7546771E-02  0.1035974E+00
         21   -1    0    0  502  501  0.00000000000E+00  0.00000000000E+00  0.28449603048E+03  0.28449603048E+03  0.00000000000E+00 0.  1.
         21   -1    0    0  501  502 -0.00000000000E+00 -0.00000000000E+00 -0.15751194517E+03  0.15751194517E+03  0.00000000000E+00 0.  1.
      99926    2    1    2    0    0  0.88817841970E-15  0.00000000000E+00  0.12698408531E+03  0.44200797565E+03  0.42337464805E+03 0.  0.
      99925    2    3    3    0    0 -0.35666565020E+01  0.64064448950E+02  0.32680602894E+02  0.27272233079E+03  0.26304462216E+03 0.  0.
         25    1    4    4    0    0 -0.20073615330E+02  0.25642549944E+02 -0.19805672790E+02  0.13076797458E+03  0.12509000000E+03 0.  0.
         25    1    4    4    0    0  0.16506958828E+02  0.38421899006E+02  0.52486275684E+02  0.14195435621E+03  0.12509000000E+03 0.  0.
         25    1    3    3    0    0  0.35666565020E+01 -0.64064448950E+02  0.94303482418E+02  0.16928564486E+03  0.12509000000E+03 0.  0.
<mgrwt>
<rscale>  2 0.42337465E+03</rscale>
<asrwt>0</asrwt>
<pdfrwt beam="1">  1       21 0.41837652E-01 0.42337465E+03</pdfrwt>
<pdfrwt beam="2">  1       21 0.23163521E-01 0.42337465E+03</pdfrwt>
<totfact> 0.90158080E+04</totfact>
</mgrwt>
</event>
<event>
 7    0  0.4737014E-002  0.4496907E+03  0.7546771E-02  0.1027814E+00
         21   -1    0    0  502  501  0.00000000000E+00  0.00000000000E+00  0.11178896289E+04  0.11178896289E+04  0.00000000000E+00 0. -1.
         21   -1    0    0  501  502 -0.00000000000E+00 -0.00000000000E+00 -0.45223994038E+02  0.45223994038E+02  0.00000000000E+00 0. -1.
      99926    2    1    2    0    0  0.35527136788E-14  0.00000000000E+00  0.10726656349E+04  0.11631136230E+04  0.44969071111E+03 0.  0.
      99925    2    3    3    0    0  0.30644230738E+02  0.10044018679E+03  0.74489282115E+03  0.79690353910E+03  0.26298790015E+03 0.  0.
         25    1    4    4    0    0  0.16221910188E+02  0.37603877486E+02  0.47000760245E+03  0.48809000854E+03  0.12509000000E+03 0.  0.
         25    1    4    4    0    0  0.14422320550E+02  0.62836309306E+02  0.27488521870E+03  0.30881353056E+03  0.12509000000E+03 0.  0.
         25    1    3    3    0    0 -0.30644230738E+02 -0.10044018679E+03  0.32777281374E+03  0.36621008387E+03  0.12509000000E+03 0.  0.
<mgrwt>
<rscale>  2 0.44969071E+03</rscale>
<asrwt>0</asrwt>
<pdfrwt beam="1">  1       21 0.16439552E+00 0.44969071E+03</pdfrwt>
<pdfrwt beam="2">  1       21 0.66505881E-02 0.44969071E+03</pdfrwt>
<totfact> 0.34763716E+04</totfact>
</mgrwt>
</event>
<event>
 7    0  0.4737014E-002  0.4556713E+03  0.7546771E-02  0.1026044E+00
         21   -1    0    0  502  501  0.00000000000E+00  0.00000000000E+00  0.31448701673E+03  0.31448701673E+03  0.00000000000E+00 0.  1.
         21   -1    0    0  501  502 -0.00000000000E+00 -0.00000000000E+00 -0.16505951093E+03  0.16505951093E+03  0.00000000000E+00 0.  1.
      99926    2    1    2    0    0  0.00000000000E+00 -0.14210854715E-13  0.14942750579E+03  0.47954652766E+03  0.45567125508E+03 0.  0.
      99925    2    3    3    0    0  0.51790128307E+01 -0.84172140866E+02  0.13991451265E+02  0.27680974156E+03  0.26327951087E+03 0.  0.
         25    1    4    4    0    0 -0.15547458547E+02 -0.24686848605E+02  0.39640410327E+02  0.13442482729E+03  0.12509000000E+03 0.  0.
         25    1    4    4    0    0  0.20726471378E+02 -0.59485292261E+02 -0.25648959063E+02  0.14238491427E+03  0.12509000000E+03 0.  0.
         25    1    3    3    0    0 -0.51790128307E+01  0.84172140866E+02  0.13543605453E+03  0.20273678610E+03  0.12509000000E+03 0.  0.
<mgrwt>
<rscale>  2 0.45567126E+03</rscale>
<asrwt>0</asrwt>
<pdfrwt beam="1">  1       21 0.46248091E-01 0.45567126E+03</pdfrwt>
<pdfrwt beam="2">  1       21 0.24273457E-01 0.45567126E+03</pdfrwt>
<totfact> 0.66378755E+04</totfact>
</mgrwt>
</event>
<event>
 7    0  0.4737014E-002  0.4527203E+03  0.7546771E-02  0.1026914E+00
         21   -1    0    0  502  501  0.00000000000E+00  0.00000000000E+00  0.46191770215E+02  0.46191770215E+02  0.00000000000E+00 0.  1.
         21   -1    0    0  501  502 -0.00000000000E+00 -0.00000000000E+00 -0.11092653110E+04  0.11092653110E+04  0.00000000000E+00 0.  1.
      99926    2    1    2    0    0  0.00000000000E+00  0.00000000000E+00 -0.10630735408E+04  0.11554570812E+04  0.45272034790E+03 0.  0.
      99925    2    3    3    0    0  0.19189151808E+02  0.97512817299E+02 -0.79684994022E+03  0.84497441392E+03  0.26293527698E+03 0.  0.
         25    1    4    4    0    0  0.20792852375E+02  0.57996251466E+02 -0.29555893399E+03  0.32680039697E+03  0.12509000000E+03 0.  0.
         25    1    3    3    0    0 -0.19189151808E+02 -0.97512817299E+02 -0.26622360053E+03  0.31048266726E+03  0.12509000000E+03 0.  0.
         25    1    4    4    0    0 -0.16037005673E+01  0.39516565832E+02 -0.50129100622E+03  0.51817401696E+03  0.12509000000E+03 0.  0.
<mgrwt>
<rscale>  2 0.45272035E+03</rscale>
<asrwt>0</asrwt>
<pdfrwt beam="1">  1       21 0.67929077E-02 0.45272035E+03</pdfrwt>
<pdfrwt beam="2">  1       21 0.16312724E+00 0.45272035E+03</pdfrwt>
<totfact> 0.34204329E+04</totfact>
</mgrwt>
</event>
<event>
 7    0  0.4737014E-002  0.4596384E+03  0.7546771E-02  0.1024886E+00
         21   -1    0    0  502  501  0.00000000000E+00  0.00000000000E+00  0.43696357241E+02  0.43696357241E+02  0.00000000000E+00 0.  1.
         21   -1    0    0  501  502 -0.00000000000E+00 -0.00000000000E+00 -0.12087246938E+04  0.12087246938E+04  0.00000000000E+00 0.  1.
      99926    2    1    2    0    0  0.00000000000E+00  0.14210854715E-13 -0.11650283365E+04  0.12524210510E+04  0.45963840581E+03 0.  0.
      99925    2    3    3    0    0  0.46442295017E+02 -0.89117794540E+02 -0.56454610994E+03  0.63087034462E+03  0.26303272305E+03 0.  0.
         25    1    3    3    0    0 -0.46442295017E+02  0.89117794540E+02 -0.60048222659E+03  0.62155070640E+03  0.12509000000E+03 0.  0.
         25    1    4    4    0    0 -0.16235818619E+02 -0.52105543480E+02 -0.29020299002E+03  0.32069280158E+03  0.12509000000E+03 0.  0.
         25    1    4    4    0    0  0.62678113635E+02 -0.37012251060E+02 -0.27434311992E+03  0.31017754304E+03  0.12509000000E+03 0.  0.
<mgrwt>
<rscale>  2 0.45963841E+03</rscale>
<asrwt>0</asrwt>
<pdfrwt beam="1">  1       21 0.64259353E-02 0.45963841E+03</pdfrwt>
<pdfrwt beam="2">  1       21 0.17775362E+00 0.45963841E+03</pdfrwt>
<totfact> 0.29450575E+04</totfact>
</mgrwt>
</event>
<event>
 7    0  0.4737014E-002  0.4714425E+03  0.7546771E-02  0.1021514E+00
         21   -1    0    0  502  501  0.00000000000E+00  0.00000000000E+00  0.68624880653E+02  0.68624880653E+02  0.00000000000E+00 0.  1.
         21   -1    0    0  501  502 -0.00000000000E+00 -0.00000000000E+00 -0.80968461656E+03  0.80968461656E+03  0.00000000000E+00 0.  1.
      99926    2    1    2    0    0  0.71054273576E-14  0.00000000000E+00 -0.74105973591E+03  0.87830949721E+03  0.47144251051E+03 0.  0.
      99925    2    3    3    0    0 -0.63319845826E+02 -0.35986681045E+02 -0.65579721412E+03  0.71031649197E+03  0.26301157509E+03 0.  0.
         25    1    4    4    0    0 -0.19302638193E+02 -0.14164880871E+02 -0.21931890140E+03  0.25361688490E+03  0.12509000000E+03 0.  0.
         25    1    3    3    0    0  0.63319845826E+02  0.35986681045E+02 -0.85262521782E+02  0.16799300524E+03  0.12509000000E+03 0.  0.
         25    1    4    4    0    0 -0.44017207633E+02 -0.21821800175E+02 -0.43647831272E+03  0.45669960708E+03  0.12509000000E+03 0.  0.
<mgrwt>
<rscale>  2 0.47144251E+03</rscale>
<asrwt>0</asrwt>
<pdfrwt beam="1">  1       21 0.10091895E-01 0.47144251E+03</pdfrwt>
<pdfrwt beam="2">  1       21 0.11907126E+00 0.47144251E+03</pdfrwt>
<totfact> 0.38924644E+04</totfact>
</mgrwt>
</event>
<event>
 7    0  0.4737014E-002  0.4568046E+03  0.7546771E-02  0.1025712E+00
         21   -1    0    0  502  501  0.00000000000E+00  0.00000000000E+00  0.19529554449E+03  0.19529554449E+03  0.00000000000E+00 0. -1.
         21   -1    0    0  501  502 -0.00000000000E+00 -0.00000000000E+00 -0.26712131230E+03  0.26712131230E+03  0.00000000000E+00 0. -1.
      99926    2    1    2    0    0  0.00000000000E+00  0.00000000000E+00 -0.71825767805E+02  0.46241685679E+03  0.45680456272E+03 0.  0.
      99925    2    3    3    0    0  0.39689330491E+02 -0.48045560270E+02  0.52310153863E+02  0.27549212872E+03  0.26320323321E+03 0.  0.
         25    1    3    3    0    0 -0.39689330491E+02  0.48045560270E+02 -0.12413592167E+03  0.18692472807E+03  0.12509000000E+03 0.  0.
         25    1    4    4    0    0  0.27194550455E+02 -0.16848747249E+02  0.66423550497E+02  0.14519993119E+03  0.12509000000E+03 0.  0.
         25    1    4    4    0    0  0.12494780036E+02 -0.31196813021E+02 -0.14113396634E+02  0.13029219752E+03  0.12509000000E+03 0.  0.
<mgrwt>
<rscale>  2 0.45680456E+03</rscale>
<asrwt>0</asrwt>
<pdfrwt beam="1">  1       21 0.28719933E-01 0.45680456E+03</pdfrwt>
<pdfrwt beam="2">  1       21 0.39282546E-01 0.45680456E+03</pdfrwt>
<totfact> 0.67034887E+04</totfact>
</mgrwt>
</event>
<event>
 7    0  0.4737014E-002  0.4733221E+03  0.7546771E-02  0.1020987E+00
         21   -1    0    0  502  501  0.00000000000E+00  0.00000000000E+00  0.15485562587E+03  0.15485562587E+03  0.00000000000E+00 0.  1.
         21   -1    0    0  501  502 -0.00000000000E+00 -0.00000000000E+00 -0.36168170435E+03  0.36168170435E+03  0.00000000000E+00 0.  1.
      99926    2    1    2    0    0  0.00000000000E+00  0.00000000000E+00 -0.20682607848E+03  0.51653733022E+03  0.47332207509E+03 0.  0.
      99925    2    3    3    0    0  0.19060758518E+02 -0.96195342670E+02 -0.22081205493E+03  0.35697551742E+03  0.26278641511E+03 0.  0.
         25    1    4    4    0    0  0.40132112451E+02 -0.65651185428E+02 -0.90156655995E+02  0.17232642084E+03  0.12509000000E+03 0.  0.
         25    1    3    3    0    0 -0.19060758518E+02  0.96195342670E+02  0.13985976444E+02  0.15956181280E+03  0.12509000000E+03 0.  0.
         25    1    4    4    0    0 -0.21071353933E+02 -0.30544157242E+02 -0.13065539893E+03  0.18464909658E+03  0.12509000000E+03 0.  0.
<mgrwt>
<rscale>  2 0.47332208E+03</rscale>
<asrwt>0</asrwt>
<pdfrwt beam="1">  1       21 0.22772886E-01 0.47332208E+03</pdfrwt>
<pdfrwt beam="2">  1       21 0.53188485E-01 0.47332208E+03</pdfrwt>
<totfact> 0.55589290E+04</totfact>
</mgrwt>
</event>
<event>
 7    0  0.4737014E-002  0.4568140E+03  0.7546771E-02  0.1025709E+00
         21   -1    0    0  502  501  0.00000000000E+00  0.00000000000E+00  0.13711805139E+04  0.13711805139E+04  0.00000000000E+00 0.  1.
         21   -1    0    0  501  502 -0.00000000000E+00 -0.00000000000E+00 -0.38047337841E+02  0.38047337841E+02  0.00000000000E+00 0.  1.
      99926    2    1    2    0    0 -0.44408920985E-15  0.00000000000E+00  0.13331331760E+04  0.14092278517E+04  0.45681404642E+03 0.  0.
      99925    2    3    3    0    0 -0.34715322560E+01  0.23033996870E+02  0.49049266821E+03  0.55703471041E+03  0.26298668121E+03 0.  0.
         25    1    4    4    0    0 -0.11002005611E+02  0.55104579439E+01  0.32678895854E+03  0.35012846328E+03  0.12509000000E+03 0.  0.
         25    1    4    4    0    0  0.75304733554E+01  0.17523538926E+02  0.16370370967E+03  0.20690624714E+03  0.12509000000E+03 0.  0.
         25    1    3    3    0    0  0.34715322560E+01 -0.23033996870E+02  0.84264050781E+03  0.85219314128E+03  0.12509000000E+03 0.  0.
<mgrwt>
<rscale>  2 0.45681405E+03</rscale>
<asrwt>0</asrwt>
<pdfrwt beam="1">  1       21 0.20164416E+00 0.45681405E+03</pdfrwt>
<pdfrwt beam="2">  1       21 0.55951977E-02 0.45681405E+03</pdfrwt>
<totfact> 0.25722620E+04</totfact>
</mgrwt>
</event>
<event>
 7    0  0.4737014E-002  0.4631547E+03  0.7546771E-02  0.1023870E+00
         21   -1    0    0  502  501  0.00000000000E+00  0.00000000000E+00  0.90772724896E+02  0.90772724896E+02  0.00000000000E+00 0.  1.
         21   -1    0    0  501  502 -0.00000000000E+00 -0.00000000000E+00 -0.59079507067E+03  0.59079507067E+03  0.00000000000E+00 0.  1.
      99926    2    1    2    0    0  0.00000000000E+00  0.00000000000E+00 -0.50002234577E+03  0.68156779557E+03  0.46315474053E+03 0.  0.
      99925    2    3    3    0    0  0.11444668938E+03 -0.55893677410E+01 -0.36829800214E+03  0.46679327066E+03  0.26291301491E+03 0.  0.
         25    1    4    4    0    0  0.29268224293E+02 -0.28761229106E+01 -0.22067922616E+03  0.25536587477E+03  0.12509000000E+03 0.  0.
         25    1    4    4    0    0  0.85178465091E+02 -0.27132448304E+01 -0.14761877598E+03  0.21142739589E+03  0.12509000000E+03 0.  0.
         25    1    3    3    0    0 -0.11444668938E+03  0.55893677410E+01 -0.13172434363E+03  0.21477452491E+03  0.12509000000E+03 0.  0.
<mgrwt>
<rscale>  2 0.46315474E+03</rscale>
<asrwt>0</asrwt>
<pdfrwt beam="1">  1       21 0.13348930E-01 0.46315474E+03</pdfrwt>
<pdfrwt beam="2">  1       21 0.86881627E-01 0.46315474E+03</pdfrwt>
<totfact> 0.50585970E+04</totfact>
</mgrwt>
</event>
<event>
 7    0  0.4737014E-002  0.4570839E+03  0.7546771E-02  0.1025630E+00
         21   -1    0    0  502  501  0.00000000000E+00  0.00000000000E+00  0.78332642825E+02  0.78332642825E+02  0.00000000000E+00 0. -1.
         21   -1    0    0  501  502 -0.00000000000E+00 -0.00000000000E+00 -0.66678994742E+03  0.66678994742E+03  0.00000000000E+00 0. -1.
      99926    2    1    2    0    0  0.17763568394E-14  0.00000000000E+00 -0.58845730460E+03  0.74512259025E+03  0.45708388198E+03 0.  0.
      99925    2    3    3    0    0 -0.12604201195E+02  0.11337543482E+03 -0.39483549995E+03  0.48792662130E+03  0.26299136990E+03 0.  0.
         25    1    4    4    0    0  0.18900864756E+02  0.22625956865E+02 -0.16406791660E+03  0.20841057068E+03  0.12509000000E+03 0.  0.
         25    1    4    4    0    0 -0.31505065951E+02  0.90749477955E+02 -0.23076758335E+03  0.27951605062E+03  0.12509000000E+03 0.  0.
         25    1    3    3    0    0  0.12604201195E+02 -0.11337543482E+03 -0.19362180465E+03  0.25719596895E+03  0.12509000000E+03 0.  0.
<mgrwt>
<rscale>  2 0.45708388E+03</rscale>
<asrwt>0</asrwt>
<pdfrwt beam="1">  1       21 0.11519506E-01 0.45708388E+03</pdfrwt>
<pdfrwt beam="2">  1       21 0.98057346E-01 0.45708388E+03</pdfrwt>
<totfact> 0.49701467E+04</totfact>
</mgrwt>
</event>
<event>
 7    0  0.4737014E-002  0.4347834E+03  0.7546771E-02  0.1032360E+00
         21   -1    0    0  502  501  0.00000000000E+00  0.00000000000E+00  0.24778912164E+03  0.24778912164E+03  0.00000000000E+00 0. -1.
         21   -1    0    0  501  502 -0.00000000000E+00 -0.00000000000E+00 -0.19072325272E+03  0.19072325272E+03  0.00000000000E+00 0. -1.
      99926    2    1    2    0    0  0.00000000000E+00  0.00000000000E+00  0.57065868915E+02  0.43851237436E+03  0.43478338178E+03 0.  0.
      99925    2    3    3    0    0  0.20441785370E+02  0.25111829671E+01  0.12757199158E+03  0.29345102851E+03  0.26346673503E+03 0.  0.
         25    1    3    3    0    0 -0.20441785370E+02 -0.25111829671E+01 -0.70506122661E+02  0.14506134586E+03  0.12509000000E+03 0.  0.
         25    1    4    4    0    0 -0.29251822373E+02  0.57211877599E+01  0.75339188548E+02  0.14903658119E+03  0.12509000000E+03 0.  0.
         25    1    4    4    0    0  0.49693607743E+02 -0.32100047927E+01  0.52232803028E+02  0.14441444732E+03  0.12509000000E+03 0.  0.
<mgrwt>
<rscale>  2 0.43478338E+03</rscale>
<asrwt>0</asrwt>
<pdfrwt beam="1">  1       21 0.36439576E-01 0.43478338E+03</pdfrwt>
<pdfrwt beam="2">  1       21 0.28047537E-01 0.43478338E+03</pdfrwt>
<totfact> 0.82259207E+04</totfact>
</mgrwt>
</event>
<event>
 7    0  0.4737014E-002  0.4504862E+03  0.7546771E-02  0.1027577E+00
         21   -1    0    0  502  501  0.00000000000E+00  0.00000000000E+00  0.42043902490E+03  0.42043902490E+03  0.00000000000E+00 0.  1.
         21   -1    0    0  501  502 -0.00000000000E+00 -0.00000000000E+00 -0.12067020473E+03  0.12067020473E+03  0.00000000000E+00 0.  1.
      99926    2    1    2    0    0  0.71054273576E-14  0.00000000000E+00  0.29976882017E+03  0.54110922963E+03  0.45048624047E+03 0.  0.
      99925    2    3    3    0    0 -0.40002734333E+02 -0.50539534275E+02  0.83980970660E+02  0.28349252332E+03  0.26298430384E+03 0.  0.
         25    1    4    4    0    0 -0.47418510867E+02 -0.10443410076E+02  0.69545912782E+02  0.15113478114E+03  0.12509000000E+03 0.  0.
         25    1    4    4    0    0  0.74157765338E+01 -0.40096124200E+02  0.14435057878E+02  0.13235774217E+03  0.12509000000E+03 0.  0.
         25    1    3    3    0    0  0.40002734333E+02  0.50539534275E+02  0.21578784951E+03  0.25761670632E+03  0.12509000000E+03 0.  0.
<mgrwt>
<rscale>  2 0.45048624E+03</rscale>
<asrwt>0</asrwt>
<pdfrwt beam="1">  1       21 0.61829268E-01 0.45048624E+03</pdfrwt>
<pdfrwt beam="2">  1       21 0.17745619E-01 0.45048624E+03</pdfrwt>
<totfact> 0.64739578E+04</totfact>
</mgrwt>
</event>
<event>
 7    0  0.4737014E-002  0.4539510E+03  0.7546771E-02  0.1026550E+00
         21   -1    0    0  502  501  0.00000000000E+00  0.00000000000E+00  0.11148593881E+03  0.11148593881E+03  0.00000000000E+00 0. -1.
         21   -1    0    0  501  502 -0.00000000000E+00 -0.00000000000E+00 -0.46210207587E+03  0.46210207587E+03  0.00000000000E+00 0. -1.
      99926    2    1    2    0    0  0.14210854715E-13  0.00000000000E+00 -0.35061613705E+03  0.57358801468E+03  0.45395102712E+03 0.  0.
      99925    2    3    3    0    0  0.99522855184E+02 -0.36791502348E+02 -0.26699632141E+03  0.38947339001E+03  0.26295260510E+03 0.  0.
         25    1    4    4    0    0  0.22714078905E+02  0.10993158808E+02 -0.14135576126E+03  0.19043565387E+03  0.12509000000E+03 0.  0.
         25    1    3    3    0    0 -0.99522855184E+02  0.36791502348E+02 -0.83619815649E+02  0.18411462467E+03  0.12509000000E+03 0.  0.
         25    1    4    4    0    0  0.76808776279E+02 -0.47784661155E+02 -0.12564056014E+03  0.19903773614E+03  0.12509000000E+03 0.  0.
<mgrwt>
<rscale>  2 0.45395103E+03</rscale>
<asrwt>0</asrwt>
<pdfrwt beam="1">  1       21 0.16394991E-01 0.45395103E+03</pdfrwt>
<pdfrwt beam="2">  1       21 0.67956188E-01 0.45395103E+03</pdfrwt>
<totfact> 0.60837211E+04</totfact>
</mgrwt>
</event>
<event>
 7    0  0.4737014E-002  0.4615346E+03  0.7546771E-02  0.1024337E+00
         21   -1    0    0  502  501  0.00000000000E+00  0.00000000000E+00  0.11496534986E+03  0.11496534986E+03  0.00000000000E+00 0. -1.
         21   -1    0    0  501  502 -0.00000000000E+00 -0.00000000000E+00 -0.46321382408E+03  0.46321382408E+03  0.00000000000E+00 0. -1.
      99926    2    1    2    0    0 -0.14210854715E-13  0.71054273576E-14 -0.34824847422E+03  0.57817917393E+03  0.46153456791E+03 0.  0.
      99925    2    3    3    0    0 -0.93113879598E+02  0.58046161129E+02 -0.27593191473E+03  0.39674945125E+03  0.26312003745E+03 0.  0.
         25    1    3    3    0    0  0.93113879598E+02 -0.58046161129E+02 -0.72316559489E+02  0.18142972268E+03  0.12509000000E+03 0.  0.
         25    1    4    4    0    0 -0.77303539159E+02  0.48963268065E+02 -0.11998873365E+03  0.19600521189E+03  0.12509000000E+03 0.  0.
         25    1    4    4    0    0 -0.15810340439E+02  0.90828930644E+01 -0.15594318108E+03  0.20074423936E+03  0.12509000000E+03 0.  0.
<mgrwt>
<rscale>  2 0.46153457E+03</rscale>
<asrwt>0</asrwt>
<pdfrwt beam="1">  1       21 0.16906669E-01 0.46153457E+03</pdfrwt>
<pdfrwt beam="2">  1       21 0.68119679E-01 0.46153457E+03</pdfrwt>
<totfact> 0.57037506E+04</totfact>
</mgrwt>
</event>
<event>
 7    0  0.4737014E-002  0.4569870E+03  0.7546771E-02  0.1025659E+00
         21   -1    0    0  502  501  0.00000000000E+00  0.00000000000E+00  0.16179796043E+03  0.16179796043E+03  0.00000000000E+00 0.  1.
         21   -1    0    0  501  502 -0.00000000000E+00 -0.00000000000E+00 -0.32268190947E+03  0.32268190947E+03  0.00000000000E+00 0.  1.
      99926    2    1    2    0    0  0.71054273576E-14  0.71054273576E-14 -0.16088394904E+03  0.48447986989E+03  0.45698697933E+03 0.  0.
      99925    2    3    3    0    0 -0.61806302873E+02 -0.62054438764E+02 -0.21811666023E+02  0.27793839598E+03  0.26287493364E+03 0.  0.
         25    1    4    4    0    0 -0.19405035086E+02 -0.62758269960E+02  0.11386578194E+02  0.14174737422E+03  0.12509000000E+03 0.  0.
         25    1    3    3    0    0  0.61806302873E+02  0.62054438764E+02 -0.13907228301E+03  0.20654147392E+03  0.12509000000E+03 0.  0.
         25    1    4    4    0    0 -0.42401267787E+02  0.70383119538E+00 -0.33198244218E+02  0.13619102176E+03  0.12509000000E+03 0.  0.
<mgrwt>
<rscale>  2 0.45698698E+03</rscale>
<asrwt>0</asrwt>
<pdfrwt beam="1">  1       21 0.23793818E-01 0.45698698E+03</pdfrwt>
<pdfrwt beam="2">  1       21 0.47453222E-01 0.45698698E+03</pdfrwt>
<totfact> 0.65338742E+04</totfact>
</mgrwt>
</event>
<event>
 7    0  0.4737014E-002  0.4550113E+03  0.7546771E-02  0.1026238E+00
         21   -1    0    0  502  501  0.00000000000E+00  0.00000000000E+00  0.11410148965E+03  0.11410148965E+03  0.00000000000E+00 0.  1.
         21   -1    0    0  501  502 -0.00000000000E+00 -0.00000000000E+00 -0.45362089973E+03  0.45362089973E+03  0.00000000000E+00 0.  1.
      99926    2    1    2    0    0  0.00000000000E+00  0.00000000000E+00 -0.33951941008E+03  0.56772238937E+03  0.45501129829E+03 0.  0.
      99925    2    3    3    0    0  0.32248444826E+02 -0.46432112059E+02 -0.91475232767E+02  0.28422754776E+03  0.26310012822E+03 0.  0.
         25    1    3    3    0    0 -0.32248444826E+02  0.46432112059E+02 -0.24804417731E+03  0.28349484162E+03  0.12509000000E+03 0.  0.
         25    1    4    4    0    0  0.17934012268E+02  0.16463454548E+02 -0.31716957179E+02  0.13132458873E+03  0.12509000000E+03 0.  0.
         25    1    4    4    0    0  0.14314432557E+02 -0.62895566607E+02 -0.59758275588E+02  0.15290295903E+03  0.12509000000E+03 0.  0.
<mgrwt>
<rscale>  2 0.45501130E+03</rscale>
<asrwt>0</asrwt>
<pdfrwt beam="1">  1       21 0.16779631E-01 0.45501130E+03</pdfrwt>
<pdfrwt beam="2">  1       21 0.66708956E-01 0.45501130E+03</pdfrwt>
<totfact> 0.60704946E+04</totfact>
</mgrwt>
</event>
<event>
 7    0  0.4737014E-002  0.4539952E+03  0.7546771E-02  0.1026537E+00
         21   -1    0    0  502  501  0.00000000000E+00  0.00000000000E+00  0.13183697328E+03  0.13183697328E+03  0.00000000000E+00 0. -1.
         21   -1    0    0  501  502 -0.00000000000E+00 -0.00000000000E+00 -0.39084562570E+03  0.39084562570E+03  0.00000000000E+00 0. -1.
      99926    2    1    2    0    0  0.00000000000E+00  0.00000000000E+00 -0.25900865242E+03  0.52268259897E+03  0.45399517315E+03 0.  0.
      99925    2    3    3    0    0 -0.95259113129E+02  0.59507945455E+01 -0.95233492578E+02  0.29557134502E+03  0.26302716837E+03 0.  0.
         25    1    4    4    0    0 -0.70823295167E+02 -0.29822294092E+01 -0.85852407195E+02  0.16746037368E+03  0.12509000000E+03 0.  0.
         25    1    4    4    0    0 -0.24435817962E+02  0.89330239547E+01 -0.93810853837E+01  0.12811097135E+03  0.12509000000E+03 0.  0.
         25    1    3    3    0    0  0.95259113129E+02 -0.59507945455E+01 -0.16377515984E+03  0.22711125395E+03  0.12509000000E+03 0.  0.
<mgrwt>
<rscale>  2 0.45399517E+03</rscale>
<asrwt>0</asrwt>
<pdfrwt beam="1">  1       21 0.19387790E-01 0.45399517E+03</pdfrwt>
<pdfrwt beam="2">  1       21 0.57477298E-01 0.45399517E+03</pdfrwt>
<totfact> 0.64214554E+04</totfact>
</mgrwt>
</event>
<event>
 7    0  0.4737014E-002  0.4641791E+03  0.7546771E-02  0.1023576E+00
         21   -1    0    0  502  501  0.00000000000E+00  0.00000000000E+00  0.11555303471E+04  0.11555303471E+04  0.00000000000E+00 0. -1.
         21   -1    0    0  501  502 -0.00000000000E+00 -0.00000000000E+00 -0.46615438343E+02  0.46615438343E+02  0.00000000000E+00 0. -1.
      99926    2    1    2    0    0  0.00000000000E+00  0.00000000000E+00  0.11089149088E+04  0.12021457854E+04  0.46417907600E+03 0.  0.
      99925    2    3    3    0    0  0.46729110625E+02  0.10484670588E+03  0.79578302406E+03  0.84594987470E+03  0.26302875816E+03 0.  0.
         25    1    4    4    0    0  0.11891670664E+02  0.55911088939E+02  0.51060241025E+03  0.52880033203E+03  0.12509000000E+03 0.  0.
         25    1    4    4    0    0  0.34837439961E+02  0.48935616936E+02  0.28518061381E+03  0.31714954268E+03  0.12509000000E+03 0.  0.
         25    1    3    3    0    0 -0.46729110625E+02 -0.10484670588E+03  0.31313188470E+03  0.35619591074E+03  0.12509000000E+03 0.  0.
<mgrwt>
<rscale>  2 0.46417908E+03</rscale>
<asrwt>0</asrwt>
<pdfrwt beam="1">  1       21 0.16993091E+00 0.46417908E+03</pdfrwt>
<pdfrwt beam="2">  1       21 0.68552123E-02 0.46417908E+03</pdfrwt>
<totfact> 0.29892693E+04</totfact>
</mgrwt>
</event>
<event>
 7    0  0.4737014E-002  0.4521329E+03  0.7546771E-02  0.1027088E+00
         21   -1    0    0  502  501  0.00000000000E+00  0.00000000000E+00  0.18766436703E+04  0.18766436703E+04  0.00000000000E+00 0. -1.
         21   -1    0    0  501  502 -0.00000000000E+00 -0.00000000000E+00 -0.27232676194E+02  0.27232676194E+02  0.00000000000E+00 0. -1.
      99926    2    1    2    0    0  0.00000000000E+00  0.00000000000E+00  0.18494109941E+04  0.19038763465E+04  0.45213285394E+03 0.  0.
      99925    2    3    3    0    0  0.13594842933E+02 -0.56802232360E+02  0.15604546936E+04  0.15836349296E+04  0.26357053380E+03 0.  0.
         25    1    4    4    0    0  0.13610070100E+02 -0.44048272263E+02  0.57849743809E+03  0.59366006963E+03  0.12509000000E+03 0.  0.
         25    1    4    4    0    0 -0.15227167147E-01 -0.12753960097E+02  0.98195725550E+03  0.98997486001E+03  0.12509000000E+03 0.  0.
         25    1    3    3    0    0 -0.13594842933E+02  0.56802232360E+02  0.28895630048E+03  0.32024141682E+03  0.12509000000E+03 0.  0.
<mgrwt>
<rscale>  2 0.45213285E+03</rscale>
<asrwt>0</asrwt>
<pdfrwt beam="1">  1       21 0.27597692E+00 0.45213285E+03</pdfrwt>
<pdfrwt beam="2">  1       21 0.40048066E-02 0.45213285E+03</pdfrwt>
<totfact> 0.15689466E+04</totfact>
</mgrwt>
</event>
<event>
 7    0  0.4737014E-002  0.4539286E+03  0.7546771E-02  0.1026557E+00
         21   -1    0    0  502  501  0.00000000000E+00  0.00000000000E+00  0.91566666275E+03  0.91566666275E+03  0.00000000000E+00 0. -1.
         21   -1    0    0  501  502 -0.00000000000E+00 -0.00000000000E+00 -0.56257147949E+02  0.56257147949E+02  0.00000000000E+00 0. -1.
      99926    2    1    2    0    0  0.88817841970E-15  0.00000000000E+00  0.85940951480E+03  0.97192381070E+03  0.45392860636E+03 0.  0.
      99925    2    3    3    0    0  0.40888780384E+01 -0.89378998258E+02  0.39631397294E+03  0.48395832704E+03  0.26295545803E+03 0.  0.
         25    1    4    4    0    0  0.38522032538E+02 -0.50150856876E+02  0.17208298172E+03  0.22194394818E+03  0.12509000000E+03 0.  0.
         25    1    3    3    0    0 -0.40888780384E+01  0.89378998258E+02  0.46309554186E+03  0.48796548366E+03  0.12509000000E+03 0.  0.
         25    1    4    4    0    0 -0.34433154500E+02 -0.39228141382E+02  0.22423099122E+03  0.26201437886E+03  0.12509000000E+03 0.  0.
<mgrwt>
<rscale>  2 0.45392861E+03</rscale>
<asrwt>0</asrwt>
<pdfrwt beam="1">  1       21 0.13465685E+00 0.45392861E+03</pdfrwt>
<pdfrwt beam="2">  1       21 0.82731106E-02 0.45392861E+03</pdfrwt>
<totfact> 0.40604603E+04</totfact>
</mgrwt>
</event>
<event>
 7    0  0.4737014E-002  0.4575433E+03  0.7546771E-02  0.1025496E+00
         21   -1    0    0  502  501  0.00000000000E+00  0.00000000000E+00  0.15495264413E+03  0.15495264413E+03  0.00000000000E+00 0.  1.
         21   -1    0    0  501  502 -0.00000000000E+00 -0.00000000000E+00 -0.33775777363E+03  0.33775777363E+03  0.00000000000E+00 0.  1.
      99926    2    1    2    0    0  0.00000000000E+00  0.00000000000E+00 -0.18280512950E+03  0.49271041776E+03  0.45754326615E+03 0.  0.
      99925    2    3    3    0    0 -0.55669185116E+02 -0.92691709114E+02 -0.15869259406E+03  0.32561842640E+03  0.26296997755E+03 0.  0.
         25    1    3    3    0    0  0.55669185116E+02  0.92691709114E+02 -0.24112535439E+02  0.16709199136E+03  0.12509000000E+03 0.  0.
         25    1    4    4    0    0 -0.10071318362E+02 -0.64396481750E+02 -0.44380262408E+02  0.14786972005E+03  0.12509000000E+03 0.  0.
         25    1    4    4    0    0 -0.45597866754E+02 -0.28295227364E+02 -0.11431233165E+03  0.17774870636E+03  0.12509000000E+03 0.  0.
<mgrwt>
<rscale>  2 0.45754327E+03</rscale>
<asrwt>0</asrwt>
<pdfrwt beam="1">  1       21 0.22787154E-01 0.45754327E+03</pdfrwt>
<pdfrwt beam="2">  1       21 0.49670260E-01 0.45754327E+03</pdfrwt>
<totfact> 0.64474256E+04</totfact>
</mgrwt>
</event>
<event>
 7    0  0.4737014E-002  0.4552920E+03  0.7546771E-02  0.1026156E+00
         21   -1    0    0  502  501  0.00000000000E+00  0.00000000000E+00  0.33989131585E+03  0.33989131585E+03  0.00000000000E+00 0. -1.
         21   -1    0    0  501  502 -0.00000000000E+00 -0.00000000000E+00 -0.15246845750E+03  0.15246845750E+03  0.00000000000E+00 0. -1.
      99926    2    1    2    0    0  0.00000000000E+00  0.00000000000E+00  0.18742285835E+03  0.49235977335E+03  0.45529201462E+03 0.  0.
      99925    2    3    3    0    0 -0.22326310271E+02 -0.11052169304E+03  0.13147401421E+03  0.31490191913E+03  0.26299105212E+03 0.  0.
         25    1    4    4    0    0 -0.54224632783E+01 -0.82740374004E+02  0.10448511724E+03  0.18286612705E+03  0.12509000000E+03 0.  0.
         25    1    4    4    0    0 -0.16903846992E+02 -0.27781319037E+02  0.26988896970E+02  0.13203579208E+03  0.12509000000E+03 0.  0.
         25    1    3    3    0    0  0.22326310271E+02  0.11052169304E+03  0.55948844141E+02  0.17745785422E+03  0.12509000000E+03 0.  0.
<mgrwt>
<rscale>  2 0.45529201E+03</rscale>
<asrwt>0</asrwt>
<pdfrwt beam="1">  1       21 0.49984017E-01 0.45529201E+03</pdfrwt>
<pdfrwt beam="2">  1       21 0.22421832E-01 0.45529201E+03</pdfrwt>
<totfact> 0.65658466E+04</totfact>
</mgrwt>
</event>
<event>
 7    0  0.4737014E-002  0.4520480E+03  0.7546771E-02  0.1027113E+00
         21   -1    0    0  502  501  0.00000000000E+00  0.00000000000E+00  0.14701794899E+03  0.14701794899E+03  0.00000000000E+00 0.  1.
         21   -1    0    0  501  502 -0.00000000000E+00 -0.00000000000E+00 -0.34748718500E+03  0.34748718500E+03  0.00000000000E+00 0.  1.
      99926    2    1    2    0    0 -0.14210854715E-13  0.00000000000E+00 -0.20046923601E+03  0.49450513399E+03  0.45204802063E+03 0.  0.
      99925    2    3    3    0    0  0.70876859997E+02 -0.79815850208E+02 -0.96500889946E+02  0.29995173693E+03  0.26318154095E+03 0.  0.
         25    1    3    3    0    0 -0.70876859997E+02  0.79815850208E+02 -0.10396834606E+03  0.19455339707E+03  0.12509000000E+03 0.  0.
         25    1    4    4    0    0  0.56494781431E+02 -0.33952944694E+02 -0.86093332261E+02  0.16554163447E+03  0.12509000000E+03 0.  0.
         25    1    4    4    0    0  0.14382078565E+02 -0.45862905514E+02 -0.10407557686E+02  0.13441010246E+03  0.12509000000E+03 0.  0.
<mgrwt>
<rscale>  2 0.45204802E+03</rscale>
<asrwt>0</asrwt>
<pdfrwt beam="1">  1       21 0.21620287E-01 0.45204802E+03</pdfrwt>
<pdfrwt beam="2">  1       21 0.51101056E-01 0.45204802E+03</pdfrwt>
<totfact> 0.67219921E+04</totfact>
</mgrwt>
</event>
<event>
 7    0  0.4737014E-002  0.4570729E+03  0.7546771E-02  0.1025634E+00
         21   -1    0    0  502  501  0.00000000000E+00  0.00000000000E+00  0.13196833828E+03  0.13196833828E+03  0.00000000000E+00 0. -1.
         21   -1    0    0  501  502 -0.00000000000E+00 -0.00000000000E+00 -0.39576854786E+03  0.39576854786E+03  0.00000000000E+00 0. -1.
      99926    2    1    2    0    0 -0.71054273576E-14  0.00000000000E+00 -0.26380020958E+03  0.52773688615E+03  0.45707293775E+03 0.  0.
      99925    2    3    3    0    0  0.57192292549E+02 -0.82244915440E+02 -0.10028158306E+03  0.29878048470E+03  0.26301748553E+03 0.  0.
         25    1    4    4    0    0  0.15648870548E+02 -0.77350315539E+02 -0.36867248370E+02  0.15242919853E+03  0.12509000000E+03 0.  0.
         25    1    3    3    0    0 -0.57192292549E+02  0.82244915440E+02 -0.16351862652E+03  0.22895640144E+03  0.12509000000E+03 0.  0.
         25    1    4    4    0    0  0.41543422000E+02 -0.48945999004E+01 -0.63414334688E+02  0.14635128617E+03  0.12509000000E+03 0.  0.
<mgrwt>
<rscale>  2 0.45707294E+03</rscale>
<asrwt>0</asrwt>
<pdfrwt beam="1">  1       21 0.19407109E-01 0.45707294E+03</pdfrwt>
<pdfrwt beam="2">  1       21 0.58201257E-01 0.45707294E+03</pdfrwt>
<totfact> 0.62329488E+04</totfact>
</mgrwt>
</event>
<event>
 7    0  0.4737014E-002  0.4514068E+03  0.7546771E-02  0.1027303E+00
         21   -1    0    0  502  501  0.00000000000E+00  0.00000000000E+00  0.18604536768E+04  0.18604536768E+04  0.00000000000E+00 0. -1.
         21   -1    0    0  501  502 -0.00000000000E+00 -0.00000000000E+00 -0.27381506562E+02  0.27381506562E+02  0.00000000000E+00 0. -1.
      99926    2    1    2    0    0  0.00000000000E+00  0.00000000000E+00  0.18330721702E+04  0.18878351833E+04  0.45140679905E+03 0.  0.
      99925    2    3    3    0    0 -0.21180384842E+02 -0.95494366410E+02  0.94831183120E+03  0.98893799883E+03  0.26293583556E+03 0.  0.
         25    1    4    4    0    0 -0.21370766489E+00 -0.36692466236E+02  0.32561978001E+03  0.35074510971E+03  0.12509000000E+03 0.  0.
         25    1    4    4    0    0 -0.20966677177E+02 -0.58801900174E+02  0.62269205118E+03  0.63819288912E+03  0.12509000000E+03 0.  0.
         25    1    3    3    0    0  0.21180384842E+02  0.95494366410E+02  0.88476033900E+03  0.89889718449E+03  0.12509000000E+03 0.  0.
<mgrwt>
<rscale>  2 0.45140680E+03</rscale>
<asrwt>0</asrwt>
<pdfrwt beam="1">  1       21 0.27359604E+00 0.45140680E+03</pdfrwt>
<pdfrwt beam="2">  1       21 0.40266934E-02 0.45140680E+03</pdfrwt>
<totfact> 0.16072246E+04</totfact>
</mgrwt>
</event>
<event>
 7    0  0.4737014E-002  0.4561066E+03  0.7546771E-02  0.1025916E+00
         21   -1    0    0  502  501  0.00000000000E+00  0.00000000000E+00  0.42576849027E+03  0.42576849027E+03  0.00000000000E+00 0. -1.
         21   -1    0    0  501  502 -0.00000000000E+00 -0.00000000000E+00 -0.12215163248E+03  0.12215163248E+03  0.00000000000E+00 0. -1.
      99926    2    1    2    0    0  0.00000000000E+00  0.00000000000E+00  0.30361685779E+03  0.54792012275E+03  0.45610663729E+03 0.  0.
      99925    2    3    3    0    0 -0.72711297177E+02  0.38354776946E+02  0.95158263097E+02  0.29128708619E+03  0.26274521860E+03 0.  0.
         25    1    4    4    0    0 -0.59670673989E+02  0.51526209087E+02  0.63556420112E+02  0.16094243131E+03  0.12509000000E+03 0.  0.
         25    1    4    4    0    0 -0.13040623188E+02 -0.13171432141E+02  0.31601842985E+02  0.13034465489E+03  0.12509000000E+03 0.  0.
         25    1    3    3    0    0  0.72711297177E+02 -0.38354776946E+02  0.20845859469E+03  0.25663303656E+03  0.12509000000E+03 0.  0.
<mgrwt>
<rscale>  2 0.45610664E+03</rscale>
<asrwt>0</asrwt>
<pdfrwt beam="1">  1       21 0.62613013E-01 0.45610664E+03</pdfrwt>
<pdfrwt beam="2">  1       21 0.17963476E-01 0.45610664E+03</pdfrwt>
<totfact> 0.61464205E+04</totfact>
</mgrwt>
</event>
<event>
 7    0  0.4737014E-002  0.4539630E+03  0.7546771E-02  0.1026547E+00
         21   -1    0    0  502  501  0.00000000000E+00  0.00000000000E+00  0.55333818993E+03  0.55333818993E+03  0.00000000000E+00 0. -1.
         21   -1    0    0  501  502 -0.00000000000E+00 -0.00000000000E+00 -0.93108722658E+02  0.93108722658E+02  0.00000000000E+00 0. -1.
      99926    2    1    2    0    0  0.00000000000E+00 -0.14210854715E-13  0.46022946727E+03  0.64644691258E+03  0.45396304723E+03 0.  0.
      99925    2    3    3    0    0  0.51176765323E+02  0.73824995197E+02  0.38551051284E+03  0.47527559058E+03  0.26305767480E+03 0.  0.
         25    1    3    3    0    0 -0.51176765323E+02 -0.73824995197E+02  0.74718954430E+02  0.17117132200E+03  0.12509000000E+03 0.  0.
         25    1    4    4    0    0  0.16182330152E+02  0.73365171718E+02  0.17425213599E+03  0.22727875225E+03  0.12509000000E+03 0.  0.
         25    1    4    4    0    0  0.34994435172E+02  0.45982347943E+00  0.21125837685E+03  0.24799683833E+03  0.12509000000E+03 0.  0.
<mgrwt>
<rscale>  2 0.45396305E+03</rscale>
<asrwt>0</asrwt>
<pdfrwt beam="1">  1       21 0.81373262E-01 0.45396305E+03</pdfrwt>
<pdfrwt beam="2">  1       21 0.13692459E-01 0.45396305E+03</pdfrwt>
<totfact> 0.56366387E+04</totfact>
</mgrwt>
</event>
<event>
 7    0  0.4737014E-002  0.4566400E+03  0.7546771E-02  0.1025760E+00
         21   -1    0    0  502  501  0.00000000000E+00  0.00000000000E+00  0.24636379478E+03  0.24636379478E+03  0.00000000000E+00 0.  1.
         21   -1    0    0  501  502 -0.00000000000E+00 -0.00000000000E+00 -0.21159777492E+03  0.21159777492E+03  0.00000000000E+00 0.  1.
      99926    2    1    2    0    0  0.14210854715E-13  0.00000000000E+00  0.34766019868E+02  0.45796156970E+03  0.45664003677E+03 0.  0.
      99925    2    3    3    0    0 -0.88374510193E+02 -0.57186439460E+02  0.67653741352E+02  0.29119990374E+03  0.26294488455E+03 0.  0.
         25    1    3    3    0    0  0.88374510193E+02  0.57186439460E+02 -0.32887721484E+02  0.16676166596E+03  0.12509000000E+03 0.  0.
         25    1    4    4    0    0 -0.74825958174E+02 -0.31807299185E+02  0.65211579284E+02  0.16282102589E+03  0.12509000000E+03 0.  0.
         25    1    4    4    0    0 -0.13548552019E+02 -0.25379140275E+02  0.24421620680E+01  0.12837887785E+03  0.12509000000E+03 0.  0.
<mgrwt>
<rscale>  2 0.45664004E+03</rscale>
<asrwt>0</asrwt>
<pdfrwt beam="1">  1       21 0.36229970E-01 0.45664004E+03</pdfrwt>
<pdfrwt beam="2">  1       21 0.31117320E-01 0.45664004E+03</pdfrwt>
<totfact> 0.67442564E+04</totfact>
</mgrwt>
</event>
<event>
 7    0  0.4737014E-002  0.4549409E+03  0.7546771E-02  0.1026259E+00
         21   -1    0    0  502  501  0.00000000000E+00  0.00000000000E+00  0.74955101978E+02  0.74955101978E+02  0.00000000000E+00 0.  1.
         21   -1    0    0  501  502 -0.00000000000E+00 -0.00000000000E+00 -0.69031734521E+03  0.69031734521E+03  0.00000000000E+00 0.  1.
      99926    2    1    2    0    0  0.14210854715E-13  0.71054273576E-14 -0.61536224323E+03  0.76527244719E+03  0.45494090608E+03 0.  0.
      99925    2    3    3    0    0  0.10697489579E+03  0.36226275273E+02 -0.39732713539E+03  0.48969525709E+03  0.26301448810E+03 0.  0.
         25    1    4    4    0    0  0.20909778475E+02 -0.43068153526E+01 -0.20785215918E+03  0.24352781293E+03  0.12509000000E+03 0.  0.
         25    1    3    3    0    0 -0.10697489579E+03 -0.36226275273E+02 -0.21803510784E+03  0.27557719010E+03  0.12509000000E+03 0.  0.
         25    1    4    4    0    0  0.86065117319E+02  0.40533090625E+02 -0.18947497621E+03  0.24616744416E+03  0.12509000000E+03 0.  0.
<mgrwt>
<rscale>  2 0.45494091E+03</rscale>
<asrwt>0</asrwt>
<pdfrwt beam="1">  1       21 0.11022809E-01 0.45494091E+03</pdfrwt>
<pdfrwt beam="2">  1       21 0.10151725E+00 0.45494091E+03</pdfrwt>
<totfact> 0.49513185E+04</totfact>
</mgrwt>
</event>
<event>
 7    0  0.4737014E-002  0.4426285E+03  0.7546771E-02  0.1029943E+00
         21   -1    0    0  502  501  0.00000000000E+00  0.00000000000E+00  0.41996070396E+02  0.41996070396E+02  0.00000000000E+00 0. -1.
         21   -1    0    0  501  502 -0.00000000000E+00 -0.00000000000E+00 -0.11662997742E+04  0.11662997742E+04  0.00000000000E+00 0. -1.
      99926    2    1    2    0    0  0.00000000000E+00 -0.71054273576E-14 -0.11243037038E+04  0.12082958446E+04  0.44262854594E+03 0.  0.
      99925    2    3    3    0    0 -0.86622750015E+02  0.51061169508E+02 -0.74453193458E+03  0.79600365615E+03  0.26302713766E+03 0.  0.
         25    1    4    4    0    0 -0.10110907186E+02  0.62797811879E+01 -0.38990854007E+03  0.40965576258E+03  0.12509000000E+03 0.  0.
         25    1    3    3    0    0  0.86622750015E+02 -0.51061169508E+02 -0.37977176920E+03  0.41229218842E+03  0.12509000000E+03 0.  0.
         25    1    4    4    0    0 -0.76511842829E+02  0.44781388320E+02 -0.35462339451E+03  0.38634789357E+03  0.12509000000E+03 0.  0.
<mgrwt>
<rscale>  2 0.44262855E+03</rscale>
<asrwt>0</asrwt>
<pdfrwt beam="1">  1       21 0.61758915E-02 0.44262855E+03</pdfrwt>
<pdfrwt beam="2">  1       21 0.17151470E+00 0.44262855E+03</pdfrwt>
<totfact> 0.35162249E+04</totfact>
</mgrwt>
</event>
<event>
 7    0  0.4737014E-002  0.4530419E+03  0.7546771E-02  0.1026819E+00
         21   -1    0    0  502  501  0.00000000000E+00  0.00000000000E+00  0.26037669045E+03  0.26037669045E+03  0.00000000000E+00 0.  1.
         21   -1    0    0  501  502 -0.00000000000E+00 -0.00000000000E+00 -0.19706729571E+03  0.19706729571E+03  0.00000000000E+00 0.  1.
      99926    2    1    2    0    0  0.00000000000E+00  0.00000000000E+00  0.63309394737E+02  0.45744398615E+03  0.45304185348E+03 0.  0.
      99925    2    3    3    0    0 -0.10297233187E+03  0.37423173365E+02  0.20314240849E+02  0.28568867650E+03  0.26306188714E+03 0.  0.
         25    1    4    4    0    0 -0.10143073975E+02  0.11891474332E+02 -0.31624363942E+01  0.12610233232E+03  0.12509000000E+03 0.  0.
         25    1    3    3    0    0  0.10297233187E+03 -0.37423173365E+02  0.42995153889E+02  0.17175530965E+03  0.12509000000E+03 0.  0.
         25    1    4    4    0    0 -0.92829257894E+02  0.25531699033E+02  0.23476677243E+02  0.15958634419E+03  0.12509000000E+03 0.  0.
<mgrwt>
<rscale>  2 0.45304185E+03</rscale>
<asrwt>0</asrwt>
<pdfrwt beam="1">  1       21 0.38290690E-01 0.45304185E+03</pdfrwt>
<pdfrwt beam="2">  1       21 0.28980485E-01 0.45304185E+03</pdfrwt>
<totfact> 0.69445373E+04</totfact>
</mgrwt>
</event>
<event>
 7    0  0.4737014E-002  0.4518541E+03  0.7546771E-02  0.1027171E+00
         21   -1    0    0  502  501  0.00000000000E+00  0.00000000000E+00  0.36669668416E+02  0.36669668416E+02  0.00000000000E+00 0.  1.
         21   -1    0    0  501  502 -0.00000000000E+00 -0.00000000000E+00 -0.13919689663E+04  0.13919689663E+04  0.00000000000E+00 0.  1.
      99926    2    1    2    0    0  0.00000000000E+00  0.35527136788E-14 -0.13552992979E+04  0.14286386347E+04  0.45185413771E+03 0.  0.
      99925    2    3    3    0    0  0.29082263212E+02  0.11054559198E+02 -0.11894441298E+04  0.12185828655E+04  0.26305680145E+03 0.  0.
         25    1    4    4    0    0  0.37519257500E+02  0.34134153887E+02 -0.52915907006E+03  0.54610407861E+03  0.12509000000E+03 0.  0.
         25    1    3    3    0    0 -0.29082263212E+02 -0.11054559198E+02 -0.16585516807E+03  0.21005576923E+03  0.12509000000E+03 0.  0.
         25    1    4    4    0    0 -0.84369942883E+01 -0.23079594688E+02 -0.66028505979E+03  0.67247878691E+03  0.12509000000E+03 0.  0.
<mgrwt>
<rscale>  2 0.45185414E+03</rscale>
<asrwt>0</asrwt>
<pdfrwt beam="1">  1       21 0.53925977E-02 0.45185414E+03</pdfrwt>
<pdfrwt beam="2">  1       21 0.20470134E+00 0.45185414E+03</pdfrwt>
<totfact> 0.26213685E+04</totfact>
</mgrwt>
</event>
<event>
 7    0  0.4737014E-002  0.4629923E+03  0.7546771E-02  0.1023917E+00
         21   -1    0    0  502  501  0.00000000000E+00  0.00000000000E+00  0.57560919312E+02  0.57560919312E+02  0.00000000000E+00 0.  1.
         21   -1    0    0  501  502 -0.00000000000E+00 -0.00000000000E+00 -0.93102175480E+03  0.93102175480E+03  0.00000000000E+00 0.  1.
      99926    2    1    2    0    0 -0.35527136788E-14  0.00000000000E+00 -0.87346083549E+03  0.98858267411E+03  0.46299230277E+03 0.  0.
      99925    2    3    3    0    0 -0.16651240422E+02 -0.11802818247E+03 -0.50559356548E+03  0.58215709407E+03  0.26281954468E+03 0.  0.
         25    1    4    4    0    0 -0.16450643141E+01 -0.95135869393E+02 -0.32213649289E+03  0.35843125984E+03  0.12509000000E+03 0.  0.
         25    1    3    3    0    0  0.16651240422E+02  0.11802818247E+03 -0.36786727001E+03  0.40642558004E+03  0.12509000000E+03 0.  0.
         25    1    4    4    0    0 -0.15006176108E+02 -0.22892313075E+02 -0.18345707259E+03  0.22372583423E+03  0.12509000000E+03 0.  0.
<mgrwt>
<rscale>  2 0.46299230E+03</rscale>
<asrwt>0</asrwt>
<pdfrwt beam="1">  1       21 0.84648417E-02 0.46299230E+03</pdfrwt>
<pdfrwt beam="2">  1       21 0.13691495E+00 0.46299230E+03</pdfrwt>
<totfact> 0.37234355E+04</totfact>
</mgrwt>
</event>
<event>
 7    0  0.4737014E-002  0.4102091E+03  0.7546771E-02  0.1040301E+00
         21   -1    0    0  502  501  0.00000000000E+00  0.00000000000E+00  0.14671721040E+03  0.14671721040E+03  0.00000000000E+00 0. -1.
         21   -1    0    0  501  502 -0.00000000000E+00 -0.00000000000E+00 -0.28672758349E+03  0.28672758349E+03  0.00000000000E+00 0. -1.
      99926    2    1    2    0    0  0.17763568394E-14  0.00000000000E+00 -0.14001037309E+03  0.43344479389E+03  0.41020907447E+03 0.  0.
      99925    2    3    3    0    0 -0.15643383009E+02  0.38358702946E+02 -0.14174542367E+03  0.30166230635E+03  0.26304424801E+03 0.  0.
         25    1    3    3    0    0  0.15643383009E+02 -0.38358702946E+02  0.17350505869E+01  0.13178248755E+03  0.12509000000E+03 0.  0.
         25    1    4    4    0    0  0.32365406836E+02  0.25321949304E+02 -0.70005215637E+02  0.14912061894E+03  0.12509000000E+03 0.  0.
         25    1    4    4    0    0 -0.48008789844E+02  0.13036753643E+02 -0.71740208035E+02  0.15254168741E+03  0.12509000000E+03 0.  0.
<mgrwt>
<rscale>  2 0.41020907E+03</rscale>
<asrwt>0</asrwt>
<pdfrwt beam="1">  1       21 0.21576061E-01 0.41020907E+03</pdfrwt>
<pdfrwt beam="2">  1       21 0.42165820E-01 0.41020907E+03</pdfrwt>
<totfact> 0.10194148E+05</totfact>
</mgrwt>
</event>
<event>
 7    0  0.4737014E-002  0.4600810E+03  0.7546771E-02  0.1024758E+00
         21   -1    0    0  502  501  0.00000000000E+00  0.00000000000E+00  0.15370423259E+04  0.15370423259E+04  0.00000000000E+00 0. -1.
         21   -1    0    0  501  502 -0.00000000000E+00 -0.00000000000E+00 -0.34428864761E+02  0.34428864761E+02  0.00000000000E+00 0. -1.
      99926    2    1    2    0    0 -0.14210854715E-13  0.14210854715E-13  0.15026134612E+04  0.15714711907E+04  0.46008095971E+03 0.  0.
      99925    2    3    3    0    0 -0.85755138656E+02  0.72554515837E+02  0.81571869922E+03  0.86430075602E+03  0.26267984131E+03 0.  0.
         25    1    4    4    0    0 -0.83001497508E+02  0.34389151394E+02  0.47441854733E+03  0.49879086647E+03  0.12509000000E+03 0.  0.
         25    1    3    3    0    0  0.85755138656E+02 -0.72554515837E+02  0.68689476194E+03  0.70717043466E+03  0.12509000000E+03 0.  0.
         25    1    4    4    0    0 -0.27536411482E+01  0.38165364442E+02  0.34130015189E+03  0.36550988955E+03  0.12509000000E+03 0.  0.
<mgrwt>
<rscale>  2 0.46008096E+03</rscale>
<asrwt>0</asrwt>
<pdfrwt beam="1">  1       21 0.22603559E+00 0.46008096E+03</pdfrwt>
<pdfrwt beam="2">  1       21 0.50630694E-02 0.46008096E+03</pdfrwt>
<totfact> 0.21230439E+04</totfact>
</mgrwt>
</event>
<event>
 7    0  0.4737014E-002  0.4517123E+03  0.7546771E-02  0.1027213E+00
         21   -1    0    0  502  501  0.00000000000E+00  0.00000000000E+00  0.28449224501E+03  0.28449224501E+03  0.00000000000E+00 0. -1.
         21   -1    0    0  501  502 -0.00000000000E+00 -0.00000000000E+00 -0.17930539349E+03  0.17930539349E+03  0.00000000000E+00 0. -1.
      99926    2    1    2    0    0 -0.14210854715E-13  0.00000000000E+00  0.10518685152E+03  0.46379763851E+03  0.45171227098E+03 0.  0.
      99925    2    3    3    0    0 -0.88572294689E+02 -0.14290125706E+02  0.13178613001E+03  0.30757891749E+03  0.26303601910E+03 0.  0.
         25    1    4    4    0    0 -0.47819967182E+01 -0.21789711890E+02  0.56058362783E+02  0.13888019000E+03  0.12509000000E+03 0.  0.
         25    1    3    3    0    0  0.88572294689E+02  0.14290125706E+02 -0.26599278492E+02  0.15621872101E+03  0.12509000000E+03 0.  0.
         25    1    4    4    0    0 -0.83790297971E+02  0.74995861842E+01  0.75727767230E+02  0.16869872749E+03  0.12509000000E+03 0.  0.
<mgrwt>
<rscale>  2 0.45171227E+03</rscale>
<asrwt>0</asrwt>
<pdfrwt beam="1">  1       21 0.41837095E-01 0.45171227E+03</pdfrwt>
<pdfrwt beam="2">  1       21 0.26368440E-01 0.45171227E+03</pdfrwt>
<totfact> 0.69700106E+04</totfact>
</mgrwt>
</event>
<event>
 7    0  0.6097100E-002  0.4227673E+03  0.7546771E-02  0.1036169E+00
         21   -1    0    0  502  501  0.00000000000E+00  0.00000000000E+00  0.30101104056E+03  0.30101104056E+03  0.00000000000E+00 0. -1.
         21   -1    0    0  501  502 -0.00000000000E+00 -0.00000000000E+00 -0.14844322466E+03  0.14844322466E+03  0.00000000000E+00 0. -1.
      99926    2    1    2    0    0  0.71054273576E-14  0.00000000000E+00  0.15256781590E+03  0.44945426522E+03  0.42276730961E+03 0.  0.
      99925    2    3    3    0    0  0.52998065761E+02  0.40899205982E+02  0.56619323361E+02  0.27817916094E+03  0.26400067761E+03 0.  0.
         25    1    3    3    0    0 -0.52998065761E+02 -0.40899205982E+02  0.95948492537E+02  0.17127510428E+03  0.12509000000E+03 0.  0.
         25    1    4    4    0    0  0.13222175764E+02 -0.19886595797E+02  0.33586760806E+02  0.13170376314E+03  0.12509000000E+03 0.  0.
         25    1    4    4    0    0  0.39775889997E+02  0.60785801778E+02  0.23032562555E+02  0.14647539780E+03  0.12509000000E+03 0.  0.
<mgrwt>
<rscale>  2 0.42276731E+03</rscale>
<asrwt>0</asrwt>
<pdfrwt beam="1">  1       21 0.44266330E-01 0.42276731E+03</pdfrwt>
<pdfrwt beam="2">  1       21 0.21829886E-01 0.42276731E+03</pdfrwt>
<totfact> 0.89872393E+04</totfact>
</mgrwt>
</event>
<event>
 7    0  0.4737014E-002  0.4612774E+03  0.7546771E-02  0.1024411E+00
         21   -1    0    0  502  501  0.00000000000E+00  0.00000000000E+00  0.17351988074E+03  0.17351988074E+03  0.00000000000E+00 0.  1.
         21   -1    0    0  501  502 -0.00000000000E+00 -0.00000000000E+00 -0.30655977512E+03  0.30655977512E+03  0.00000000000E+00 0.  1.
      99926    2    1    2    0    0  0.00000000000E+00  0.00000000000E+00 -0.13303989439E+03  0.48007965586E+03  0.46127742462E+03 0.  0.
      99925    2    3    3    0    0 -0.88274386300E+02  0.79308033374E+02 -0.77262843667E+02  0.29885957165E+03  0.26318313988E+03 0.  0.
         25    1    4    4    0    0 -0.50771826111E+01  0.42599743382E+02 -0.52293429407E+02  0.14220628249E+03  0.12509000000E+03 0.  0.
         25    1    3    3    0    0  0.88274386300E+02 -0.79308033374E+02 -0.55777050718E+02  0.18122008421E+03  0.12509000000E+03 0.  0.
         25    1    4    4    0    0 -0.83197203689E+02  0.36708289991E+02 -0.24969414260E+02  0.15665328916E+03  0.12509000000E+03 0.  0.
<mgrwt>
<rscale>  2 0.46127742E+03</rscale>
<asrwt>0</asrwt>
<pdfrwt beam="1">  1       21 0.25517630E-01 0.46127742E+03</pdfrwt>
<pdfrwt beam="2">  1       21 0.45082319E-01 0.46127742E+03</pdfrwt>
<totfact> 0.63472682E+04</totfact>
</mgrwt>
</event>
<event>
 7    0  0.4737014E-002  0.3998030E+03  0.7546771E-02  0.1043848E+00
         21   -1    0    0  502  501  0.00000000000E+00  0.00000000000E+00  0.75806878142E+03  0.75806878142E+03  0.00000000000E+00 0.  1.
         21   -1    0    0  501  502 -0.00000000000E+00 -0.00000000000E+00 -0.52713697125E+02  0.52713697125E+02  0.00000000000E+00 0.  1.
      99926    2    1    2    0    0  0.00000000000E+00  0.00000000000E+00  0.70535508429E+03  0.81078247854E+03  0.39980299220E+03 0.  0.
      99925    2    3    3    0    0  0.21388843234E+02 -0.36188663906E+02  0.43351265321E+03  0.50860220545E+03  0.26263259676E+03 0.  0.
         25    1    4    4    0    0  0.30997291588E+02 -0.43642264547E+02  0.17992652389E+03  0.22558045447E+03  0.12509000000E+03 0.  0.
         25    1    4    4    0    0 -0.96084483533E+01  0.74536006404E+01  0.25358612932E+03  0.28302175098E+03  0.12509000000E+03 0.  0.
         25    1    3    3    0    0 -0.21388843234E+02  0.36188663906E+02  0.27184243108E+03  0.30218027309E+03  0.12509000000E+03 0.  0.
<mgrwt>
<rscale>  2 0.39980299E+03</rscale>
<asrwt>0</asrwt>
<pdfrwt beam="1">  1       21 0.11148070E+00 0.39980299E+03</pdfrwt>
<pdfrwt beam="2">  1       21 0.77520147E-02 0.39980299E+03</pdfrwt>
<totfact> 0.74726437E+04</totfact>
</mgrwt>
</event>
<event>
 7    0  0.4737014E-002  0.4568004E+03  0.7546771E-02  0.1025713E+00
         21   -1    0    0  502  501  0.00000000000E+00  0.00000000000E+00  0.16424651346E+03  0.16424651346E+03  0.00000000000E+00 0.  1.
         21   -1    0    0  501  502 -0.00000000000E+00 -0.00000000000E+00 -0.31761193518E+03  0.31761193518E+03  0.00000000000E+00 0.  1.
      99926    2    1    2    0    0  0.17763568394E-14  0.00000000000E+00 -0.15336542172E+03  0.48185844864E+03  0.45680040712E+03 0.  0.
      99925    2    3    3    0    0 -0.15615235434E+02 -0.47758273280E+02  0.12424663527E+02  0.26817983784E+03  0.26313753993E+03 0.  0.
         25    1    3    3    0    0  0.15615235434E+02  0.47758273280E+02 -0.16579008525E+03  0.21367861079E+03  0.12509000000E+03 0.  0.
         25    1    4    4    0    0  0.23555653792E+02 -0.49189051317E+02  0.13110934254E+02  0.13709061344E+03  0.12509000000E+03 0.  0.
         25    1    4    4    0    0 -0.39170889226E+02  0.14307780369E+01 -0.68627072668E+00  0.13108922441E+03  0.12509000000E+03 0.  0.
<mgrwt>
<rscale>  2 0.45680041E+03</rscale>
<asrwt>0</asrwt>
<pdfrwt beam="1">  1       21 0.24153899E-01 0.45680041E+03</pdfrwt>
<pdfrwt beam="2">  1       21 0.46707637E-01 0.45680041E+03</pdfrwt>
<totfact> 0.65622233E+04</totfact>
</mgrwt>
</event>
<event>
 7    0  0.4737014E-002  0.4501449E+03  0.7546771E-02  0.1027679E+00
         21   -1    0    0  502  501  0.00000000000E+00  0.00000000000E+00  0.24845815407E+04  0.24845815407E+04  0.00000000000E+00 0. -1.
         21   -1    0    0  501  502 -0.00000000000E+00 -0.00000000000E+00 -0.20388791335E+02  0.20388791335E+02  0.00000000000E+00 0. -1.
      99926    2    1    2    0    0  0.00000000000E+00  0.00000000000E+00  0.24641927494E+04  0.25049703321E+04  0.45014493039E+03 0.  0.
      99925    2    3    3    0    0  0.91794523108E+02 -0.57954301782E+02  0.15643230910E+04  0.15899851705E+04  0.26298512127E+03 0.  0.
         25    1    4    4    0    0  0.46208724035E+01 -0.22754555696E+02  0.76138756066E+03  0.77194407044E+03  0.12509000000E+03 0.  0.
         25    1    3    3    0    0 -0.91794523108E+02  0.57954301782E+02  0.89986965845E+03  0.91498516155E+03  0.12509000000E+03 0.  0.
         25    1    4    4    0    0  0.87173650704E+02 -0.35199746086E+02  0.80293553031E+03  0.81804110009E+03  0.12509000000E+03 0.  0.
<mgrwt>
<rscale>  2 0.45014493E+03</rscale>
<asrwt>0</asrwt>
<pdfrwt beam="1">  1       21 0.36537943E+00 0.45014493E+03</pdfrwt>
<pdfrwt beam="2">  1       21 0.29983534E-02 0.45014493E+03</pdfrwt>
<totfact> 0.73547863E+03</totfact>
</mgrwt>
</event>
<event>
 7    0  0.4737014E-002  0.4417541E+03  0.7546771E-02  0.1030210E+00
         21   -1    0    0  502  501  0.00000000000E+00  0.00000000000E+00  0.43982852345E+02  0.43982852345E+02  0.00000000000E+00 0. -1.
         21   -1    0    0  501  502 -0.00000000000E+00 -0.00000000000E+00 -0.11092201750E+04  0.11092201750E+04  0.00000000000E+00 0. -1.
      99926    2    1    2    0    0 -0.35527136788E-14  0.00000000000E+00 -0.10652373227E+04  0.11532030274E+04  0.44175408171E+03 0.  0.
      99925    2    3    3    0    0  0.21199847754E+02 -0.94674756803E+02 -0.61376180004E+03  0.67477811292E+03  0.26307643637E+03 0.  0.
         25    1    4    4    0    0 -0.11115346781E+02 -0.26056995164E+02 -0.21914027496E+03  0.25391432835E+03  0.12509000000E+03 0.  0.
         25    1    3    3    0    0 -0.21199847754E+02  0.94674756803E+02 -0.45147552262E+03  0.47842491443E+03  0.12509000000E+03 0.  0.
         25    1    4    4    0    0  0.32315194534E+02 -0.68617761639E+02 -0.39462152508E+03  0.42086378457E+03  0.12509000000E+03 0.  0.
<mgrwt>
<rscale>  2 0.44175408E+03</rscale>
<asrwt>0</asrwt>
<pdfrwt beam="1">  1       21 0.64680665E-02 0.44175408E+03</pdfrwt>
<pdfrwt beam="2">  1       21 0.16312061E+00 0.44175408E+03</pdfrwt>
<totfact> 0.37388709E+04</totfact>
</mgrwt>
</event>
<event>
 7    0  0.4737014E-002  0.4536883E+03  0.7546771E-02  0.1026628E+00
         21   -1    0    0  502  501  0.00000000000E+00  0.00000000000E+00  0.29018311152E+04  0.29018311152E+04  0.00000000000E+00 0.  1.
         21   -1    0    0  501  502 -0.00000000000E+00 -0.00000000000E+00 -0.17733036889E+02  0.17733036889E+02  0.00000000000E+00 0.  1.
      99926    2    1    2    0    0  0.14210854715E-13  0.00000000000E+00  0.28840980783E+04  0.29195641521E+04  0.45368834331E+03 0.  0.
      99925    2    3    3    0    0 -0.10348630576E+03  0.38567822348E+02  0.16968074165E+04  0.17206048049E+04  0.26292317069E+03 0.  0.
         25    1    3    3    0    0  0.10348630576E+03 -0.38567822348E+02  0.11872906619E+04  0.11989593472E+04  0.12509000000E+03 0.  0.
         25    1    4    4    0    0 -0.83855340105E+02  0.25658224857E+02  0.76103634331E+03  0.77621767984E+03  0.12509000000E+03 0.  0.
         25    1    4    4    0    0 -0.19630965655E+02  0.12909597491E+02  0.93577107318E+03  0.94438712508E+03  0.12509000000E+03 0.  0.
<mgrwt>
<rscale>  2 0.45368834E+03</rscale>
<asrwt>0</asrwt>
<pdfrwt beam="1">  1       21 0.42673954E+00 0.45368834E+03</pdfrwt>
<pdfrwt beam="2">  1       21 0.26078015E-02 0.45368834E+03</pdfrwt>
<totfact> 0.37587761E+03</totfact>
</mgrwt>
</event>
<event>
 7    0  0.4737014E-002  0.4528778E+03  0.7546771E-02  0.1026867E+00
         21   -1    0    0  502  501  0.00000000000E+00  0.00000000000E+00  0.67770612759E+02  0.67770612759E+02  0.00000000000E+00 0.  1.
         21   -1    0    0  501  502 -0.00000000000E+00 -0.00000000000E+00 -0.75659020531E+03  0.75659020531E+03  0.00000000000E+00 0.  1.
      99926    2    1    2    0    0 -0.44408920985E-15  0.00000000000E+00 -0.68881959256E+03  0.82436081807E+03  0.45287782821E+03 0.  0.
      99925    2    3    3    0    0 -0.34058873748E+01 -0.45163938270E+02 -0.24957430681E+03  0.36541059142E+03  0.26303266778E+03 0.  0.
         25    1    4    4    0    0  0.55882023643E+01  0.10372461341E+02 -0.15135982079E+03  0.19671329241E+03  0.12509000000E+03 0.  0.
         25    1    3    3    0    0  0.34058873748E+01  0.45163938270E+02 -0.43924528575E+03  0.45895022665E+03  0.12509000000E+03 0.  0.
         25    1    4    4    0    0 -0.89940897391E+01 -0.55536399611E+02 -0.98214486015E+02  0.16869729902E+03  0.12509000000E+03 0.  0.
<mgrwt>
<rscale>  2 0.45287783E+03</rscale>
<asrwt>0</asrwt>
<pdfrwt beam="1">  1       21 0.99662665E-02 0.45287783E+03</pdfrwt>
<pdfrwt beam="2">  1       21 0.11126327E+00 0.45287783E+03</pdfrwt>
<totfact> 0.47393228E+04</totfact>
</mgrwt>
</event>
<event>
 7    0  0.4737014E-002  0.4352285E+03  0.7546771E-02  0.1032221E+00
         21   -1    0    0  502  501  0.00000000000E+00  0.00000000000E+00  0.92205937824E+02  0.92205937824E+02  0.00000000000E+00 0. -1.
         21   -1    0    0  501  502 -0.00000000000E+00 -0.00000000000E+00 -0.51358918528E+03  0.51358918528E+03  0.00000000000E+00 0. -1.
      99926    2    1    2    0    0 -0.71054273576E-14  0.00000000000E+00 -0.42138324745E+03  0.60579512310E+03  0.43522854909E+03 0.  0.
      99925    2    3    3    0    0  0.61099948829E+02 -0.55906649278E+02 -0.33043432995E+03  0.43035860788E+03  0.26298845560E+03 0.  0.
         25    1    4    4    0    0 -0.16603116427E+01 -0.66299559599E+01 -0.12525146384E+03  0.17715007831E+03  0.12509000000E+03 0.  0.
         25    1    3    3    0    0 -0.61099948829E+02  0.55906649278E+02 -0.90948917501E+02  0.17543651523E+03  0.12509000000E+03 0.  0.
         25    1    4    4    0    0  0.62760260472E+02 -0.49276693318E+02 -0.20518286611E+03  0.25320852957E+03  0.12509000000E+03 0.  0.
<mgrwt>
<rscale>  2 0.43522855E+03</rscale>
<asrwt>0</asrwt>
<pdfrwt beam="1">  1       21 0.13559697E-01 0.43522855E+03</pdfrwt>
<pdfrwt beam="2">  1       21 0.75527819E-01 0.43522855E+03</pdfrwt>
<totfact> 0.68394978E+04</totfact>
</mgrwt>
</event>
<event>
 7    0  0.4737014E-002  0.4641168E+03  0.7546771E-02  0.1023594E+00
         21   -1    0    0  502  501  0.00000000000E+00  0.00000000000E+00  0.49095680676E+03  0.49095680676E+03  0.00000000000E+00 0.  1.
         21   -1    0    0  501  502 -0.00000000000E+00 -0.00000000000E+00 -0.10968603260E+03  0.10968603260E+03  0.00000000000E+00 0.  1.
      99926    2    1    2    0    0  0.00000000000E+00  0.00000000000E+00  0.38127077416E+03  0.60064283937E+03  0.46411681423E+03 0.  0.
      99925    2    3    3    0    0  0.51959702610E+02  0.70538394288E+02  0.12873118259E+03  0.30551705403E+03  0.26285638125E+03 0.  0.
         25    1    4    4    0    0 -0.14714831130E+02  0.38575698347E+02  0.58752358470E+02  0.14423577394E+03  0.12509000000E+03 0.  0.
         25    1    3    3    0    0 -0.51959702610E+02 -0.70538394288E+02  0.25253959156E+03  0.29512578534E+03  0.12509000000E+03 0.  0.
         25    1    4    4    0    0  0.66674533739E+02  0.31962695941E+02  0.69978824125E+02  0.16128128009E+03  0.12509000000E+03 0.  0.
<mgrwt>
<rscale>  2 0.46411681E+03</rscale>
<asrwt>0</asrwt>
<pdfrwt beam="1">  1       21 0.72199530E-01 0.46411681E+03</pdfrwt>
<pdfrwt beam="2">  1       21 0.16130299E-01 0.46411681E+03</pdfrwt>
<totfact> 0.54598091E+04</totfact>
</mgrwt>
</event>
<event>
 7    0  0.4737014E-002  0.4620529E+03  0.7546771E-02  0.1024188E+00
         21   -1    0    0  502  501  0.00000000000E+00  0.00000000000E+00  0.93034834005E+02  0.93034834005E+02  0.00000000000E+00 0.  1.
         21   -1    0    0  501  502 -0.00000000000E+00 -0.00000000000E+00 -0.57369072966E+03  0.57369072966E+03  0.00000000000E+00 0.  1.
      99926    2    1    2    0    0  0.00000000000E+00  0.00000000000E+00 -0.48065589565E+03  0.66672556366E+03  0.46205290521E+03 0.  0.
      99925    2    3    3    0    0 -0.75965711150E+02 -0.83400740272E+02 -0.35845407333E+03  0.45862158430E+03  0.26290295196E+03 0.  0.
         25    1    4    4    0    0 -0.23999876931E+02 -0.15525457904E+02 -0.11745805287E+03  0.17395670789E+03  0.12509000000E+03 0.  0.
         25    1    3    3    0    0  0.75965711150E+02  0.83400740272E+02 -0.12220182232E+03  0.20810397936E+03  0.12509000000E+03 0.  0.
         25    1    4    4    0    0 -0.51965834219E+02 -0.67875282368E+02 -0.24099602046E+03  0.28466487641E+03  0.12509000000E+03 0.  0.
<mgrwt>
<rscale>  2 0.46205291E+03</rscale>
<asrwt>0</asrwt>
<pdfrwt beam="1">  1       21 0.13681593E-01 0.46205291E+03</pdfrwt>
<pdfrwt beam="2">  1       21 0.84366283E-01 0.46205291E+03</pdfrwt>
<totfact> 0.51805505E+04</totfact>
</mgrwt>
</event>
<event>
 7    0  0.4737014E-002  0.4547372E+03  0.7546771E-02  0.1026319E+00
         21   -1    0    0  502  501  0.00000000000E+00  0.00000000000E+00  0.10075397979E+03  0.10075397979E+03  0.00000000000E+00 0. -1.
         21   -1    0    0  501  502 -0.00000000000E+00 -0.00000000000E+00 -0.51309626895E+03  0.51309626895E+03  0.00000000000E+00 0. -1.
      99926    2    1    2    0    0 -0.44408920985E-15  0.71054273576E-14 -0.41234228915E+03  0.61385024874E+03  0.45473724771E+03 0.  0.
      99925    2    3    3    0    0  0.39733690410E+01  0.35363977486E+02 -0.11475294556E+03  0.28908368013E+03  0.26293485322E+03 0.  0.
         25    1    4    4    0    0 -0.23851655997E+02 -0.31539145612E+01 -0.81429851668E+02  0.15118590382E+03  0.12509000000E+03 0.  0.
         25    1    4    4    0    0  0.27825025038E+02  0.38517892047E+02 -0.33323093892E+02  0.13789777632E+03  0.12509000000E+03 0.  0.
         25    1    3    3    0    0 -0.39733690410E+01 -0.35363977486E+02 -0.29758934359E+03  0.32476656861E+03  0.12509000000E+03 0.  0.
<mgrwt>
<rscale>  2 0.45473725E+03</rscale>
<asrwt>0</asrwt>
<pdfrwt beam="1">  1       21 0.14816762E-01 0.45473725E+03</pdfrwt>
<pdfrwt beam="2">  1       21 0.75455335E-01 0.45473725E+03</pdfrwt>
<totfact> 0.57953922E+04</totfact>
</mgrwt>
</event>
<event>
 7    0  0.4737014E-002  0.4591391E+03  0.7546771E-02  0.1025031E+00
         21   -1    0    0  502  501  0.00000000000E+00  0.00000000000E+00  0.32948933516E+03  0.32948933516E+03  0.00000000000E+00 0.  1.
         21   -1    0    0  501  502 -0.00000000000E+00 -0.00000000000E+00 -0.15995112181E+03  0.15995112181E+03  0.00000000000E+00 0.  1.
      99926    2    1    2    0    0  0.00000000000E+00  0.00000000000E+00  0.16953821335E+03  0.48944045698E+03  0.45913914573E+03 0.  0.
      99925    2    3    3    0    0  0.40480086726E+02 -0.14609674701E+02 -0.94927199192E+01  0.26683842827E+03  0.26317400148E+03 0.  0.
         25    1    4    4    0    0  0.18197533651E+02 -0.47386804814E+02 -0.12593453394E+02  0.13558304713E+03  0.12509000000E+03 0.  0.
         25    1    3    3    0    0 -0.40480086726E+02  0.14609674701E+02  0.17903093327E+03  0.22260202871E+03  0.12509000000E+03 0.  0.
         25    1    4    4    0    0  0.22282553075E+02  0.32777130113E+02  0.31007334750E+01  0.13125538114E+03  0.12509000000E+03 0.  0.
<mgrwt>
<rscale>  2 0.45913915E+03</rscale>
<asrwt>0</asrwt>
<pdfrwt beam="1">  1       21 0.48454314E-01 0.45913915E+03</pdfrwt>
<pdfrwt beam="2">  1       21 0.23522224E-01 0.45913915E+03</pdfrwt>
<totfact> 0.63893644E+04</totfact>
</mgrwt>
</event>
<event>
 7    0  0.4737014E-002  0.4527483E+03  0.7546771E-02  0.1026906E+00
         21   -1    0    0  502  501  0.00000000000E+00  0.00000000000E+00  0.82391425894E+02  0.82391425894E+02  0.00000000000E+00 0. -1.
         21   -1    0    0  501  502 -0.00000000000E+00 -0.00000000000E+00 -0.62197315765E+03  0.62197315765E+03  0.00000000000E+00 0. -1.
      99926    2    1    2    0    0  0.00000000000E+00  0.00000000000E+00 -0.53958173176E+03  0.70436458354E+03  0.45274829796E+03 0.  0.
      99925    2    3    3    0    0 -0.52230521907E+02 -0.90665397317E+02 -0.39760680438E+03  0.48814101917E+03  0.26313920653E+03 0.  0.
         25    1    4    4    0    0 -0.19169437594E+02 -0.75291462379E+02 -0.25881074409E+03  0.29776967777E+03  0.12509000000E+03 0.  0.
         25    1    4    4    0    0 -0.33061084313E+02 -0.15373934938E+02 -0.13879606030E+03  0.19037134140E+03  0.12509000000E+03 0.  0.
         25    1    3    3    0    0  0.52230521907E+02  0.90665397317E+02 -0.14197492737E+03  0.21622356438E+03  0.12509000000E+03 0.  0.
<mgrwt>
<rscale>  2 0.45274830E+03</rscale>
<asrwt>0</asrwt>
<pdfrwt beam="1">  1       21 0.12116386E-01 0.45274830E+03</pdfrwt>
<pdfrwt beam="2">  1       21 0.91466641E-01 0.45274830E+03</pdfrwt>
<totfact> 0.53610208E+04</totfact>
</mgrwt>
</event>
<event>
 7    0  0.4737014E-002  0.4576936E+03  0.7546771E-02  0.1025452E+00
         21   -1    0    0  502  501  0.00000000000E+00  0.00000000000E+00  0.13104589287E+03  0.13104589287E+03  0.00000000000E+00 0. -1.
         21   -1    0    0  501  502 -0.00000000000E+00 -0.00000000000E+00 -0.39963749557E+03  0.39963749557E+03  0.00000000000E+00 0. -1.
      99926    2    1    2    0    0 -0.88817841970E-15  0.00000000000E+00 -0.26859160270E+03  0.53068338845E+03  0.45769357624E+03 0.  0.
      99925    2    3    3    0    0 -0.51637914682E+01  0.10626129125E+03 -0.22089363496E+03  0.35968417503E+03  0.26317405085E+03 0.  0.
         25    1    3    3    0    0  0.51637914682E+01 -0.10626129125E+03 -0.47697967740E+02  0.17099921341E+03  0.12509000000E+03 0.  0.
         25    1    4    4    0    0 -0.13339019216E+02  0.61060639668E+02 -0.16196812762E+03  0.21398017108E+03  0.12509000000E+03 0.  0.
         25    1    4    4    0    0  0.81752277479E+01  0.45200651586E+02 -0.58925507335E+02  0.14570400395E+03  0.12509000000E+03 0.  0.
<mgrwt>
<rscale>  2 0.45769358E+03</rscale>
<asrwt>0</asrwt>
<pdfrwt beam="1">  1       21 0.19271455E-01 0.45769358E+03</pdfrwt>
<pdfrwt beam="2">  1       21 0.58770219E-01 0.45769358E+03</pdfrwt>
<totfact> 0.61829659E+04</totfact>
</mgrwt>
</event>
<event>
 7    0  0.4737014E-002  0.4738220E+03  0.7546771E-02  0.1020847E+00
         21   -1    0    0  502  501  0.00000000000E+00  0.00000000000E+00  0.69969135611E+03  0.69969135611E+03  0.00000000000E+00 0.  1.
         21   -1    0    0  501  502 -0.00000000000E+00 -0.00000000000E+00 -0.80216544143E+02  0.80216544143E+02  0.00000000000E+00 0.  1.
      99926    2    1    2    0    0 -0.71054273576E-14  0.14210854715E-13  0.61947481197E+03  0.77990790026E+03  0.47382200267E+03 0.  0.
      99925    2    3    3    0    0 -0.41353608978E+02  0.78124158538E+02  0.54051137994E+03  0.60758193930E+03  0.26303945710E+03 0.  0.
         25    1    3    3    0    0  0.41353608978E+02 -0.78124158538E+02  0.78963432032E+02  0.17232596096E+03  0.12509000000E+03 0.  0.
         25    1    4    4    0    0 -0.28010245166E+00  0.60132102415E+01  0.28375760956E+03  0.31016467600E+03  0.12509000000E+03 0.  0.
         25    1    4    4    0    0 -0.41073506526E+02  0.72110948296E+02  0.25675377038E+03  0.29741726329E+03  0.12509000000E+03 0.  0.
<mgrwt>
<rscale>  2 0.47382200E+03</rscale>
<asrwt>0</asrwt>
<pdfrwt beam="1">  1       21 0.10289578E+00 0.47382200E+03</pdfrwt>
<pdfrwt beam="2">  1       21 0.11796551E-01 0.47382200E+03</pdfrwt>
<totfact> 0.42168494E+04</totfact>
</mgrwt>
</event>
<event>
 7    0  0.4737014E-002  0.4985606E+03  0.7546771E-02  0.1014155E+00
         21   -1    0    0  502  501  0.00000000000E+00  0.00000000000E+00  0.56520182923E+03  0.56520182923E+03  0.00000000000E+00 0. -1.
         21   -1    0    0  501  502 -0.00000000000E+00 -0.00000000000E+00 -0.10994420668E+03  0.10994420668E+03  0.00000000000E+00 0. -1.
      99926    2    1    2    0    0  0.00000000000E+00  0.00000000000E+00  0.45525762255E+03  0.67514603591E+03  0.49856059503E+03 0.  0.
      99925    2    3    3    0    0 -0.63765728584E+02 -0.13544965298E+03  0.25898404976E+03  0.39840879571E+03  0.26314283923E+03 0.  0.
         25    1    3    3    0    0  0.63765728584E+02  0.13544965298E+03  0.19627357280E+03  0.27673724020E+03  0.12509000000E+03 0.  0.
         25    1    4    4    0    0  0.89521548384E+01 -0.57140945694E+02  0.12843427549E+03  0.18838285477E+03  0.12509000000E+03 0.  0.
         25    1    4    4    0    0 -0.72717883422E+02 -0.78308707291E+02  0.13054977427E+03  0.21002594094E+03  0.12509000000E+03 0.  0.
<mgrwt>
<rscale>  2 0.49856060E+03</rscale>
<asrwt>0</asrwt>
<pdfrwt beam="1">  1       21 0.83117915E-01 0.49856060E+03</pdfrwt>
<pdfrwt beam="2">  1       21 0.16168266E-01 0.49856060E+03</pdfrwt>
<totfact> 0.39036985E+04</totfact>
</mgrwt>
</event>
<event>
 7    0  0.4737014E-002  0.4500945E+03  0.7546771E-02  0.1027694E+00
         21   -1    0    0  502  501  0.00000000000E+00  0.00000000000E+00  0.28424546364E+02  0.28424546364E+02  0.00000000000E+00 0. -1.
         21   -1    0    0  501  502 -0.00000000000E+00 -0.00000000000E+00 -0.17817788277E+04  0.17817788277E+04  0.00000000000E+00 0. -1.
      99926    2    1    2    0    0  0.00000000000E+00 -0.44408920985E-15 -0.17533542814E+04  0.18102033741E+04  0.45009445630E+03 0.  0.
      99925    2    3    3    0    0  0.48026193223E+02  0.16228398141E+01 -0.71725826218E+03  0.76547775561E+03  0.26303541743E+03 0.  0.
         25    1    4    4    0    0  0.56407489109E+02  0.23047099557E+02 -0.40859492851E+03  0.43163676549E+03  0.12509000000E+03 0.  0.
         25    1    3    3    0    0 -0.48026193223E+02 -0.16228398141E+01 -0.10360960192E+04  0.10447256185E+04  0.12509000000E+03 0.  0.
         25    1    4    4    0    0 -0.83812958862E+01 -0.21424259742E+02 -0.30866333367E+03  0.33384099011E+03  0.12509000000E+03 0.  0.
<mgrwt>
<rscale>  2 0.45009446E+03</rscale>
<asrwt>0</asrwt>
<pdfrwt beam="1">  1       21 0.41800788E-02 0.45009446E+03</pdfrwt>
<pdfrwt beam="2">  1       21 0.26202640E+00 0.45009446E+03</pdfrwt>
<totfact> 0.17729743E+04</totfact>
</mgrwt>
</event>
<event>
 7    0  0.4737014E-002  0.4523653E+03  0.7546771E-02  0.1027019E+00
         21   -1    0    0  502  501  0.00000000000E+00  0.00000000000E+00  0.61057980221E+03  0.61057980221E+03  0.00000000000E+00 0.  1.
         21   -1    0    0  501  502 -0.00000000000E+00 -0.00000000000E+00 -0.83786920430E+02  0.83786920430E+02  0.00000000000E+00 0.  1.
      99926    2    1    2    0    0  0.00000000000E+00  0.00000000000E+00  0.52679288178E+03  0.69436672264E+03  0.45236534484E+03 0.  0.
      99925    2    3    3    0    0  0.67327699296E+02  0.77697027161E+02  0.39513882221E+03  0.48568000379E+03  0.26302191951E+03 0.  0.
         25    1    4    4    0    0  0.27259515580E+02  0.20571975892E+01  0.21517734798E+03  0.25039191767E+03  0.12509000000E+03 0.  0.
         25    1    3    3    0    0 -0.67327699296E+02 -0.77697027161E+02  0.13165405957E+03  0.20868671885E+03  0.12509000000E+03 0.  0.
         25    1    4    4    0    0  0.40068183715E+02  0.75639829572E+02  0.17996147424E+03  0.23528808613E+03  0.12509000000E+03 0.  0.
<mgrwt>
<rscale>  2 0.45236534E+03</rscale>
<asrwt>0</asrwt>
<pdfrwt beam="1">  1       21 0.89791145E-01 0.45236534E+03</pdfrwt>
<pdfrwt beam="2">  1       21 0.12321606E-01 0.45236534E+03</pdfrwt>
<totfact> 0.54327787E+04</totfact>
</mgrwt>
</event>
<event>
 7    0  0.4737014E-002  0.4175889E+03  0.7546771E-02  0.1037854E+00
         21   -1    0    0  502  501  0.00000000000E+00  0.00000000000E+00  0.15812636386E+03  0.15812636386E+03  0.00000000000E+00 0.  1.
         21   -1    0    0  501  502 -0.00000000000E+00 -0.00000000000E+00 -0.27569797107E+03  0.27569797107E+03  0.00000000000E+00 0.  1.
      99926    2    1    2    0    0 -0.53290705182E-14  0.00000000000E+00 -0.11757160721E+03  0.43382433493E+03  0.41758887768E+03 0.  0.
      99925    2    3    3    0    0  0.52670200190E+01 -0.52989242781E+02 -0.25227119709E+02  0.26947527402E+03  0.26295420588E+03 0.  0.
         25    1    4    4    0    0  0.38448242259E+02 -0.19223194853E+02 -0.30048180630E+02  0.13563996392E+03  0.12509000000E+03 0.  0.
         25    1    3    3    0    0 -0.52670200190E+01  0.52989242781E+02 -0.92344487498E+02  0.16434906091E+03  0.12509000000E+03 0.  0.
         25    1    4    4    0    0 -0.33181222240E+02 -0.33766047927E+02  0.48210609205E+01  0.13383531010E+03  0.12509000000E+03 0.  0.
<mgrwt>
<rscale>  2 0.41758888E+03</rscale>
<asrwt>0</asrwt>
<pdfrwt beam="1">  1       21 0.23253877E-01 0.41758888E+03</pdfrwt>
<pdfrwt beam="2">  1       21 0.40543819E-01 0.41758888E+03</pdfrwt>
<totfact> 0.95594620E+04</totfact>
</mgrwt>
</event>
<event>
 7    0  0.4737014E-002  0.4592061E+03  0.7546771E-02  0.1025012E+00
         21   -1    0    0  502  501  0.00000000000E+00  0.00000000000E+00  0.18545228445E+03  0.18545228445E+03  0.00000000000E+00 0.  1.
         21   -1    0    0  501  502 -0.00000000000E+00 -0.00000000000E+00 -0.28426481764E+03  0.28426481764E+03  0.00000000000E+00 0.  1.
      99926    2    1    2    0    0  0.00000000000E+00 -0.71054273576E-14 -0.98812533197E+02  0.46971710209E+03  0.45920609674E+03 0.  0.
      99925    2    3    3    0    0 -0.10881074850E+03 -0.40197274136E+02 -0.65218824536E+02  0.29584460513E+03  0.26422516056E+03 0.  0.
         25    1    4    4    0    0 -0.15810719013E+02  0.90517459188E+00 -0.42453063359E+02  0.13304348487E+03  0.12509000000E+03 0.  0.
         25    1    4    4    0    0 -0.93000029491E+02 -0.41102448728E+02 -0.22765761177E+02  0.16280112026E+03  0.12509000000E+03 0.  0.
         25    1    3    3    0    0  0.10881074850E+03  0.40197274136E+02 -0.33593708661E+02  0.17387249696E+03  0.12509000000E+03 0.  0.
<mgrwt>
<rscale>  2 0.45920610E+03</rscale>
<asrwt>0</asrwt>
<pdfrwt beam="1">  1       21 0.27272395E-01 0.45920610E+03</pdfrwt>
<pdfrwt beam="2">  1       21 0.41803649E-01 0.45920610E+03</pdfrwt>
<totfact> 0.65252493E+04</totfact>
</mgrwt>
</event>
<event>
 7    0  0.4737014E-002  0.4573116E+03  0.7546771E-02  0.1025564E+00
         21   -1    0    0  502  501  0.00000000000E+00  0.00000000000E+00  0.20988179953E+03  0.20988179953E+03  0.00000000000E+00 0. -1.
         21   -1    0    0  501  502 -0.00000000000E+00 -0.00000000000E+00 -0.24910908960E+03  0.24910908960E+03  0.00000000000E+00 0. -1.
      99926    2    1    2    0    0  0.00000000000E+00  0.00000000000E+00 -0.39227290068E+02  0.45899088912E+03  0.45731155246E+03 0.  0.
      99925    2    3    3    0    0 -0.10366736718E+03  0.30101936639E+02 -0.64825052379E+02  0.29179099935E+03  0.26322357470E+03 0.  0.
         25    1    4    4    0    0 -0.46545203406E+02 -0.15112220783E+02 -0.29238210454E+01  0.13435360809E+03  0.12509000000E+03 0.  0.
         25    1    3    3    0    0  0.10366736718E+03 -0.30101936639E+02  0.25597762312E+02  0.16719988978E+03  0.12509000000E+03 0.  0.
         25    1    4    4    0    0 -0.57122163769E+02  0.45214157422E+02 -0.61901231334E+02  0.15743739126E+03  0.12509000000E+03 0.  0.
<mgrwt>
<rscale>  2 0.45731155E+03</rscale>
<asrwt>0</asrwt>
<pdfrwt beam="1">  1       21 0.30864971E-01 0.45731155E+03</pdfrwt>
<pdfrwt beam="2">  1       21 0.36633689E-01 0.45731155E+03</pdfrwt>
<totfact> 0.67010006E+04</totfact>
</mgrwt>
</event>
<event>
 7    0  0.4737014E-002  0.4570755E+03  0.7546771E-02  0.1025633E+00
         21   -1    0    0  502  501  0.00000000000E+00  0.00000000000E+00  0.47957779301E+02  0.47957779301E+02  0.00000000000E+00 0.  1.
         21   -1    0    0  501  502 -0.00000000000E+00 -0.00000000000E+00 -0.10890723975E+04  0.10890723975E+04  0.00000000000E+00 0.  1.
      99926    2    1    2    0    0  0.00000000000E+00 -0.53290705182E-14 -0.10411146182E+04  0.11370301768E+04  0.45707545846E+03 0.  0.
      99925    2    3    3    0    0 -0.10064503626E+03  0.92196389621E+01 -0.51593756134E+03  0.58778262404E+03  0.26283534932E+03 0.  0.
         25    1    4    4    0    0 -0.38779077186E+02 -0.34249798958E+02 -0.25431081426E+03  0.28809436632E+03  0.12509000000E+03 0.  0.
         25    1    4    4    0    0 -0.61865959071E+02  0.43469437920E+02 -0.26162674708E+03  0.29968825772E+03  0.12509000000E+03 0.  0.
         25    1    3    3    0    0  0.10064503626E+03 -0.92196389621E+01 -0.52517705684E+03  0.54924755274E+03  0.12509000000E+03 0.  0.
<mgrwt>
<rscale>  2 0.45707546E+03</rscale>
<asrwt>0</asrwt>
<pdfrwt beam="1">  1       21 0.70526146E-02 0.45707546E+03</pdfrwt>
<pdfrwt beam="2">  1       21 0.16015771E+00 0.45707546E+03</pdfrwt>
<totfact> 0.33670353E+04</totfact>
</mgrwt>
</event>
<event>
 7    0  0.4737014E-002  0.4615197E+03  0.7546771E-02  0.1024341E+00
         21   -1    0    0  502  501  0.00000000000E+00  0.00000000000E+00  0.44693846844E+03  0.44693846844E+03  0.00000000000E+00 0. -1.
         21   -1    0    0  501  502 -0.00000000000E+00 -0.00000000000E+00 -0.11914414098E+03  0.11914414098E+03  0.00000000000E+00 0. -1.
      99926    2    1    2    0    0  0.00000000000E+00  0.00000000000E+00  0.32779432747E+03  0.56608260942E+03  0.46151966325E+03 0.  0.
      99925    2    3    3    0    0 -0.45268407107E+01 -0.34896931267E+02  0.34471641573E+03  0.43504004660E+03  0.26304400160E+03 0.  0.
         25    1    4    4    0    0 -0.24161087308E+01 -0.56822223313E+02  0.16060978271E+03  0.21137079516E+03  0.12509000000E+03 0.  0.
         25    1    4    4    0    0 -0.21107319799E+01  0.21925292046E+02  0.18410663302E+03  0.22366925145E+03  0.12509000000E+03 0.  0.
         25    1    3    3    0    0  0.45268407107E+01  0.34896931267E+02 -0.16922088257E+02  0.13104256282E+03  0.12509000000E+03 0.  0.
<mgrwt>
<rscale>  2 0.46151966E+03</rscale>
<asrwt>0</asrwt>
<pdfrwt beam="1">  1       21 0.65726245E-01 0.46151966E+03</pdfrwt>
<pdfrwt beam="2">  1       21 0.17521197E-01 0.46151966E+03</pdfrwt>
<totfact> 0.57778750E+04</totfact>
</mgrwt>
</event>
<event>
 7    0  0.4737014E-002  0.4315906E+03  0.7546771E-02  0.1033359E+00
         21   -1    0    0  502  501  0.00000000000E+00  0.00000000000E+00  0.10239557784E+04  0.10239557784E+04  0.00000000000E+00 0. -1.
         21   -1    0    0  501  502 -0.00000000000E+00 -0.00000000000E+00 -0.45478153463E+02  0.45478153463E+02  0.00000000000E+00 0. -1.
      99926    2    1    2    0    0  0.00000000000E+00  0.00000000000E+00  0.97847762491E+03  0.10694339318E+04  0.43159063024E+03 0.  0.
      99925    2    3    3    0    0  0.26236517580E+02 -0.45614818188E+02  0.45184093295E+03  0.52559316478E+03  0.26328478817E+03 0.  0.
         25    1    3    3    0    0 -0.26236517580E+02  0.45614818188E+02  0.52663669197E+03  0.54384076706E+03  0.12509000000E+03 0.  0.
         25    1    4    4    0    0  0.18826828693E+02  0.18283843916E+02  0.21208362064E+03  0.24762010958E+03  0.12509000000E+03 0.  0.
         25    1    4    4    0    0  0.74096888870E+01 -0.63898662104E+02  0.23975731231E+03  0.27797305519E+03  0.12509000000E+03 0.  0.
<mgrwt>
<rscale>  2 0.43159063E+03</rscale>
<asrwt>0</asrwt>
<pdfrwt beam="1">  1       21 0.15058172E+00 0.43159063E+03</pdfrwt>
<pdfrwt beam="2">  1       21 0.66879644E-02 0.43159063E+03</pdfrwt>
<totfact> 0.44092943E+04</totfact>
</mgrwt>
</event>
<event>
 7    0  0.4737014E-002  0.4542751E+03  0.7546771E-02  0.1026455E+00
         21   -1    0    0  502  501  0.00000000000E+00  0.00000000000E+00  0.87611749031E+02  0.87611749031E+02  0.00000000000E+00 0. -1.
         21   -1    0    0  501  502 -0.00000000000E+00 -0.00000000000E+00 -0.58886481253E+03  0.58886481253E+03  0.00000000000E+00 0. -1.
      99926    2    1    2    0    0  0.00000000000E+00 -0.17763568394E-14 -0.50125306350E+03  0.67647656157E+03  0.45427514204E+03 0.  0.
      99925    2    3    3    0    0  0.98304398298E+02  0.12272947293E+02 -0.23721031230E+03  0.36796325145E+03  0.26327522138E+03 0.  0.
         25    1    4    4    0    0  0.26389129409E+02  0.17577183200E+02 -0.15545511002E+03  0.20203747883E+03  0.12509000000E+03 0.  0.
         25    1    3    3    0    0 -0.98304398298E+02 -0.12272947293E+02 -0.26404275120E+03  0.30851331012E+03  0.12509000000E+03 0.  0.
         25    1    4    4    0    0  0.71915268889E+02 -0.53042359077E+01 -0.81755202282E+02  0.16592577262E+03  0.12509000000E+03 0.  0.
<mgrwt>
<rscale>  2 0.45427514E+03</rscale>
<asrwt>0</asrwt>
<pdfrwt beam="1">  1       21 0.12884081E-01 0.45427514E+03</pdfrwt>
<pdfrwt beam="2">  1       21 0.86597766E-01 0.45427514E+03</pdfrwt>
<totfact> 0.54509924E+04</totfact>
</mgrwt>
</event>
<event>
 7    0  0.4737014E-002  0.4502200E+03  0.7546771E-02  0.1027656E+00
         21   -1    0    0  502  501  0.00000000000E+00  0.00000000000E+00  0.16735794902E+04  0.16735794902E+04  0.00000000000E+00 0. -1.
         21   -1    0    0  501  502 -0.00000000000E+00 -0.00000000000E+00 -0.30279118554E+02  0.30279118554E+02  0.00000000000E+00 0. -1.
      99926    2    1    2    0    0  0.00000000000E+00  0.14210854715E-13  0.16433003716E+04  0.17038586087E+04  0.45021999863E+03 0.  0.
      99925    2    3    3    0    0 -0.42688579120E+02  0.98099038855E+02  0.96461045812E+03  0.10054939167E+04  0.26286678089E+03 0.  0.
         25    1    3    3    0    0  0.42688579120E+02 -0.98099038855E+02  0.67868991349E+03  0.69836469196E+03  0.12509000000E+03 0.  0.
         25    1    4    4    0    0 -0.37104466922E+02  0.29443401807E+02  0.35451767271E+03  0.37891152495E+03  0.12509000000E+03 0.  0.
         25    1    4    4    0    0 -0.55841121990E+01  0.68655637049E+02  0.61009278540E+03  0.62658239180E+03  0.12509000000E+03 0.  0.
<mgrwt>
<rscale>  2 0.45022000E+03</rscale>
<asrwt>0</asrwt>
<pdfrwt beam="1">  1       21 0.24611457E+00 0.45022000E+03</pdfrwt>
<pdfrwt beam="2">  1       21 0.44528127E-02 0.45022000E+03</pdfrwt>
<totfact> 0.19910284E+04</totfact>
</mgrwt>
</event>
<event>
 7    0  0.4737014E-002  0.4553351E+03  0.7546771E-02  0.1026143E+00
         21   -1    0    0  502  501  0.00000000000E+00  0.00000000000E+00  0.23517578038E+02  0.23517578038E+02  0.00000000000E+00 0.  1.
         21   -1    0    0  501  502 -0.00000000000E+00 -0.00000000000E+00 -0.22039898953E+04  0.22039898953E+04  0.00000000000E+00 0.  1.
      99926    2    1    2    0    0  0.00000000000E+00  0.00000000000E+00 -0.21804723172E+04  0.22275074733E+04  0.45533506062E+03 0.  0.
      99925    2    3    3    0    0 -0.85539101062E+02 -0.27993593967E+02 -0.17097866819E+04  0.17322367852E+04  0.26300799077E+03 0.  0.
         25    1    4    4    0    0 -0.38266585112E+02  0.25499065772E+02 -0.76137691609E+03  0.77295332999E+03  0.12509000000E+03 0.  0.
         25    1    3    3    0    0  0.85539101062E+02  0.27993593967E+02 -0.47068563535E+03  0.49527068815E+03  0.12509000000E+03 0.  0.
         25    1    4    4    0    0 -0.47272515950E+02 -0.53492659739E+02 -0.94840976581E+03  0.95928345518E+03  0.12509000000E+03 0.  0.
<mgrwt>
<rscale>  2 0.45533506E+03</rscale>
<asrwt>0</asrwt>
<pdfrwt beam="1">  1       21 0.34584690E-02 0.45533506E+03</pdfrwt>
<pdfrwt beam="2">  1       21 0.32411601E+00 0.45533506E+03</pdfrwt>
<totfact> 0.10311476E+04</totfact>
</mgrwt>
</event>
<event>
 7    0  0.4737014E-002  0.4547869E+03  0.7546771E-02  0.1026304E+00
         21   -1    0    0  502  501  0.00000000000E+00  0.00000000000E+00  0.34183916382E+03  0.34183916382E+03  0.00000000000E+00 0.  1.
         21   -1    0    0  501  502 -0.00000000000E+00 -0.00000000000E+00 -0.15126346060E+03  0.15126346060E+03  0.00000000000E+00 0.  1.
      99926    2    1    2    0    0  0.00000000000E+00  0.14210854715E-13  0.19057570322E+03  0.49310262442E+03  0.45478687267E+03 0.  0.
      99925    2    3    3    0    0 -0.41021019909E+01 -0.11237216067E+03  0.10881037192E+03  0.30608014653E+03  0.26306088521E+03 0.  0.
         25    1    4    4    0    0 -0.12389477274E+02 -0.66960009509E+02  0.15345442848E+02  0.14324849995E+03  0.12509000000E+03 0.  0.
         25    1    3    3    0    0  0.41021019909E+01  0.11237216067E+03  0.81765331292E+02  0.18702247789E+03  0.12509000000E+03 0.  0.
         25    1    4    4    0    0  0.82873752831E+01 -0.45412151164E+02  0.93464929076E+02  0.16283164658E+03  0.12509000000E+03 0.  0.
<mgrwt>
<rscale>  2 0.45478687E+03</rscale>
<asrwt>0</asrwt>
<pdfrwt beam="1">  1       21 0.50270466E-01 0.45478687E+03</pdfrwt>
<pdfrwt beam="2">  1       21 0.22244626E-01 0.45478687E+03</pdfrwt>
<totfact> 0.65869361E+04</totfact>
</mgrwt>
</event>
<event>
 7    0  0.4737014E-002  0.4476713E+03  0.7546771E-02  0.1028419E+00
         21   -1    0    0  502  501  0.00000000000E+00  0.00000000000E+00  0.92628071597E+02  0.92628071597E+02  0.00000000000E+00 0. -1.
         21   -1    0    0  501  502 -0.00000000000E+00 -0.00000000000E+00 -0.54089866901E+03  0.54089866901E+03  0.00000000000E+00 0. -1.
      99926    2    1    2    0    0  0.00000000000E+00  0.00000000000E+00 -0.44827059741E+03  0.63352674061E+03  0.44767131085E+03 0.  0.
      99925    2    3    3    0    0 -0.42850008097E+02  0.92999143040E+02 -0.24484251972E+03  0.37368937860E+03  0.26307969974E+03 0.  0.
         25    1    3    3    0    0  0.42850008097E+02 -0.92999143040E+02 -0.20342807770E+03  0.25983736201E+03  0.12509000000E+03 0.  0.
         25    1    4    4    0    0 -0.17662438977E+01  0.44343161024E+02 -0.71900250744E+02  0.15095227625E+03  0.12509000000E+03 0.  0.
         25    1    4    4    0    0 -0.41083764199E+02  0.48655982016E+02 -0.17294226897E+03  0.22273710235E+03  0.12509000000E+03 0.  0.
<mgrwt>
<rscale>  2 0.44767131E+03</rscale>
<asrwt>0</asrwt>
<pdfrwt beam="1">  1       21 0.13621775E-01 0.44767131E+03</pdfrwt>
<pdfrwt beam="2">  1       21 0.79543926E-01 0.44767131E+03</pdfrwt>
<totfact> 0.60060051E+04</totfact>
</mgrwt>
</event>
<event>
 7    0  0.4737014E-002  0.4546749E+03  0.7546771E-02  0.1026337E+00
         21   -1    0    0  502  501  0.00000000000E+00  0.00000000000E+00  0.76919569524E+03  0.76919569524E+03  0.00000000000E+00 0. -1.
         21   -1    0    0  501  502 -0.00000000000E+00 -0.00000000000E+00 -0.67190078260E+02  0.67190078260E+02  0.00000000000E+00 0. -1.
      99926    2    1    2    0    0  0.00000000000E+00  0.00000000000E+00  0.70200561698E+03  0.83638577350E+03  0.45467491226E+03 0.  0.
      99925    2    3    3    0    0  0.74537303708E+02 -0.84004925425E+02  0.41649607979E+03  0.50506139911E+03  0.26268878021E+03 0.  0.
         25    1    3    3    0    0 -0.74537303708E+02  0.84004925425E+02  0.28550953720E+03  0.33132437440E+03  0.12509000000E+03 0.  0.
         25    1    4    4    0    0  0.49543067819E+02 -0.42971404705E+02  0.14568003467E+03  0.20290696832E+03  0.12509000000E+03 0.  0.
         25    1    4    4    0    0  0.24994235888E+02 -0.41033520720E+02  0.27081604512E+03  0.30215443079E+03  0.12509000000E+03 0.  0.
<mgrwt>
<rscale>  2 0.45467491E+03</rscale>
<asrwt>0</asrwt>
<pdfrwt beam="1">  1       21 0.11311701E+00 0.45467491E+03</pdfrwt>
<pdfrwt beam="2">  1       21 0.98808944E-02 0.45467491E+03</pdfrwt>
<totfact> 0.46172318E+04</totfact>
</mgrwt>
</event>
<event>
 7    0  0.4737014E-002  0.4545135E+03  0.7546771E-02  0.1026385E+00
         21   -1    0    0  502  501  0.00000000000E+00  0.00000000000E+00  0.90187144831E+02  0.90187144831E+02  0.00000000000E+00 0. -1.
         21   -1    0    0  501  502 -0.00000000000E+00 -0.00000000000E+00 -0.57264957459E+03  0.57264957459E+03  0.00000000000E+00 0. -1.
      99926    2    1    2    0    0  0.00000000000E+00  0.00000000000E+00 -0.48246242976E+03  0.66283671942E+03  0.45451349868E+03 0.  0.
      99925    2    3    3    0    0  0.35564339873E+02 -0.87781878387E+02 -0.39291872125E+03  0.48218217540E+03  0.26295255906E+03 0.  0.
         25    1    3    3    0    0 -0.35564339873E+02  0.87781878387E+02 -0.89543708507E+02  0.18065454402E+03  0.12509000000E+03 0.  0.
         25    1    4    4    0    0 -0.31148652934E+01 -0.75700413041E+02 -0.17983263701E+03  0.23179201961E+03  0.12509000000E+03 0.  0.
         25    1    4    4    0    0  0.38679205167E+02 -0.12081465346E+02 -0.21308608424E+03  0.25039015579E+03  0.12509000000E+03 0.  0.
<mgrwt>
<rscale>  2 0.45451350E+03</rscale>
<asrwt>0</asrwt>
<pdfrwt beam="1">  1       21 0.13262815E-01 0.45451350E+03</pdfrwt>
<pdfrwt beam="2">  1       21 0.84213172E-01 0.45451350E+03</pdfrwt>
<totfact> 0.55178590E+04</totfact>
</mgrwt>
</event>
<event>
 7    0  0.4737014E-002  0.4607478E+03  0.7546771E-02  0.1024565E+00
         21   -1    0    0  502  501  0.00000000000E+00  0.00000000000E+00  0.97604935285E+03  0.97604935285E+03  0.00000000000E+00 0. -1.
         21   -1    0    0  501  502 -0.00000000000E+00 -0.00000000000E+00 -0.54374438194E+02  0.54374438194E+02  0.00000000000E+00 0. -1.
      99926    2    1    2    0    0  0.00000000000E+00  0.00000000000E+00  0.92167491465E+03  0.10304237910E+04  0.46074780612E+03 0.  0.
      99925    2    3    3    0    0 -0.84065653531E+02  0.83560181450E+02  0.57598851208E+03  0.64416489464E+03  0.26293783944E+03 0.  0.
         25    1    3    3    0    0  0.84065653531E+02 -0.83560181450E+02  0.34568640257E+03  0.38625889640E+03  0.12509000000E+03 0.  0.
         25    1    4    4    0    0 -0.24132191643E+02  0.33461498591E+02  0.19207576218E+03  0.23290049609E+03  0.12509000000E+03 0.  0.
         25    1    4    4    0    0 -0.59933461888E+02  0.50098682859E+02  0.38391274990E+03  0.41126439855E+03  0.12509000000E+03 0.  0.
<mgrwt>
<rscale>  2 0.46074781E+03</rscale>
<asrwt>0</asrwt>
<pdfrwt beam="1">  1       21 0.14353666E+00 0.46074781E+03</pdfrwt>
<pdfrwt beam="2">  1       21 0.79962415E-02 0.46074781E+03</pdfrwt>
<totfact> 0.36345488E+04</totfact>
</mgrwt>
</event>
<event>
 7    0  0.4737014E-002  0.4547112E+03  0.7546771E-02  0.1026326E+00
         21   -1    0    0  502  501  0.00000000000E+00  0.00000000000E+00  0.41826904765E+03  0.41826904765E+03  0.00000000000E+00 0. -1.
         21   -1    0    0  501  502 -0.00000000000E+00 -0.00000000000E+00 -0.12358210660E+03  0.12358210660E+03  0.00000000000E+00 0. -1.
      99926    2    1    2    0    0  0.00000000000E+00 -0.44408920985E-15  0.29468694105E+03  0.54185115425E+03  0.45471120521E+03 0.  0.
      99925    2    3    3    0    0 -0.85380739437E+02 -0.26714805309E+01  0.97313006709E+02  0.29305206758E+03  0.26289291653E+03 0.  0.
         25    1    4    4    0    0 -0.71775724814E+02 -0.27890194383E+02  0.65525534713E+02  0.16084377953E+03  0.12509000000E+03 0.  0.
         25    1    3    3    0    0  0.85380739437E+02  0.26714805309E+01  0.19737393434E+03  0.24879908668E+03  0.12509000000E+03 0.  0.
         25    1    4    4    0    0 -0.13605014623E+02  0.25218713852E+02  0.31787471997E+02  0.13220828804E+03  0.12509000000E+03 0.  0.
<mgrwt>
<rscale>  2 0.45471121E+03</rscale>
<asrwt>0</asrwt>
<pdfrwt beam="1">  1       21 0.61510154E-01 0.45471121E+03</pdfrwt>
<pdfrwt beam="2">  1       21 0.18173839E-01 0.45471121E+03</pdfrwt>
<totfact> 0.62551059E+04</totfact>
</mgrwt>
</event>
<event>
 7    0  0.4737014E-002  0.4573103E+03  0.7546771E-02  0.1025564E+00
         21   -1    0    0  502  501  0.00000000000E+00  0.00000000000E+00  0.32128718503E+03  0.32128718503E+03  0.00000000000E+00 0. -1.
         21   -1    0    0  501  502 -0.00000000000E+00 -0.00000000000E+00 -0.16273036845E+03  0.16273036845E+03  0.00000000000E+00 0. -1.
      99926    2    1    2    0    0  0.35527136788E-14  0.00000000000E+00  0.15855681659E+03  0.48401755348E+03  0.45731031914E+03 0.  0.
      99925    2    3    3    0    0 -0.28107151897E+02 -0.88694290746E+02  0.27493139804E+02  0.28034653279E+03  0.26302398467E+03 0.  0.
         25    1    4    4    0    0  0.16118260345E+02 -0.58953772455E+02 -0.91581314949E+01  0.13952320623E+03  0.12509000000E+03 0.  0.
         25    1    3    3    0    0  0.28107151897E+02  0.88694290746E+02  0.13106367678E+03  0.20367102069E+03  0.12509000000E+03 0.  0.
         25    1    4    4    0    0 -0.44225412242E+02 -0.29740518291E+02  0.36651271299E+02  0.14082332656E+03  0.12509000000E+03 0.  0.
<mgrwt>
<rscale>  2 0.45731032E+03</rscale>
<asrwt>0</asrwt>
<pdfrwt beam="1">  1       21 0.47248115E-01 0.45731032E+03</pdfrwt>
<pdfrwt beam="2">  1       21 0.23930937E-01 0.45731032E+03</pdfrwt>
<totfact> 0.65204755E+04</totfact>
</mgrwt>
</event>
<event>
 7    0  0.4737014E-002  0.4537840E+03  0.7546771E-02  0.1026600E+00
         21   -1    0    0  502  501  0.00000000000E+00  0.00000000000E+00  0.14385456906E+03  0.14385456906E+03  0.00000000000E+00 0. -1.
         21   -1    0    0  501  502 -0.00000000000E+00 -0.00000000000E+00 -0.35786127603E+03  0.35786127603E+03  0.00000000000E+00 0. -1.
      99926    2    1    2    0    0  0.35527136788E-14  0.17763568394E-14 -0.21400670697E+03  0.50171584509E+03  0.45378399992E+03 0.  0.
      99925    2    3    3    0    0 -0.25925229495E+02  0.12327102029E+02 -0.25457725120E+03  0.36711438846E+03  0.26294357268E+03 0.  0.
         25    1    3    3    0    0  0.25925229495E+02 -0.12327102029E+02  0.40570544236E+02  0.13460145664E+03  0.12509000000E+03 0.  0.
         25    1    4    4    0    0  0.19422868904E+02  0.28738240506E+02 -0.11257187803E+03  0.17182278698E+03  0.12509000000E+03 0.  0.
         25    1    4    4    0    0 -0.45348098399E+02 -0.16411138477E+02 -0.14200537318E+03  0.19529160147E+03  0.12509000000E+03 0.  0.
<mgrwt>
<rscale>  2 0.45378400E+03</rscale>
<asrwt>0</asrwt>
<pdfrwt beam="1">  1       21 0.21155084E-01 0.45378400E+03</pdfrwt>
<pdfrwt beam="2">  1       21 0.52626658E-01 0.45378400E+03</pdfrwt>
<totfact> 0.65782952E+04</totfact>
</mgrwt>
</event>
<event>
 7    0  0.4737014E-002  0.4561427E+03  0.7546771E-02  0.1025906E+00
         21   -1    0    0  502  501  0.00000000000E+00  0.00000000000E+00  0.32606144217E+03  0.32606144217E+03  0.00000000000E+00 0. -1.
         21   -1    0    0  501  502 -0.00000000000E+00 -0.00000000000E+00 -0.15952986158E+03  0.15952986158E+03  0.00000000000E+00 0. -1.
      99926    2    1    2    0    0  0.00000000000E+00  0.00000000000E+00  0.16653158059E+03  0.48559130375E+03  0.45614268266E+03 0.  0.
      99925    2    3    3    0    0 -0.10421691329E+03 -0.24620153589E+01  0.54550470403E+02  0.28796918031E+03  0.26283696173E+03 0.  0.
         25    1    4    4    0    0 -0.82803924388E+02 -0.28227376221E+02  0.20077018063E+02  0.15396060995E+03  0.12509000000E+03 0.  0.
         25    1    3    3    0    0  0.10421691329E+03  0.24620153589E+01  0.11198111018E+03  0.19762212344E+03  0.12509000000E+03 0.  0.
         25    1    4    4    0    0 -0.21412988899E+02  0.25765360862E+02  0.34473452340E+02  0.13400857036E+03  0.12509000000E+03 0.  0.
<mgrwt>
<rscale>  2 0.45614268E+03</rscale>
<asrwt>0</asrwt>
<pdfrwt beam="1">  1       21 0.47950212E-01 0.45614268E+03</pdfrwt>
<pdfrwt beam="2">  1       21 0.23460274E-01 0.45614268E+03</pdfrwt>
<totfact> 0.65697329E+04</totfact>
</mgrwt>
</event>
<event>
 7    0  0.4737014E-002  0.4482317E+03  0.7546771E-02  0.1028251E+00
         21   -1    0    0  502  501  0.00000000000E+00  0.00000000000E+00  0.46473406115E+03  0.46473406115E+03  0.00000000000E+00 0.  1.
         21   -1    0    0  501  502 -0.00000000000E+00 -0.00000000000E+00 -0.10807884148E+03  0.10807884148E+03  0.00000000000E+00 0.  1.
      99926    2    1    2    0    0  0.00000000000E+00  0.00000000000E+00  0.35665521967E+03  0.57281290263E+03  0.44823172100E+03 0.  0.
      99925    2    3    3    0    0 -0.13883648037E+02 -0.87229241069E+02  0.14866535281E+03  0.31453206905E+03  0.26273054477E+03 0.  0.
         25    1    4    4    0    0  0.28876942243E+02 -0.57607118832E+02  0.89031670856E+02  0.16651307591E+03  0.12509000000E+03 0.  0.
         25    1    3    3    0    0  0.13883648037E+02  0.87229241069E+02  0.20798986686E+03  0.25828083358E+03  0.12509000000E+03 0.  0.
         25    1    4    4    0    0 -0.42760590280E+02 -0.29622122237E+02  0.59633681952E+02  0.14801899314E+03  0.12509000000E+03 0.  0.
<mgrwt>
<rscale>  2 0.44823172E+03</rscale>
<asrwt>0</asrwt>
<pdfrwt beam="1">  1       21 0.68343244E-01 0.44823172E+03</pdfrwt>
<pdfrwt beam="2">  1       21 0.15893947E-01 0.44823172E+03</pdfrwt>
<totfact> 0.63726311E+04</totfact>
</mgrwt>
</event>
<event>
 7    0  0.4737014E-002  0.4538747E+03  0.7546771E-02  0.1026573E+00
         21   -1    0    0  502  501  0.00000000000E+00  0.00000000000E+00  0.31869639673E+03  0.31869639673E+03  0.00000000000E+00 0. -1.
         21   -1    0    0  501  502 -0.00000000000E+00 -0.00000000000E+00 -0.16159758490E+03  0.16159758490E+03  0.00000000000E+00 0. -1.
      99926    2    1    2    0    0 -0.88817841970E-15  0.00000000000E+00  0.15709881183E+03  0.48029398163E+03  0.45387473174E+03 0.  0.
      99925    2    3    3    0    0 -0.33759254859E+01 -0.69470909981E+02  0.19228402989E+03  0.33290635706E+03  0.26270875550E+03 0.  0.
         25    1    4    4    0    0  0.16206425352E+01 -0.36826163935E+02  0.47623054181E+02  0.13883175509E+03  0.12509000000E+03 0.  0.
         25    1    4    4    0    0 -0.49965680211E+01 -0.32644746046E+02  0.14466097571E+03  0.19407460197E+03  0.12509000000E+03 0.  0.
         25    1    3    3    0    0  0.33759254859E+01  0.69470909981E+02 -0.35185218056E+02  0.14738762457E+03  0.12509000000E+03 0.  0.
<mgrwt>
<rscale>  2 0.45387473E+03</rscale>
<asrwt>0</asrwt>
<pdfrwt beam="1">  1       21 0.46867117E-01 0.45387473E+03</pdfrwt>
<pdfrwt beam="2">  1       21 0.23764351E-01 0.45387473E+03</pdfrwt>
<totfact> 0.67277624E+04</totfact>
</mgrwt>
</event>
<event>
 7    0  0.4737014E-002  0.4661080E+03  0.7546771E-02  0.1023024E+00
         21   -1    0    0  502  501  0.00000000000E+00  0.00000000000E+00  0.31236637820E+03  0.31236637820E+03  0.00000000000E+00 0.  1.
         21   -1    0    0  501  502 -0.00000000000E+00 -0.00000000000E+00 -0.17387965570E+03  0.17387965570E+03  0.00000000000E+00 0.  1.
      99926    2    1    2    0    0  0.00000000000E+00  0.00000000000E+00  0.13848672250E+03  0.48624603391E+03  0.46610796301E+03 0.  0.
      99925    2    3    3    0    0  0.10083278721E+03 -0.63080366160E+02  0.11960821757E+03  0.31260764639E+03  0.26319390438E+03 0.  0.
         25    1    4    4    0    0  0.73453141285E+02  0.94197317090E+00  0.50196447191E+02  0.15350388493E+03  0.12509000000E+03 0.  0.
         25    1    4    4    0    0  0.27379645923E+02 -0.64022339331E+02  0.69411770374E+02  0.15910376146E+03  0.12509000000E+03 0.  0.
         25    1    3    3    0    0 -0.10083278721E+03  0.63080366160E+02  0.18878504932E+02  0.17363838752E+03  0.12509000000E+03 0.  0.
<mgrwt>
<rscale>  2 0.46610796E+03</rscale>
<asrwt>0</asrwt>
<pdfrwt beam="1">  1       21 0.45936232E-01 0.46610796E+03</pdfrwt>
<pdfrwt beam="2">  1       21 0.25570538E-01 0.46610796E+03</pdfrwt>
<totfact> 0.60715833E+04</totfact>
</mgrwt>
</event>
<event>
 7    0  0.4737014E-002  0.4494832E+03  0.7546771E-02  0.1027876E+00
         21   -1    0    0  502  501  0.00000000000E+00  0.00000000000E+00  0.80818106331E+02  0.80818106331E+02  0.00000000000E+00 0.  1.
         21   -1    0    0  501  502 -0.00000000000E+00 -0.00000000000E+00 -0.62496874184E+03  0.62496874184E+03  0.00000000000E+00 0.  1.
      99926    2    1    2    0    0 -0.17763568394E-14 -0.17763568394E-14 -0.54415063551E+03  0.70578684817E+03  0.44948321540E+03 0.  0.
      99925    2    3    3    0    0  0.10653728576E+02  0.11384215253E+02 -0.17643322177E+03  0.31706238695E+03  0.26297675407E+03 0.  0.
         25    1    3    3    0    0 -0.10653728576E+02 -0.11384215253E+02 -0.36771741374E+03  0.38872446123E+03  0.12509000000E+03 0.  0.
         25    1    4    4    0    0 -0.13683370307E+02  0.81634928498E+01 -0.13074241304E+03  0.18164515932E+03  0.12509000000E+03 0.  0.
         25    1    4    4    0    0  0.24337098883E+02  0.32207224036E+01 -0.45690808737E+02  0.13541722763E+03  0.12509000000E+03 0.  0.
<mgrwt>
<rscale>  2 0.44948322E+03</rscale>
<asrwt>0</asrwt>
<pdfrwt beam="1">  1       21 0.11885016E-01 0.44948322E+03</pdfrwt>
<pdfrwt beam="2">  1       21 0.91907165E-01 0.44948322E+03</pdfrwt>
<totfact> 0.54936035E+04</totfact>
</mgrwt>
</event>
<event>
 7    0  0.4737014E-002  0.4234367E+03  0.7546771E-02  0.1035954E+00
         21   -1    0    0  502  501  0.00000000000E+00  0.00000000000E+00  0.85606032066E+02  0.85606032066E+02  0.00000000000E+00 0.  1.
         21   -1    0    0  501  502 -0.00000000000E+00 -0.00000000000E+00 -0.52361572484E+03  0.52361572484E+03  0.00000000000E+00 0.  1.
      99926    2    1    2    0    0  0.35527136788E-14  0.00000000000E+00 -0.43800969277E+03  0.60922175690E+03  0.42343672269E+03 0.  0.
      99925    2    3    3    0    0  0.15569642930E+02 -0.14923241536E+01 -0.39732522816E+03  0.47675525332E+03  0.26302774343E+03 0.  0.
         25    1    4    4    0    0 -0.32124759260E+02 -0.52550749889E+01 -0.18359811316E+03  0.22453371958E+03  0.12509000000E+03 0.  0.
         25    1    3    3    0    0 -0.15569642930E+02  0.14923241536E+01 -0.40684464609E+02  0.13246650359E+03  0.12509000000E+03 0.  0.
         25    1    4    4    0    0  0.47694402190E+02  0.37627508353E+01 -0.21372711500E+03  0.25222153374E+03  0.12509000000E+03 0.  0.
<mgrwt>
<rscale>  2 0.42343672E+03</rscale>
<asrwt>0</asrwt>
<pdfrwt beam="1">  1       21 0.12589122E-01 0.42343672E+03</pdfrwt>
<pdfrwt beam="2">  1       21 0.77002312E-01 0.42343672E+03</pdfrwt>
<totfact> 0.75170173E+04</totfact>
</mgrwt>
</event>
<event>
 7    0  0.4737014E-002  0.4507719E+03  0.7546771E-02  0.1027492E+00
         21   -1    0    0  502  501  0.00000000000E+00  0.00000000000E+00  0.13327613954E+03  0.13327613954E+03  0.00000000000E+00 0.  1.
         21   -1    0    0  501  502 -0.00000000000E+00 -0.00000000000E+00 -0.38115462097E+03  0.38115462097E+03  0.00000000000E+00 0.  1.
      99926    2    1    2    0    0 -0.71054273576E-14  0.00000000000E+00 -0.24787848143E+03  0.51443076052E+03  0.45077185561E+03 0.  0.
      99925    2    3    3    0    0 -0.57185466483E+02  0.89211005058E+02 -0.12633363155E+03  0.31034881709E+03  0.26292094023E+03 0.  0.
         25    1    4    4    0    0 -0.22381889983E+02  0.49073345986E+02 -0.10669566084E+03  0.17303356446E+03  0.12509000000E+03 0.  0.
         25    1    4    4    0    0 -0.34803576500E+02  0.40137659072E+02 -0.19637970704E+02  0.13731525264E+03  0.12509000000E+03 0.  0.
         25    1    3    3    0    0  0.57185466483E+02 -0.89211005058E+02 -0.12154484988E+03  0.20408194343E+03  0.12509000000E+03 0.  0.
<mgrwt>
<rscale>  2 0.45077186E+03</rscale>
<asrwt>0</asrwt>
<pdfrwt beam="1">  1       21 0.19599432E-01 0.45077186E+03</pdfrwt>
<pdfrwt beam="2">  1       21 0.56052150E-01 0.45077186E+03</pdfrwt>
<totfact> 0.66470445E+04</totfact>
</mgrwt>
</event>
<event>
 7    0  0.4737014E-002  0.4129760E+03  0.7546771E-02  0.1039377E+00
         21   -1    0    0  502  501  0.00000000000E+00  0.00000000000E+00  0.83251636737E+03  0.83251636737E+03  0.00000000000E+00 0. -1.
         21   -1    0    0  501  502 -0.00000000000E+00 -0.00000000000E+00 -0.51214972147E+02  0.51214972147E+02  0.00000000000E+00 0. -1.
      99926    2    1    2    0    0  0.00000000000E+00  0.00000000000E+00  0.78130139523E+03  0.88373133952E+03  0.41297604079E+03 0.  0.
      99925    2    3    3    0    0 -0.42269091046E+02  0.12367423786E+02  0.40725511945E+03  0.48687147288E+03  0.26314913938E+03 0.  0.
         25    1    4    4    0    0 -0.36970629926E+01  0.37255321909E+02  0.16526898839E+03  0.21062519770E+03  0.12509000000E+03 0.  0.
         25    1    3    3    0    0  0.42269091046E+02 -0.12367423786E+02  0.37404627578E+03  0.39685986664E+03  0.12509000000E+03 0.  0.
         25    1    4    4    0    0 -0.38572028053E+02 -0.24887898123E+02  0.24198613106E+03  0.27624627517E+03  0.12509000000E+03 0.  0.
<mgrwt>
<rscale>  2 0.41297604E+03</rscale>
<asrwt>0</asrwt>
<pdfrwt beam="1">  1       21 0.12242887E+00 0.41297604E+03</pdfrwt>
<pdfrwt beam="2">  1       21 0.75316141E-02 0.41297604E+03</pdfrwt>
<totfact> 0.61945050E+04</totfact>
</mgrwt>
</event>
<event>
 7    0  0.4737014E-002  0.4578841E+03  0.7546771E-02  0.1025397E+00
         21   -1    0    0  502  501  0.00000000000E+00  0.00000000000E+00  0.42622494319E+03  0.42622494319E+03  0.00000000000E+00 0.  1.
         21   -1    0    0  501  502 -0.00000000000E+00 -0.00000000000E+00 -0.12297373158E+03  0.12297373158E+03  0.00000000000E+00 0.  1.
      99926    2    1    2    0    0  0.00000000000E+00 -0.71054273576E-14  0.30325121160E+03  0.54919867477E+03  0.45788414149E+03 0.  0.
      99925    2    3    3    0    0  0.10380046507E+03  0.49140600426E+02  0.17247248612E+03  0.33486268083E+03  0.26305307713E+03 0.  0.
         25    1    3    3    0    0 -0.10380046507E+03 -0.49140600426E+02  0.13077872548E+03  0.21433599394E+03  0.12509000000E+03 0.  0.
         25    1    4    4    0    0  0.35182351131E+02 -0.10265608624E+01  0.46444945157E+02  0.13799816190E+03  0.12509000000E+03 0.  0.
         25    1    4    4    0    0  0.68618113936E+02  0.50167161289E+02  0.12602754096E+03  0.19686451893E+03  0.12509000000E+03 0.  0.
<mgrwt>
<rscale>  2 0.45788414E+03</rscale>
<asrwt>0</asrwt>
<pdfrwt beam="1">  1       21 0.62680138E-01 0.45788414E+03</pdfrwt>
<pdfrwt beam="2">  1       21 0.18084372E-01 0.45788414E+03</pdfrwt>
<totfact> 0.60526432E+04</totfact>
</mgrwt>
</event>
<event>
 7    0  0.4737014E-002  0.4514270E+03  0.7546771E-02  0.1027297E+00
         21   -1    0    0  502  501  0.00000000000E+00  0.00000000000E+00  0.19557530065E+03  0.19557530065E+03  0.00000000000E+00 0. -1.
         21   -1    0    0  501  502 -0.00000000000E+00 -0.00000000000E+00 -0.26049597649E+03  0.26049597649E+03  0.00000000000E+00 0. -1.
      99926    2    1    2    0    0 -0.31086244690E-14 -0.14210854715E-13 -0.64920675846E+02  0.45607127714E+03  0.45142697713E+03 0.  0.
      99925    2    3    3    0    0  0.39465668772E+01  0.10844878827E+03 -0.24142425856E+02  0.28552190352E+03  0.26298894577E+03 0.  0.
         25    1    4    4    0    0 -0.21760136150E+02  0.89503650375E+02 -0.15931732281E+02  0.15615932617E+03  0.12509000000E+03 0.  0.
         25    1    4    4    0    0  0.25706703028E+02  0.18945137899E+02 -0.82106935747E+01  0.12936257735E+03  0.12509000000E+03 0.  0.
         25    1    3    3    0    0 -0.39465668772E+01 -0.10844878827E+03 -0.40778249989E+02  0.17054937362E+03  0.12509000000E+03 0.  0.
<mgrwt>
<rscale>  2 0.45142698E+03</rscale>
<asrwt>0</asrwt>
<pdfrwt beam="1">  1       21 0.28761074E-01 0.45142698E+03</pdfrwt>
<pdfrwt beam="2">  1       21 0.38308232E-01 0.45142698E+03</pdfrwt>
<totfact> 0.70454047E+04</totfact>
</mgrwt>
</event>
<event>
 7    0  0.4737014E-002  0.4489317E+03  0.7546771E-02  0.1028041E+00
         21   -1    0    0  502  501  0.00000000000E+00  0.00000000000E+00  0.37219451340E+03  0.37219451340E+03  0.00000000000E+00 0. -1.
         21   -1    0    0  501  502 -0.00000000000E+00 -0.00000000000E+00 -0.13537256280E+03  0.13537256280E+03  0.00000000000E+00 0. -1.
      99926    2    1    2    0    0  0.00000000000E+00  0.00000000000E+00  0.23682195060E+03  0.50756707620E+03  0.44893173263E+03 0.  0.
      99925    2    3    3    0    0  0.88703859618E+02 -0.55202536337E+02  0.12317035014E+03  0.30887160792E+03  0.26327749675E+03 0.  0.
         25    1    3    3    0    0 -0.88703859618E+02  0.55202536337E+02  0.11365160046E+03  0.19869546828E+03  0.12509000000E+03 0.  0.
         25    1    4    4    0    0  0.85725969929E+02 -0.32381046611E+02  0.54745947739E+02  0.16444482659E+03  0.12509000000E+03 0.  0.
         25    1    4    4    0    0  0.29778896887E+01 -0.22821489726E+02  0.68424402403E+02  0.14442678133E+03  0.12509000000E+03 0.  0.
<mgrwt>
<rscale>  2 0.44893173E+03</rscale>
<asrwt>0</asrwt>
<pdfrwt beam="1">  1       21 0.54734487E-01 0.44893173E+03</pdfrwt>
<pdfrwt beam="2">  1       21 0.19907730E-01 0.44893173E+03</pdfrwt>
<totfact> 0.67956400E+04</totfact>
</mgrwt>
</event>
<event>
 7    0  0.4737014E-002  0.4476391E+03  0.7546771E-02  0.1028428E+00
         21   -1    0    0  502  501  0.00000000000E+00  0.00000000000E+00  0.69652243522E+03  0.69652243522E+03  0.00000000000E+00 0.  1.
         21   -1    0    0  501  502 -0.00000000000E+00 -0.00000000000E+00 -0.71921861154E+02  0.71921861154E+02  0.00000000000E+00 0.  1.
      99926    2    1    2    0    0  0.00000000000E+00  0.35527136788E-14  0.62460057407E+03  0.76844429638E+03  0.44763909515E+03 0.  0.
      99925    2    3    3    0    0 -0.39812764290E+02  0.30844260519E+02  0.23541443143E+03  0.35655864922E+03  0.26301652268E+03 0.  0.
         25    1    4    4    0    0 -0.14967401452E+02 -0.74427724391E+01  0.15912764055E+03  0.20309734625E+03  0.12509000000E+03 0.  0.
         25    1    3    3    0    0  0.39812764290E+02 -0.30844260519E+02  0.38918614264E+03  0.41188564715E+03  0.12509000000E+03 0.  0.
         25    1    4    4    0    0 -0.24845362838E+02  0.38287032958E+02  0.76286790880E+02  0.15346130297E+03  0.12509000000E+03 0.  0.
<mgrwt>
<rscale>  2 0.44763910E+03</rscale>
<asrwt>0</asrwt>
<pdfrwt beam="1">  1       21 0.10242977E+00 0.44763910E+03</pdfrwt>
<pdfrwt beam="2">  1       21 0.10576745E-01 0.44763910E+03</pdfrwt>
<totfact> 0.52285436E+04</totfact>
</mgrwt>
</event>
<event>
 6    0  0.4737014E-002  0.4504615E+03  0.7546771E-02  0.1027585E+00
         21   -1    0    0  502  501  0.00000000000E+00  0.00000000000E+00  0.88086101651E+03  0.88086101651E+03  0.00000000000E+00 0.  1.
         21   -1    0    0  501  502 -0.00000000000E+00 -0.00000000000E+00 -0.57590116138E+02  0.57590116138E+02  0.00000000000E+00 0.  1.
      99926    2    1    2    0    0 -0.35527136788E-14  0.00000000000E+00  0.82327090037E+03  0.93845113265E+03  0.45046148888E+03 0.  0.
         25    1    3    3    0    0 -0.80403627365E+01 -0.22339680489E+02  0.33373741534E+03  0.35720005495E+03  0.12509000000E+03 0.  0.
         25    1    3    3    0    0  0.26752920116E+02 -0.79091315887E+02  0.21412524751E+03  0.26166445060E+03  0.12509000000E+03 0.  0.
         25    1    3    3    0    0 -0.18712557380E+02  0.10143099638E+03  0.27540823751E+03  0.31958662710E+03  0.12509000000E+03 0.  0.
<mgrwt>
<rscale>  2 0.45046149E+03</rscale>
<asrwt>0</asrwt>
<pdfrwt beam="1">  1       21 0.12953838E+00 0.45046149E+03</pdfrwt>
<pdfrwt beam="2">  1       21 0.84691353E-02 0.45046149E+03</pdfrwt>
<totfact> 0.43122401E+04</totfact>
</mgrwt>
</event>
<event>
 7    0  0.4737014E-002  0.4446844E+03  0.7546771E-02  0.1029319E+00
         21   -1    0    0  502  501  0.00000000000E+00  0.00000000000E+00  0.17609030767E+03  0.17609030767E+03  0.00000000000E+00 0.  1.
         21   -1    0    0  501  502 -0.00000000000E+00 -0.00000000000E+00 -0.28074260088E+03  0.28074260088E+03  0.00000000000E+00 0.  1.
      99926    2    1    2    0    0  0.00000000000E+00  0.00000000000E+00 -0.10465229321E+03  0.45683290855E+03  0.44468438679E+03 0.  0.
      99925    2    3    3    0    0 -0.40317600841E+02  0.47635945087E+02 -0.15068674518E+03  0.30965488345E+03  0.26322036295E+03 0.  0.
         25    1    3    3    0    0  0.40317600841E+02 -0.47635945087E+02  0.46034451969E+02  0.14717802509E+03  0.12509000000E+03 0.  0.
         25    1    4    4    0    0  0.17599100995E+02  0.39640204700E+02 -0.76517984693E+02  0.15291691949E+03  0.12509000000E+03 0.  0.
         25    1    4    4    0    0 -0.57916701836E+02  0.79957403873E+01 -0.74168760486E+02  0.15673796397E+03  0.12509000000E+03 0.  0.
<mgrwt>
<rscale>  2 0.44468439E+03</rscale>
<asrwt>0</asrwt>
<pdfrwt beam="1">  1       21 0.25895634E-01 0.44468439E+03</pdfrwt>
<pdfrwt beam="2">  1       21 0.41285676E-01 0.44468439E+03</pdfrwt>
<totfact> 0.74325773E+04</totfact>
</mgrwt>
</event>
<event>
 7    0  0.4737014E-002  0.4547599E+03  0.7546771E-02  0.1026312E+00
         21   -1    0    0  502  501  0.00000000000E+00  0.00000000000E+00  0.30503656154E+04  0.30503656154E+04  0.00000000000E+00 0.  1.
         21   -1    0    0  501  502 -0.00000000000E+00 -0.00000000000E+00 -0.16949323349E+02  0.16949323349E+02  0.00000000000E+00 0.  1.
      99926    2    1    2    0    0  0.14210854715E-13 -0.35527136788E-14  0.30334162921E+04  0.30673149388E+04  0.45475986256E+03 0.  0.
      99925    2    3    3    0    0 -0.88764424034E+02  0.25223138822E+02  0.14702450919E+04  0.14964339633E+04  0.26301833925E+03 0.  0.
         25    1    4    4    0    0 -0.74637607979E+02 -0.14678002163E+01  0.64734281516E+03  0.66353082476E+03  0.12509000000E+03 0.  0.
         25    1    4    4    0    0 -0.14126816056E+02  0.26690939038E+02  0.82290227671E+03  0.83290313859E+03  0.12509000000E+03 0.  0.
         25    1    3    3    0    0  0.88764424034E+02 -0.25223138822E+02  0.15631712002E+04  0.15708809754E+04  0.12509000000E+03 0.  0.
<mgrwt>
<rscale>  2 0.45475986E+03</rscale>
<asrwt>0</asrwt>
<pdfrwt beam="1">  1       21 0.44858280E+00 0.45475986E+03</pdfrwt>
<pdfrwt beam="2">  1       21 0.24925497E-02 0.45475986E+03</pdfrwt>
<totfact> 0.28953202E+03</totfact>
</mgrwt>
</event>
<event>
 7    0  0.4737014E-002  0.4098934E+03  0.7546771E-02  0.1040407E+00
         21   -1    0    0  502  501  0.00000000000E+00  0.00000000000E+00  0.82399346721E+02  0.82399346721E+02  0.00000000000E+00 0.  1.
         21   -1    0    0  501  502 -0.00000000000E+00 -0.00000000000E+00 -0.50975110066E+03  0.50975110066E+03  0.00000000000E+00 0.  1.
      99926    2    1    2    0    0  0.00000000000E+00  0.00000000000E+00 -0.42735175394E+03  0.59215044738E+03  0.40989343827E+03 0.  0.
      99925    2    3    3    0    0 -0.37298762310E+02  0.11020983323E+02 -0.21090200464E+03  0.33914716318E+03  0.26273272158E+03 0.  0.
         25    1    3    3    0    0  0.37298762310E+02 -0.11020983323E+02 -0.21644974929E+03  0.25300328419E+03  0.12509000000E+03 0.  0.
         25    1    4    4    0    0  0.65891328364E+01  0.20251360690E+01 -0.62668169880E+02  0.14007971111E+03  0.12509000000E+03 0.  0.
         25    1    4    4    0    0 -0.43887895146E+02  0.89958472539E+01 -0.14823383476E+03  0.19906745208E+03  0.12509000000E+03 0.  0.
<mgrwt>
<rscale>  2 0.40989344E+03</rscale>
<asrwt>0</asrwt>
<pdfrwt beam="1">  1       21 0.12117551E-01 0.40989344E+03</pdfrwt>
<pdfrwt beam="2">  1       21 0.74963397E-01 0.40989344E+03</pdfrwt>
<totfact> 0.85929674E+04</totfact>
</mgrwt>
</event>
<event>
 7    0  0.4737014E-002  0.4549403E+03  0.7546771E-02  0.1026259E+00
         21   -1    0    0  502  501  0.00000000000E+00  0.00000000000E+00  0.41588024247E+02  0.41588024247E+02  0.00000000000E+00 0.  1.
         21   -1    0    0  501  502 -0.00000000000E+00 -0.00000000000E+00 -0.12441721822E+04  0.12441721822E+04  0.00000000000E+00 0.  1.
      99926    2    1    2    0    0 -0.17763568394E-14  0.00000000000E+00 -0.12025841580E+04  0.12857602065E+04  0.45494027248E+03 0.  0.
      99925    2    3    3    0    0 -0.12239852852E+02  0.11057511997E+03 -0.81125964801E+03  0.86013237449E+03  0.26326567190E+03 0.  0.
         25    1    4    4    0    0  0.23806141370E+02  0.25481958390E+02 -0.39255712156E+03  0.41347873507E+03  0.12509000000E+03 0.  0.
         25    1    3    3    0    0  0.12239852852E+02 -0.11057511997E+03 -0.39132450995E+03  0.42562783197E+03  0.12509000000E+03 0.  0.
         25    1    4    4    0    0 -0.36045994222E+02  0.85093161585E+02 -0.41870252645E+03  0.44665363942E+03  0.12509000000E+03 0.  0.
<mgrwt>
<rscale>  2 0.45494027E+03</rscale>
<asrwt>0</asrwt>
<pdfrwt beam="1">  1       21 0.61158868E-02 0.45494027E+03</pdfrwt>
<pdfrwt beam="2">  1       21 0.18296647E+00 0.45494027E+03</pdfrwt>
<totfact> 0.29544872E+04</totfact>
</mgrwt>
</event>
<event>
 7    0  0.4737014E-002  0.4491176E+03  0.7546771E-02  0.1027986E+00
         21   -1    0    0  502  501  0.00000000000E+00  0.00000000000E+00  0.29885904027E+03  0.29885904027E+03  0.00000000000E+00 0. -1.
         21   -1    0    0  501  502 -0.00000000000E+00 -0.00000000000E+00 -0.16873053972E+03  0.16873053972E+03  0.00000000000E+00 0. -1.
      99926    2    1    2    0    0  0.35527136788E-14 -0.35527136788E-14  0.13012850055E+03  0.46758958000E+03  0.44911756664E+03 0.  0.
      99925    2    3    3    0    0  0.28586161514E+02 -0.26402452611E+02  0.18571662778E+03  0.32528073936E+03  0.26420188385E+03 0.  0.
         25    1    3    3    0    0 -0.28586161514E+02  0.26402452611E+02 -0.55588127227E+02  0.14230884063E+03  0.12509000000E+03 0.  0.
         25    1    4    4    0    0  0.40426096467E+02 -0.20971727422E+02  0.55447334568E+02  0.14420817465E+03  0.12509000000E+03 0.  0.
         25    1    4    4    0    0 -0.11839934953E+02 -0.54307251884E+01  0.13026929321E+03  0.18107256471E+03  0.12509000000E+03 0.  0.
<mgrwt>
<rscale>  2 0.44911757E+03</rscale>
<asrwt>0</asrwt>
<pdfrwt beam="1">  1       21 0.43949859E-01 0.44911757E+03</pdfrwt>
<pdfrwt beam="2">  1       21 0.24813315E-01 0.44911757E+03</pdfrwt>
<totfact> 0.70865368E+04</totfact>
</mgrwt>
</event>
<event>
 7    0  0.4737014E-002  0.4590090E+03  0.7546771E-02  0.1025069E+00
         21   -1    0    0  502  501  0.00000000000E+00  0.00000000000E+00  0.27068741766E+03  0.27068741766E+03  0.00000000000E+00 0. -1.
         21   -1    0    0  501  502 -0.00000000000E+00 -0.00000000000E+00 -0.19458721845E+03  0.19458721845E+03  0.00000000000E+00 0. -1.
      99926    2    1    2    0    0  0.00000000000E+00 -0.14210854715E-13  0.76100199209E+02  0.46527463612E+03  0.45900898324E+03 0.  0.
      99925    2    3    3    0    0  0.69235394740E+02  0.93003261051E+02  0.32308028793E+02  0.28918258990E+03  0.26294412929E+03 0.  0.
         25    1    4    4    0    0  0.41164027963E+02  0.88711633404E+02  0.24621042248E+02  0.16067960331E+03  0.12509000000E+03 0.  0.
         25    1    4    4    0    0  0.28071366777E+02  0.42916276469E+01  0.76869865457E+01  0.12850298659E+03  0.12509000000E+03 0.  0.
         25    1    3    3    0    0 -0.69235394740E+02 -0.93003261051E+02  0.43792170416E+02  0.17609204622E+03  0.12509000000E+03 0.  0.
<mgrwt>
<rscale>  2 0.45900898E+03</rscale>
<asrwt>0</asrwt>
<pdfrwt beam="1">  1       21 0.39806973E-01 0.45900898E+03</pdfrwt>
<pdfrwt beam="2">  1       21 0.28615767E-01 0.45900898E+03</pdfrwt>
<totfact> 0.65671738E+04</totfact>
</mgrwt>
</event>
<event>
 7    0  0.4737014E-002  0.4386180E+03  0.7546771E-02  0.1031172E+00
         21   -1    0    0  502  501  0.00000000000E+00  0.00000000000E+00  0.10618894193E+03  0.10618894193E+03  0.00000000000E+00 0.  1.
         21   -1    0    0  501  502 -0.00000000000E+00 -0.00000000000E+00 -0.45293273922E+03  0.45293273922E+03  0.00000000000E+00 0.  1.
      99926    2    1    2    0    0 -0.35527136788E-14  0.00000000000E+00 -0.34674379730E+03  0.55912168115E+03  0.43861804952E+03 0.  0.
      99925    2    3    3    0    0  0.24065137341E+02 -0.32516634858E+02 -0.10919666131E+03  0.28762101394E+03  0.26299329733E+03 0.  0.
         25    1    3    3    0    0 -0.24065137341E+02  0.32516634858E+02 -0.23754713599E+03  0.27150066721E+03  0.12509000000E+03 0.  0.
         25    1    4    4    0    0 -0.15074017981E+02 -0.12595318682E+02 -0.20907187287E+02  0.12833739381E+03  0.12509000000E+03 0.  0.
         25    1    4    4    0    0  0.39139155322E+02 -0.19921316177E+02 -0.88289474021E+02  0.15928362013E+03  0.12509000000E+03 0.  0.
<mgrwt>
<rscale>  2 0.43861805E+03</rscale>
<asrwt>0</asrwt>
<pdfrwt beam="1">  1       21 0.15616021E-01 0.43861805E+03</pdfrwt>
<pdfrwt beam="2">  1       21 0.66607755E-01 0.43861805E+03</pdfrwt>
<totfact> 0.69893673E+04</totfact>
</mgrwt>
</event>
<event>
 7    0  0.4737014E-002  0.4509830E+03  0.7546771E-02  0.1027429E+00
         21   -1    0    0  502  501  0.00000000000E+00  0.00000000000E+00  0.45922553338E+02  0.45922553338E+02  0.00000000000E+00 0.  1.
         21   -1    0    0  501  502 -0.00000000000E+00 -0.00000000000E+00 -0.11072212169E+04  0.11072212169E+04  0.00000000000E+00 0.  1.
      99926    2    1    2    0    0  0.17763568394E-14  0.14210854715E-13 -0.10612986635E+04  0.11531437702E+04  0.45098303909E+03 0.  0.
      99925    2    3    3    0    0  0.15610516164E+02 -0.69352247909E+02 -0.88285118457E+03  0.92391804444E+03  0.26295420939E+03 0.  0.
         25    1    3    3    0    0 -0.15610516164E+02  0.69352247909E+02 -0.17844747894E+03  0.22922572575E+03  0.12509000000E+03 0.  0.
         25    1    4    4    0    0  0.18205864488E+02 -0.73913229387E+02 -0.44130200136E+03  0.46496191616E+03  0.12509000000E+03 0.  0.
         25    1    4    4    0    0 -0.25953483239E+01  0.45609814782E+01 -0.44154918321E+03  0.45895612827E+03  0.12509000000E+03 0.  0.
<mgrwt>
<rscale>  2 0.45098304E+03</rscale>
<asrwt>0</asrwt>
<pdfrwt beam="1">  1       21 0.67533164E-02 0.45098304E+03</pdfrwt>
<pdfrwt beam="2">  1       21 0.16282665E+00 0.45098304E+03</pdfrwt>
<totfact> 0.34752860E+04</totfact>
</mgrwt>
</event>
<event>
 7    0  0.4737014E-002  0.4433539E+03  0.7546771E-02  0.1029723E+00
         21   -1    0    0  502  501  0.00000000000E+00  0.00000000000E+00  0.24829616735E+03  0.24829616735E+03  0.00000000000E+00 0. -1.
         21   -1    0    0  501  502 -0.00000000000E+00 -0.00000000000E+00 -0.19791154836E+03  0.19791154836E+03  0.00000000000E+00 0. -1.
      99926    2    1    2    0    0  0.00000000000E+00  0.00000000000E+00  0.50384618989E+02  0.44620771571E+03  0.44335393957E+03 0.  0.
      99925    2    3    3    0    0  0.11689880153E+02 -0.84920383737E+02 -0.23360780099E+02  0.27758382399E+03  0.26298085182E+03 0.  0.
         25    1    3    3    0    0 -0.11689880153E+02  0.84920383737E+02  0.73745399088E+02  0.16862389172E+03  0.12509000000E+03 0.  0.
         25    1    4    4    0    0  0.41464520422E+01 -0.86094188167E+01  0.13846291208E+02  0.12621625504E+03  0.12509000000E+03 0.  0.
         25    1    4    4    0    0  0.75434281108E+01 -0.76310964920E+02 -0.37207071307E+02  0.15136756895E+03  0.12509000000E+03 0.  0.
<mgrwt>
<rscale>  2 0.44335394E+03</rscale>
<asrwt>0</asrwt>
<pdfrwt beam="1">  1       21 0.36514142E-01 0.44335394E+03</pdfrwt>
<pdfrwt beam="2">  1       21 0.29104640E-01 0.44335394E+03</pdfrwt>
<totfact> 0.76016141E+04</totfact>
</mgrwt>
</event>
<event>
 7    0  0.4737014E-002  0.4496985E+03  0.7546771E-02  0.1027812E+00
         21   -1    0    0  502  501  0.00000000000E+00  0.00000000000E+00  0.11258793482E+03  0.11258793482E+03  0.00000000000E+00 0. -1.
         21   -1    0    0  501  502 -0.00000000000E+00 -0.00000000000E+00 -0.44904623095E+03  0.44904623095E+03  0.00000000000E+00 0. -1.
      99926    2    1    2    0    0  0.35527136788E-14  0.00000000000E+00 -0.33645829613E+03  0.56163416576E+03  0.44969851136E+03 0.  0.
      99925    2    3    3    0    0 -0.23697907647E+02 -0.41387318498E+02 -0.91671108481E+02  0.28263098245E+03  0.26306307067E+03 0.  0.
         25    1    4    4    0    0  0.16241523250E+02 -0.92994329483E+01 -0.73371265762E+02  0.14622283430E+03  0.12509000000E+03 0.  0.
         25    1    4    4    0    0 -0.39939430897E+02 -0.32087885550E+02 -0.18299842719E+02  0.13640814815E+03  0.12509000000E+03 0.  0.
         25    1    3    3    0    0  0.23697907647E+02  0.41387318498E+02 -0.24478718765E+03  0.27900318331E+03  0.12509000000E+03 0.  0.
<mgrwt>
<rscale>  2 0.44969851E+03</rscale>
<asrwt>0</asrwt>
<pdfrwt beam="1">  1       21 0.16557049E-01 0.44969851E+03</pdfrwt>
<pdfrwt beam="2">  1       21 0.66036210E-01 0.44969851E+03</pdfrwt>
<totfact> 0.63734983E+04</totfact>
</mgrwt>
</event>
<event>
 7    0  0.4737014E-002  0.4636258E+03  0.7546771E-02  0.1023735E+00
         21   -1    0    0  502  501  0.00000000000E+00  0.00000000000E+00  0.21298185416E+03  0.21298185416E+03  0.00000000000E+00 0.  1.
         21   -1    0    0  501  502 -0.00000000000E+00 -0.00000000000E+00 -0.25230889755E+03  0.25230889755E+03  0.00000000000E+00 0.  1.
      99926    2    1    2    0    0  0.00000000000E+00  0.14432899320E-14 -0.39327043385E+02  0.46529075171E+03  0.46362578367E+03 0.  0.
      99925    2    3    3    0    0 -0.85470003288E+02  0.47186449634E+00 -0.10907241573E+03  0.29850565291E+03  0.26439267923E+03 0.  0.
         25    1    4    4    0    0 -0.69654043367E+02  0.27308969689E+02 -0.35267485428E+02  0.14996255936E+03  0.12509000000E+03 0.  0.
         25    1    3    3    0    0  0.85470003288E+02 -0.47186449634E+00  0.69745372346E+02  0.16678509880E+03  0.12509000000E+03 0.  0.
         25    1    4    4    0    0 -0.15815959922E+02 -0.26837105192E+02 -0.73804930302E+02  0.14854309355E+03  0.12509000000E+03 0.  0.
<mgrwt>
<rscale>  2 0.46362578E+03</rscale>
<asrwt>0</asrwt>
<pdfrwt beam="1">  1       21 0.31320861E-01 0.46362578E+03</pdfrwt>
<pdfrwt beam="2">  1       21 0.37104250E-01 0.46362578E+03</pdfrwt>
<totfact> 0.63326606E+04</totfact>
</mgrwt>
</event>
<event>
 7    0  0.4737014E-002  0.4617555E+03  0.7546771E-02  0.1024273E+00
         21   -1    0    0  502  501  0.00000000000E+00  0.00000000000E+00  0.94891236124E+02  0.94891236124E+02  0.00000000000E+00 0.  1.
         21   -1    0    0  501  502 -0.00000000000E+00 -0.00000000000E+00 -0.56174343871E+03  0.56174343871E+03  0.00000000000E+00 0.  1.
      99926    2    1    2    0    0  0.00000000000E+00  0.00000000000E+00 -0.46685220259E+03  0.65663467483E+03  0.46175547331E+03 0.  0.
      99925    2    3    3    0    0 -0.71973631263E+02  0.44003992721E+02 -0.17187574071E+03  0.32531130389E+03  0.26300117722E+03 0.  0.
         25    1    3    3    0    0  0.71973631263E+02 -0.44003992721E+02 -0.29497646188E+03  0.33132337095E+03  0.12509000000E+03 0.  0.
         25    1    4    4    0    0 -0.21684452312E+02  0.45925120885E+02 -0.12069154713E+03  0.18108917651E+03  0.12509000000E+03 0.  0.
         25    1    4    4    0    0 -0.50289178950E+02 -0.19211281636E+01 -0.51184193574E+02  0.14422212738E+03  0.12509000000E+03 0.  0.
<mgrwt>
<rscale>  2 0.46175547E+03</rscale>
<asrwt>0</asrwt>
<pdfrwt beam="1">  1       21 0.13954594E-01 0.46175547E+03</pdfrwt>
<pdfrwt beam="2">  1       21 0.82609326E-01 0.46175547E+03</pdfrwt>
<totfact> 0.52468687E+04</totfact>
</mgrwt>
</event>
<event>
 7    0  0.4737014E-002  0.4608975E+03  0.7546771E-02  0.1024521E+00
         21   -1    0    0  502  501  0.00000000000E+00  0.00000000000E+00  0.14651511125E+04  0.14651511125E+04  0.00000000000E+00 0.  1.
         21   -1    0    0  501  502 -0.00000000000E+00 -0.00000000000E+00 -0.36246515842E+02  0.36246515842E+02  0.00000000000E+00 0.  1.
      99926    2    1    2    0    0  0.00000000000E+00  0.35527136788E-14  0.14289045966E+04  0.15013976283E+04  0.46089748538E+03 0.  0.
      99925    2    3    3    0    0 -0.33097448075E+02  0.23928857009E+02  0.53374868517E+03  0.59662160896E+03  0.26344193686E+03 0.  0.
         25    1    3    3    0    0  0.33097448075E+02 -0.23928857009E+02  0.89515591144E+03  0.90477601933E+03  0.12509000000E+03 0.  0.
         25    1    4    4    0    0  0.14079745026E+02 -0.95173719528E+01  0.29643420487E+03  0.32219491850E+03  0.12509000000E+03 0.  0.
         25    1    4    4    0    0 -0.47177193101E+02  0.33446228962E+02  0.23731448030E+03  0.27442669047E+03  0.12509000000E+03 0.  0.
<mgrwt>
<rscale>  2 0.46089749E+03</rscale>
<asrwt>0</asrwt>
<pdfrwt beam="1">  1       21 0.21546336E+00 0.46089749E+03</pdfrwt>
<pdfrwt beam="2">  1       21 0.53303710E-02 0.46089749E+03</pdfrwt>
<totfact> 0.22687706E+04</totfact>
</mgrwt>
</event>
<event>
 7    0  0.4737014E-002  0.4551898E+03  0.7546771E-02  0.1026186E+00
         21   -1    0    0  502  501  0.00000000000E+00  0.00000000000E+00  0.77344502751E+02  0.77344502751E+02  0.00000000000E+00 0.  1.
         21   -1    0    0  501  502 -0.00000000000E+00 -0.00000000000E+00 -0.66972351971E+03  0.66972351971E+03  0.00000000000E+00 0.  1.
      99926    2    1    2    0    0 -0.14210854715E-13  0.00000000000E+00 -0.59237901696E+03  0.74706802246E+03  0.45518977411E+03 0.  0.
      99925    2    3    3    0    0  0.10549834244E+03 -0.61922256594E+01 -0.44012750204E+03  0.52346955241E+03  0.26294469062E+03 0.  0.
         25    1    4    4    0    0  0.93440905655E+02  0.14935934023E+01 -0.26869772902E+03  0.31077228215E+03  0.12509000000E+03 0.  0.
         25    1    4    4    0    0  0.12057436788E+02 -0.76858190617E+01 -0.17142977302E+03  0.21269727026E+03  0.12509000000E+03 0.  0.
         25    1    3    3    0    0 -0.10549834244E+03  0.61922256594E+01 -0.15225151491E+03  0.22359847005E+03  0.12509000000E+03 0.  0.
<mgrwt>
<rscale>  2 0.45518977E+03</rscale>
<asrwt>0</asrwt>
<pdfrwt beam="1">  1       21 0.11374191E-01 0.45518977E+03</pdfrwt>
<pdfrwt beam="2">  1       21 0.98488757E-01 0.45518977E+03</pdfrwt>
<totfact> 0.50345702E+04</totfact>
</mgrwt>
</event>
<event>
 7    0  0.4737014E-002  0.4635546E+03  0.7546771E-02  0.1023755E+00
         21   -1    0    0  502  501  0.00000000000E+00  0.00000000000E+00  0.20276629873E+03  0.20276629873E+03  0.00000000000E+00 0.  1.
         21   -1    0    0  501  502 -0.00000000000E+00 -0.00000000000E+00 -0.26493909625E+03  0.26493909625E+03  0.00000000000E+00 0.  1.
      99926    2    1    2    0    0  0.00000000000E+00  0.00000000000E+00 -0.62172797516E+02  0.46770539498E+03  0.46355461355E+03 0.  0.
      99925    2    3    3    0    0 -0.63548000065E+02  0.88141723963E+02  0.14819044999E+02  0.28499643590E+03  0.26305142570E+03 0.  0.
         25    1    3    3    0    0  0.63548000065E+02 -0.88141723963E+02 -0.76991842515E+02  0.18270895908E+03  0.12509000000E+03 0.  0.
         25    1    4    4    0    0 -0.32715297500E+02  0.33492243305E+02 -0.32149464663E+02  0.13737946437E+03  0.12509000000E+03 0.  0.
         25    1    4    4    0    0 -0.30832702565E+02  0.54649480659E+02  0.46968509662E+02  0.14761697153E+03  0.12509000000E+03 0.  0.
<mgrwt>
<rscale>  2 0.46355461E+03</rscale>
<asrwt>0</asrwt>
<pdfrwt beam="1">  1       21 0.29818574E-01 0.46355461E+03</pdfrwt>
<pdfrwt beam="2">  1       21 0.38961631E-01 0.46355461E+03</pdfrwt>
<totfact> 0.63199731E+04</totfact>
</mgrwt>
</event>
<event>
 7    0  0.4737014E-002  0.4525415E+03  0.7546771E-02  0.1026967E+00
         21   -1    0    0  502  501  0.00000000000E+00  0.00000000000E+00  0.13823441127E+03  0.13823441127E+03  0.00000000000E+00 0.  1.
         21   -1    0    0  501  502 -0.00000000000E+00 -0.00000000000E+00 -0.37037412199E+03  0.37037412199E+03  0.00000000000E+00 0.  1.
      99926    2    1    2    0    0  0.00000000000E+00  0.00000000000E+00 -0.23213971072E+03  0.50860853326E+03  0.45254148407E+03 0.  0.
      99925    2    3    3    0    0  0.40136232475E+02 -0.72942791805E+02 -0.64351677983E+02  0.28337110283E+03  0.26310924618E+03 0.  0.
         25    1    4    4    0    0  0.60572441614E+02 -0.42853728943E+02 -0.40034993201E+02  0.15085016257E+03  0.12509000000E+03 0.  0.
         25    1    3    3    0    0 -0.40136232475E+02  0.72942791805E+02 -0.16778803274E+03  0.22523743043E+03  0.12509000000E+03 0.  0.
         25    1    4    4    0    0 -0.20436209140E+02 -0.30089062862E+02 -0.24316684782E+02  0.13252094026E+03  0.12509000000E+03 0.  0.
<mgrwt>
<rscale>  2 0.45254148E+03</rscale>
<asrwt>0</asrwt>
<pdfrwt beam="1">  1       21 0.20328590E-01 0.45254148E+03</pdfrwt>
<pdfrwt beam="2">  1       21 0.54466781E-01 0.45254148E+03</pdfrwt>
<totfact> 0.65947386E+04</totfact>
</mgrwt>
</event>
<event>
 7    0  0.4737014E-002  0.4538343E+03  0.7546771E-02  0.1026585E+00
         21   -1    0    0  502  501  0.00000000000E+00  0.00000000000E+00  0.10903064540E+04  0.10903064540E+04  0.00000000000E+00 0.  1.
         21   -1    0    0  501  502 -0.00000000000E+00 -0.00000000000E+00 -0.47226525758E+02  0.47226525758E+02  0.00000000000E+00 0.  1.
      99926    2    1    2    0    0 -0.35527136788E-14  0.00000000000E+00  0.10430799283E+04  0.11375329798E+04  0.45383426858E+03 0.  0.
      99925    2    3    3    0    0  0.21778780912E+02  0.10816556550E+03  0.70624510953E+03  0.76166158147E+03  0.26300590315E+03 0.  0.
         25    1    4    4    0    0 -0.25223242739E+02  0.45513747678E+02  0.29168109702E+03  0.32161014235E+03  0.12509000000E+03 0.  0.
         25    1    4    4    0    0  0.47002023651E+02  0.62651817818E+02  0.41456401251E+03  0.44005143912E+03  0.12509000000E+03 0.  0.
         25    1    3    3    0    0 -0.21778780912E+02 -0.10816556550E+03  0.33683481873E+03  0.37587139831E+03  0.12509000000E+03 0.  0.
<mgrwt>
<rscale>  2 0.45383427E+03</rscale>
<asrwt>0</asrwt>
<pdfrwt beam="1">  1       21 0.16033917E+00 0.45383427E+03</pdfrwt>
<pdfrwt beam="2">  1       21 0.69450780E-02 0.45383427E+03</pdfrwt>
<totfact> 0.34513901E+04</totfact>
</mgrwt>
</event>
<event>
 7    0  0.4737014E-002  0.4577341E+03  0.7546771E-02  0.1025440E+00
         21   -1    0    0  502  501  0.00000000000E+00  0.00000000000E+00  0.21998544728E+04  0.21998544728E+04  0.00000000000E+00 0. -1.
         21   -1    0    0  501  502 -0.00000000000E+00 -0.00000000000E+00 -0.23810718744E+02  0.23810718744E+02  0.00000000000E+00 0. -1.
      99926    2    1    2    0    0  0.00000000000E+00  0.00000000000E+00  0.21760437541E+04  0.22236651916E+04  0.45773405436E+03 0.  0.
      99925    2    3    3    0    0 -0.29887417327E+02 -0.79352677325E+02  0.17484695034E+04  0.17701705907E+04  0.26299849921E+03 0.  0.
         25    1    4    4    0    0 -0.29735183148E-01 -0.21480232061E+02  0.10470461844E+04  0.10547106815E+04  0.12509000000E+03 0.  0.
         25    1    4    4    0    0 -0.29857682144E+02 -0.57872445264E+02  0.70142331897E+03  0.71545990915E+03  0.12509000000E+03 0.  0.
         25    1    3    3    0    0  0.29887417327E+02  0.79352677325E+02  0.42757425068E+03  0.45349460091E+03  0.12509000000E+03 0.  0.
<mgrwt>
<rscale>  2 0.45773405E+03</rscale>
<asrwt>0</asrwt>
<pdfrwt beam="1">  1       21 0.32350787E+00 0.45773405E+03</pdfrwt>
<pdfrwt beam="2">  1       21 0.35015778E-02 0.45773405E+03</pdfrwt>
<totfact> 0.10172087E+04</totfact>
</mgrwt>
</event>
<event>
 7    0  0.4737014E-002  0.4608285E+03  0.7546771E-02  0.1024541E+00
         21   -1    0    0  502  501  0.00000000000E+00  0.00000000000E+00  0.22465071026E+03  0.22465071026E+03  0.00000000000E+00 0. -1.
         21   -1    0    0  501  502 -0.00000000000E+00 -0.00000000000E+00 -0.23632562418E+03  0.23632562418E+03  0.00000000000E+00 0. -1.
      99926    2    1    2    0    0 -0.71054273576E-14  0.00000000000E+00 -0.11674913923E+02  0.46097633444E+03  0.46082846841E+03 0.  0.
      99925    2    3    3    0    0  0.34412775373E+02  0.89235194312E+02  0.63181093441E+02  0.28662585709E+03  0.26270776991E+03 0.  0.
         25    1    4    4    0    0  0.54711187295E+02  0.59376502730E+02  0.25188693743E+02  0.15099954134E+03  0.12509000000E+03 0.  0.
         25    1    3    3    0    0 -0.34412775373E+02 -0.89235194312E+02 -0.74856007364E+02  0.17435047735E+03  0.12509000000E+03 0.  0.
         25    1    4    4    0    0 -0.20298411922E+02  0.29858691582E+02  0.37992399697E+02  0.13562631575E+03  0.12509000000E+03 0.  0.
<mgrwt>
<rscale>  2 0.46082847E+03</rscale>
<asrwt>0</asrwt>
<pdfrwt beam="1">  1       21 0.33036869E-01 0.46082847E+03</pdfrwt>
<pdfrwt beam="2">  1       21 0.34753768E-01 0.46082847E+03</pdfrwt>
<totfact> 0.65032799E+04</totfact>
</mgrwt>
</event>
<event>
 7    0  0.4737014E-002  0.4026863E+03  0.7546771E-02  0.1042853E+00
         21   -1    0    0  502  501  0.00000000000E+00  0.00000000000E+00  0.83735969404E+02  0.83735969404E+02  0.00000000000E+00 0.  1.
         21   -1    0    0  501  502 -0.00000000000E+00 -0.00000000000E+00 -0.48412967040E+03  0.48412967040E+03  0.00000000000E+00 0.  1.
      99926    2    1    2    0    0  0.00000000000E+00  0.00000000000E+00 -0.40039370099E+03  0.56786563980E+03  0.40268631597E+03 0.  0.
      99925    2    3    3    0    0 -0.38754756062E+02  0.12485192731E+02 -0.30836654891E+03  0.40732182654E+03  0.26298922171E+03 0.  0.
         25    1    4    4    0    0  0.11286854155E+02  0.23797402112E+02 -0.18088402351E+03  0.22149547961E+03  0.12509000000E+03 0.  0.
         25    1    3    3    0    0  0.38754756062E+02 -0.12485192731E+02 -0.92027152081E+02  0.16054381326E+03  0.12509000000E+03 0.  0.
         25    1    4    4    0    0 -0.50041610216E+02 -0.11312209381E+02 -0.12748252540E+03  0.18582634694E+03  0.12509000000E+03 0.  0.
<mgrwt>
<rscale>  2 0.40268632E+03</rscale>
<asrwt>0</asrwt>
<pdfrwt beam="1">  1       21 0.12314113E-01 0.40268632E+03</pdfrwt>
<pdfrwt beam="2">  1       21 0.71195538E-01 0.40268632E+03</pdfrwt>
<totfact> 0.93931285E+04</totfact>
</mgrwt>
</event>
<event>
 7    0  0.4737014E-002  0.4647228E+03  0.7546771E-02  0.1023420E+00
         21   -1    0    0  502  501  0.00000000000E+00  0.00000000000E+00  0.69397660791E+02  0.69397660791E+02  0.00000000000E+00 0.  1.
         21   -1    0    0  501  502 -0.00000000000E+00 -0.00000000000E+00 -0.77800637920E+03  0.77800637920E+03  0.00000000000E+00 0.  1.
      99926    2    1    2    0    0  0.00000000000E+00  0.00000000000E+00 -0.70860871841E+03  0.84740403999E+03  0.46472281113E+03 0.  0.
      99925    2    3    3    0    0 -0.65999684876E+02 -0.10220969214E+03 -0.46000463006E+03  0.54367014262E+03  0.26300225232E+03 0.  0.
         25    1    3    3    0    0  0.65999684876E+02  0.10220969214E+03 -0.24860408835E+03  0.30373389737E+03  0.12509000000E+03 0.  0.
         25    1    4    4    0    0 -0.37257289338E+02 -0.18280118421E+02 -0.26143406293E+03  0.29277558932E+03  0.12509000000E+03 0.  0.
         25    1    4    4    0    0 -0.28742395538E+02 -0.83929573719E+02 -0.19857056713E+03  0.25089455330E+03  0.12509000000E+03 0.  0.
<mgrwt>
<rscale>  2 0.46472281E+03</rscale>
<asrwt>0</asrwt>
<pdfrwt beam="1">  1       21 0.10205538E-01 0.46472281E+03</pdfrwt>
<pdfrwt beam="2">  1       21 0.11441270E+00 0.46472281E+03</pdfrwt>
<totfact> 0.42240474E+04</totfact>
</mgrwt>
</event>
<event>
 7    0  0.4737014E-002  0.4563075E+03  0.7546771E-02  0.1025858E+00
         21   -1    0    0  502  501  0.00000000000E+00  0.00000000000E+00  0.53087759887E+02  0.53087759887E+02  0.00000000000E+00 0.  1.
         21   -1    0    0  501  502 -0.00000000000E+00 -0.00000000000E+00 -0.98052984070E+03  0.98052984070E+03  0.00000000000E+00 0.  1.
      99926    2    1    2    0    0  0.00000000000E+00 -0.17763568394E-14 -0.92744208082E+03  0.10336176006E+04  0.45630749608E+03 0.  0.
      99925    2    3    3    0    0 -0.51883742184E+02  0.87308259848E+01 -0.35319011646E+03  0.44354898027E+03  0.26310509213E+03 0.  0.
         25    1    4    4    0    0 -0.59568390210E+02 -0.16500369700E+02 -0.16567866568E+03  0.21660467141E+03  0.12509000000E+03 0.  0.
         25    1    3    3    0    0  0.51883742184E+02 -0.87308259848E+01 -0.57425196435E+03  0.59006862032E+03  0.12509000000E+03 0.  0.
         25    1    4    4    0    0  0.76846480255E+01  0.25231195685E+02 -0.18751145078E+03  0.22694430886E+03  0.12509000000E+03 0.  0.
<mgrwt>
<rscale>  2 0.45630750E+03</rscale>
<asrwt>0</asrwt>
<pdfrwt beam="1">  1       21 0.78070238E-02 0.45630750E+03</pdfrwt>
<pdfrwt beam="2">  1       21 0.14419556E+00 0.45630750E+03</pdfrwt>
<totfact> 0.37500086E+04</totfact>
</mgrwt>
</event>
<event>
 7    0  0.4737014E-002  0.4497970E+03  0.7546771E-02  0.1027783E+00
         21   -1    0    0  502  501  0.00000000000E+00  0.00000000000E+00  0.12072469494E+03  0.12072469494E+03  0.00000000000E+00 0.  1.
         21   -1    0    0  501  502 -0.00000000000E+00 -0.00000000000E+00 -0.41896430838E+03  0.41896430838E+03  0.00000000000E+00 0.  1.
      99926    2    1    2    0    0  0.00000000000E+00  0.00000000000E+00 -0.29823961345E+03  0.53968900332E+03  0.44979701341E+03 0.  0.
      99925    2    3    3    0    0  0.93625915268E+02  0.99330813200E+01 -0.25254488102E+03  0.37659395500E+03  0.26302017394E+03 0.  0.
         25    1    4    4    0    0  0.10598484330E+02  0.17214774306E+02 -0.13991453365E+03  0.18876509516E+03  0.12509000000E+03 0.  0.
         25    1    3    3    0    0 -0.93625915268E+02 -0.99330813200E+01 -0.45694732426E+02  0.16309504832E+03  0.12509000000E+03 0.  0.
         25    1    4    4    0    0  0.83027430938E+02 -0.72816929860E+01 -0.11263034737E+03  0.18782885984E+03  0.12509000000E+03 0.  0.
<mgrwt>
<rscale>  2 0.44979701E+03</rscale>
<asrwt>0</asrwt>
<pdfrwt beam="1">  1       21 0.17753632E-01 0.44979701E+03</pdfrwt>
<pdfrwt beam="2">  1       21 0.61612398E-01 0.44979701E+03</pdfrwt>
<totfact> 0.65196394E+04</totfact>
</mgrwt>
</event>
<event>
 7    0  0.4737014E-002  0.4545369E+03  0.7546771E-02  0.1026378E+00
         21   -1    0    0  502  501  0.00000000000E+00  0.00000000000E+00  0.29811382640E+03  0.29811382640E+03  0.00000000000E+00 0.  1.
         21   -1    0    0  501  502 -0.00000000000E+00 -0.00000000000E+00 -0.17325914731E+03  0.17325914731E+03  0.00000000000E+00 0.  1.
      99926    2    1    2    0    0  0.35527136788E-14  0.00000000000E+00  0.12485467909E+03  0.47137297370E+03  0.45453689558E+03 0.  0.
      99925    2    3    3    0    0 -0.91596778496E+01  0.90276846117E+02  0.14789741738E+03  0.31512866331E+03  0.26305630524E+03 0.  0.
         25    1    3    3    0    0  0.91596778496E+01 -0.90276846117E+02 -0.23042738284E+02  0.15624431039E+03  0.12509000000E+03 0.  0.
         25    1    4    4    0    0 -0.33085286648E+02  0.19929379315E+02  0.51963054744E+02  0.14085270147E+03  0.12509000000E+03 0.  0.
         25    1    4    4    0    0  0.23925608798E+02  0.70347466802E+02  0.95934362632E+02  0.17427596184E+03  0.12509000000E+03 0.  0.
<mgrwt>
<rscale>  2 0.45453690E+03</rscale>
<asrwt>0</asrwt>
<pdfrwt beam="1">  1       21 0.43840269E-01 0.45453690E+03</pdfrwt>
<pdfrwt beam="2">  1       21 0.25479286E-01 0.45453690E+03</pdfrwt>
<totfact> 0.67581712E+04</totfact>
</mgrwt>
</event>
<event>
 7    0  0.4737014E-002  0.4555921E+03  0.7546771E-02  0.1026067E+00
         21   -1    0    0  502  501  0.00000000000E+00  0.00000000000E+00  0.20626635745E+03  0.20626635745E+03  0.00000000000E+00 0. -1.
         21   -1    0    0  501  502 -0.00000000000E+00 -0.00000000000E+00 -0.25157297232E+03  0.25157297232E+03  0.00000000000E+00 0. -1.
      99926    2    1    2    0    0  0.35527136788E-14  0.00000000000E+00 -0.45306614874E+02  0.45783932977E+03  0.45559210105E+03 0.  0.
      99925    2    3    3    0    0  0.17365931987E+02  0.11239042753E+03 -0.30389498075E+02  0.28812423832E+03  0.26298074325E+03 0.  0.
         25    1    4    4    0    0  0.33317433217E+02  0.28985373690E+02 -0.33804767225E+02  0.13689584958E+03  0.12509000000E+03 0.  0.
         25    1    3    3    0    0 -0.17365931987E+02 -0.11239042753E+03 -0.14917116799E+02  0.16971509146E+03  0.12509000000E+03 0.  0.
         25    1    4    4    0    0 -0.15951501230E+02  0.83405053841E+02  0.34152691501E+01  0.15122838874E+03  0.12509000000E+03 0.  0.
<mgrwt>
<rscale>  2 0.45559210E+03</rscale>
<asrwt>0</asrwt>
<pdfrwt beam="1">  1       21 0.30333288E-01 0.45559210E+03</pdfrwt>
<pdfrwt beam="2">  1       21 0.36996025E-01 0.45559210E+03</pdfrwt>
<totfact> 0.68016391E+04</totfact>
</mgrwt>
</event>
<event>
 7    0  0.4737014E-002  0.4496972E+03  0.7546771E-02  0.1027812E+00
         21   -1    0    0  502  501  0.00000000000E+00  0.00000000000E+00  0.63878878202E+03  0.63878878202E+03  0.00000000000E+00 0. -1.
         21   -1    0    0  501  502 -0.00000000000E+00 -0.00000000000E+00 -0.79144940814E+02  0.79144940814E+02  0.00000000000E+00 0. -1.
      99926    2    1    2    0    0  0.00000000000E+00  0.00000000000E+00  0.55964384121E+03  0.71793372284E+03  0.44969723302E+03 0.  0.
      99925    2    3    3    0    0 -0.10575956675E+03 -0.11624465111E+02  0.38515989506E+03  0.47832493812E+03  0.26291897519E+03 0.  0.
         25    1    4    4    0    0 -0.32056983491E+02  0.72354801871E+01  0.23722068933E+03  0.27018727933E+03  0.12509000000E+03 0.  0.
         25    1    3    3    0    0  0.10575956675E+03  0.11624465111E+02  0.17448394615E+03  0.23960878471E+03  0.12509000000E+03 0.  0.
         25    1    4    4    0    0 -0.73702583264E+02 -0.18859945298E+02  0.14793920573E+03  0.20813765880E+03  0.12509000000E+03 0.  0.
<mgrwt>
<rscale>  2 0.44969723E+03</rscale>
<asrwt>0</asrwt>
<pdfrwt beam="1">  1       21 0.93939524E-01 0.44969723E+03</pdfrwt>
<pdfrwt beam="2">  1       21 0.11638962E-01 0.44969723E+03</pdfrwt>
<totfact> 0.54164249E+04</totfact>
</mgrwt>
</event>
<event>
 7    0  0.4737014E-002  0.4538340E+03  0.7546771E-02  0.1026585E+00
         21   -1    0    0  502  501  0.00000000000E+00  0.00000000000E+00  0.23689060624E+03  0.23689060624E+03  0.00000000000E+00 0. -1.
         21   -1    0    0  501  502 -0.00000000000E+00 -0.00000000000E+00 -0.21736328029E+03  0.21736328029E+03  0.00000000000E+00 0. -1.
      99926    2    1    2    0    0 -0.14210854715E-13  0.22204460493E-14  0.19527325948E+02  0.45425388653E+03  0.45383397511E+03 0.  0.
      99925    2    3    3    0    0 -0.98553986699E+02  0.38719085654E+01  0.65535079890E+02  0.28844646362E+03  0.26301831820E+03 0.  0.
         25    1    4    4    0    0 -0.22511146606E+02 -0.18535667214E+02  0.52490191391E+01  0.12855109094E+03  0.12509000000E+03 0.  0.
         25    1    3    3    0    0  0.98553986699E+02 -0.38719085654E+01 -0.46007753942E+02  0.16580742291E+03  0.12509000000E+03 0.  0.
         25    1    4    4    0    0 -0.76042840093E+02  0.22407575779E+02  0.60286060750E+02  0.15989537267E+03  0.12509000000E+03 0.  0.
<mgrwt>
<rscale>  2 0.45383398E+03</rscale>
<asrwt>0</asrwt>
<pdfrwt beam="1">  1       21 0.34836854E-01 0.45383398E+03</pdfrwt>
<pdfrwt beam="2">  1       21 0.31965188E-01 0.45383398E+03</pdfrwt>
<totfact> 0.69242472E+04</totfact>
</mgrwt>
</event>
<event>
 7    0  0.4737014E-002  0.4538390E+03  0.7546771E-02  0.1026583E+00
         21   -1    0    0  502  501  0.00000000000E+00  0.00000000000E+00  0.26198787233E+03  0.26198787233E+03  0.00000000000E+00 0.  1.
         21   -1    0    0  501  502 -0.00000000000E+00 -0.00000000000E+00 -0.19654524482E+03  0.19654524482E+03  0.00000000000E+00 0.  1.
      99926    2    1    2    0    0  0.00000000000E+00  0.00000000000E+00  0.65442627512E+02  0.45853311715E+03  0.45383904859E+03 0.  0.
      99925    2    3    3    0    0  0.49848708744E+02  0.94302166675E+01  0.14227655153E+03  0.30321157089E+03  0.26290838111E+03 0.  0.
         25    1    4    4    0    0  0.22396766917E+02  0.10729247167E+02  0.25843387648E+02  0.13012348250E+03  0.12509000000E+03 0.  0.
         25    1    3    3    0    0 -0.49848708744E+02 -0.94302166675E+01 -0.76833924022E+02  0.15532154625E+03  0.12509000000E+03 0.  0.
         25    1    4    4    0    0  0.27451941827E+02 -0.12990304991E+01  0.11643316389E+03  0.17308808839E+03  0.12509000000E+03 0.  0.
<mgrwt>
<rscale>  2 0.45383905E+03</rscale>
<asrwt>0</asrwt>
<pdfrwt beam="1">  1       21 0.38527628E-01 0.45383905E+03</pdfrwt>
<pdfrwt beam="2">  1       21 0.28903713E-01 0.45383905E+03</pdfrwt>
<totfact> 0.68923514E+04</totfact>
</mgrwt>
</event>
<event>
 7    0  0.4737014E-002  0.4563284E+03  0.7546771E-02  0.1025851E+00
         21   -1    0    0  502  501  0.00000000000E+00  0.00000000000E+00  0.35098111111E+03  0.35098111111E+03  0.00000000000E+00 0.  1.
         21   -1    0    0  501  502 -0.00000000000E+00 -0.00000000000E+00 -0.14832396401E+03  0.14832396401E+03  0.00000000000E+00 0.  1.
      99926    2    1    2    0    0  0.17763568394E-14  0.00000000000E+00  0.20265714710E+03  0.49930507512E+03  0.45632843301E+03 0.  0.
      99925    2    3    3    0    0 -0.12010084206E+02 -0.10618515988E+03  0.17205189258E+03  0.33196195454E+03  0.26301588398E+03 0.  0.
         25    1    4    4    0    0 -0.32639835372E+02 -0.22905425918E+02  0.93170715418E+02  0.16099163861E+03  0.12509000000E+03 0.  0.
         25    1    4    4    0    0  0.20629751166E+02 -0.83279733957E+02  0.78881177163E+02  0.17097031594E+03  0.12509000000E+03 0.  0.
         25    1    3    3    0    0  0.12010084206E+02  0.10618515988E+03  0.30605254516E+02  0.16734312058E+03  0.12509000000E+03 0.  0.
<mgrwt>
<rscale>  2 0.45632843E+03</rscale>
<asrwt>0</asrwt>
<pdfrwt beam="1">  1       21 0.51614869E-01 0.45632843E+03</pdfrwt>
<pdfrwt beam="2">  1       21 0.21812348E-01 0.45632843E+03</pdfrwt>
<totfact> 0.64635211E+04</totfact>
</mgrwt>
</event>
<event>
 7    0  0.4737014E-002  0.4486365E+03  0.7546771E-02  0.1028129E+00
         21   -1    0    0  502  501  0.00000000000E+00  0.00000000000E+00  0.64330026140E+03  0.64330026140E+03  0.00000000000E+00 0.  1.
         21   -1    0    0  501  502 -0.00000000000E+00 -0.00000000000E+00 -0.78219588950E+02  0.78219588950E+02  0.00000000000E+00 0.  1.
      99926    2    1    2    0    0  0.00000000000E+00  0.00000000000E+00  0.56508067245E+03  0.72151985035E+03  0.44863652111E+03 0.  0.
      99925    2    3    3    0    0 -0.57832732312E+02  0.84887470768E+02  0.30943696012E+03  0.41894469708E+03  0.26308348353E+03 0.  0.
         25    1    4    4    0    0 -0.62929240647E+00  0.69708506961E+02  0.14123926007E+03  0.20113604510E+03  0.12509000000E+03 0.  0.
         25    1    3    3    0    0  0.57832732312E+02 -0.84887470768E+02  0.25564371234E+03  0.30257515327E+03  0.12509000000E+03 0.  0.
         25    1    4    4    0    0 -0.57203439905E+02  0.15178963807E+02  0.16819770004E+03  0.21780865198E+03  0.12509000000E+03 0.  0.
<mgrwt>
<rscale>  2 0.44863652E+03</rscale>
<asrwt>0</asrwt>
<pdfrwt beam="1">  1       21 0.94602977E-01 0.44863652E+03</pdfrwt>
<pdfrwt beam="2">  1       21 0.11502881E-01 0.44863652E+03</pdfrwt>
<totfact> 0.54423299E+04</totfact>
</mgrwt>
</event>
<event>
 7    0  0.4737014E-002  0.4560649E+03  0.7546771E-02  0.1025929E+00
         21   -1    0    0  502  501  0.00000000000E+00  0.00000000000E+00  0.10244355230E+03  0.10244355230E+03  0.00000000000E+00 0. -1.
         21   -1    0    0  501  502 -0.00000000000E+00 -0.00000000000E+00 -0.50758491882E+03  0.50758491882E+03  0.00000000000E+00 0. -1.
      99926    2    1    2    0    0  0.00000000000E+00  0.00000000000E+00 -0.40514136652E+03  0.61002847113E+03  0.45606491722E+03 0.  0.
      99925    2    3    3    0    0 -0.90137679753E+02  0.69772206195E+02 -0.24610905021E+03  0.37779637214E+03  0.26299709530E+03 0.  0.
         25    1    4    4    0    0 -0.55311847796E+02  0.69053749737E+02 -0.16258445851E+03  0.22340330147E+03  0.12509000000E+03 0.  0.
         25    1    3    3    0    0  0.90137679753E+02 -0.69772206195E+02 -0.15903231631E+03  0.23223209899E+03  0.12509000000E+03 0.  0.
         25    1    4    4    0    0 -0.34825831957E+02  0.71845645835E+00 -0.83524591703E+02  0.15439307067E+03  0.12509000000E+03 0.  0.
<mgrwt>
<rscale>  2 0.45606492E+03</rscale>
<asrwt>0</asrwt>
<pdfrwt beam="1">  1       21 0.15065228E-01 0.45606492E+03</pdfrwt>
<pdfrwt beam="2">  1       21 0.74644841E-01 0.45606492E+03</pdfrwt>
<totfact> 0.57579325E+04</totfact>
</mgrwt>
</event>
<event>
 7    0  0.4737014E-002  0.4670909E+03  0.7546771E-02  0.1022744E+00
         21   -1    0    0  502  501  0.00000000000E+00  0.00000000000E+00  0.48195458550E+03  0.48195458550E+03  0.00000000000E+00 0.  1.
         21   -1    0    0  501  502 -0.00000000000E+00 -0.00000000000E+00 -0.11317142394E+03  0.11317142394E+03  0.00000000000E+00 0.  1.
      99926    2    1    2    0    0  0.00000000000E+00  0.00000000000E+00  0.36878316155E+03  0.59512600944E+03  0.46709094068E+03 0.  0.
      99925    2    3    3    0    0 -0.98958517602E+02  0.71883728783E+02  0.25804462437E+03  0.38807386532E+03  0.26278173092E+03 0.  0.
         25    1    4    4    0    0 -0.92262287072E+02  0.37724386704E+02  0.14642451029E+03  0.21684811339E+03  0.12509000000E+03 0.  0.
         25    1    4    4    0    0 -0.66962305300E+01  0.34159342078E+02  0.11162011408E+03  0.17122575193E+03  0.12509000000E+03 0.  0.
         25    1    3    3    0    0  0.98958517602E+02 -0.71883728783E+02  0.11073853718E+03  0.20705214412E+03  0.12509000000E+03 0.  0.
<mgrwt>
<rscale>  2 0.46709094E+03</rscale>
<asrwt>0</asrwt>
<pdfrwt beam="1">  1       21 0.70875673E-01 0.46709094E+03</pdfrwt>
<pdfrwt beam="2">  1       21 0.16642857E-01 0.46709094E+03</pdfrwt>
<totfact> 0.53664700E+04</totfact>
</mgrwt>
</event>
<event>
 7    0  0.4737014E-002  0.4577450E+03  0.7546771E-02  0.1025437E+00
         21   -1    0    0  502  501  0.00000000000E+00  0.00000000000E+00  0.18378718455E+03  0.18378718455E+03  0.00000000000E+00 0. -1.
         21   -1    0    0  501  502 -0.00000000000E+00 -0.00000000000E+00 -0.28501776621E+03  0.28501776621E+03  0.00000000000E+00 0. -1.
      99926    2    1    2    0    0  0.00000000000E+00  0.88817841970E-15 -0.10123058166E+03  0.46880495076E+03  0.45774496304E+03 0.  0.
      99925    2    3    3    0    0 -0.98200874256E+02 -0.45581636210E+01 -0.12610195965E+03  0.30777612693E+03  0.26298336738E+03 0.  0.
         25    1    4    4    0    0 -0.18445972204E+02  0.16731190730E+02 -0.81688430593E+02  0.15146185799E+03  0.12509000000E+03 0.  0.
         25    1    4    4    0    0 -0.79754902052E+02 -0.21289354351E+02 -0.44413529053E+02  0.15631426894E+03  0.12509000000E+03 0.  0.
         25    1    3    3    0    0  0.98200874256E+02  0.45581636210E+01  0.24871377986E+02  0.16102882383E+03  0.12509000000E+03 0.  0.
<mgrwt>
<rscale>  2 0.45774496E+03</rscale>
<asrwt>0</asrwt>
<pdfrwt beam="1">  1       21 0.27027527E-01 0.45774496E+03</pdfrwt>
<pdfrwt beam="2">  1       21 0.41914377E-01 0.45774496E+03</pdfrwt>
<totfact> 0.66074643E+04</totfact>
</mgrwt>
</event>
<event>
 7    0  0.4737014E-002  0.4613612E+03  0.7546771E-02  0.1024387E+00
         21   -1    0    0  502  501  0.00000000000E+00  0.00000000000E+00  0.19089379123E+03  0.19089379123E+03  0.00000000000E+00 0.  1.
         21   -1    0    0  501  502 -0.00000000000E+00 -0.00000000000E+00 -0.27875989508E+03  0.27875989508E+03  0.00000000000E+00 0.  1.
      99926    2    1    2    0    0  0.14210854715E-13  0.00000000000E+00 -0.87866103849E+02  0.46965368631E+03  0.46136117398E+03 0.  0.
      99925    2    3    3    0    0 -0.93615273139E+02 -0.37102115651E+02  0.80417741329E+01  0.28260766120E+03  0.26393566202E+03 0.  0.
         25    1    3    3    0    0  0.93615273139E+02  0.37102115651E+02 -0.95907877982E+02  0.18704602511E+03  0.12509000000E+03 0.  0.
         25    1    4    4    0    0 -0.68278700440E+02 -0.53713758783E+02 -0.10081909730E+02  0.15263126095E+03  0.12509000000E+03 0.  0.
         25    1    4    4    0    0 -0.25336572699E+02  0.16611643132E+02  0.18123683862E+02  0.12997640024E+03  0.12509000000E+03 0.  0.
<mgrwt>
<rscale>  2 0.46136117E+03</rscale>
<asrwt>0</asrwt>
<pdfrwt beam="1">  1       21 0.28072617E-01 0.46136117E+03</pdfrwt>
<pdfrwt beam="2">  1       21 0.40994102E-01 0.46136117E+03</pdfrwt>
<totfact> 0.64159884E+04</totfact>
</mgrwt>
</event>
<event>
 7    0  0.4737014E-002  0.4534941E+03  0.7546771E-02  0.1026685E+00
         21   -1    0    0  502  501  0.00000000000E+00  0.00000000000E+00  0.11442522814E+04  0.11442522814E+04  0.00000000000E+00 0.  1.
         21   -1    0    0  501  502 -0.00000000000E+00 -0.00000000000E+00 -0.44932597937E+02  0.44932597937E+02  0.00000000000E+00 0.  1.
      99926    2    1    2    0    0 -0.14210854715E-13  0.00000000000E+00  0.10993196834E+04  0.11891848793E+04  0.45349411329E+03 0.  0.
      99925    2    3    3    0    0 -0.10226585600E+03 -0.38595543668E+02  0.75374324136E+03  0.80575495518E+03  0.26299097440E+03 0.  0.
         25    1    4    4    0    0 -0.87042073402E+02  0.16510057697E+01  0.41492128155E+03  0.44202514221E+03  0.12509000000E+03 0.  0.
         25    1    4    4    0    0 -0.15223782601E+02 -0.40246549438E+02  0.33882195981E+03  0.36372981298E+03  0.12509000000E+03 0.  0.
         25    1    3    3    0    0  0.10226585600E+03  0.38595543668E+02  0.34557644207E+03  0.38342992412E+03  0.12509000000E+03 0.  0.
<mgrwt>
<rscale>  2 0.45349411E+03</rscale>
<asrwt>0</asrwt>
<pdfrwt beam="1">  1       21 0.16827238E+00 0.45349411E+03</pdfrwt>
<pdfrwt beam="2">  1       21 0.66077357E-02 0.45349411E+03</pdfrwt>
<totfact> 0.32884728E+04</totfact>
</mgrwt>
</event>
<event>
 7    0  0.4737014E-002  0.4581621E+03  0.7546771E-02  0.1025316E+00
         21   -1    0    0  502  501  0.00000000000E+00  0.00000000000E+00  0.27445224833E+02  0.27445224833E+02  0.00000000000E+00 0.  1.
         21   -1    0    0  501  502 -0.00000000000E+00 -0.00000000000E+00 -0.19121040088E+04  0.19121040088E+04  0.00000000000E+00 0.  1.
      99926    2    1    2    0    0  0.00000000000E+00  0.00000000000E+00 -0.18846587840E+04  0.19395492337E+04  0.45816208672E+03 0.  0.
      99925    2    3    3    0    0  0.46614488954E+02 -0.24900338807E+02 -0.16200737161E+04  0.16421510096E+04  0.26311243814E+03 0.  0.
         25    1    4    4    0    0  0.24960878987E+02 -0.41459879363E+02 -0.65235885897E+03  0.66600417120E+03  0.12509000000E+03 0.  0.
         25    1    4    4    0    0  0.21653609966E+02  0.16559540556E+02 -0.96771485716E+03  0.97614683838E+03  0.12509000000E+03 0.  0.
         25    1    3    3    0    0 -0.46614488954E+02  0.24900338807E+02 -0.26458506788E+03  0.29739822410E+03  0.12509000000E+03 0.  0.
<mgrwt>
<rscale>  2 0.45816209E+03</rscale>
<asrwt>0</asrwt>
<pdfrwt beam="1">  1       21 0.40360636E-02 0.45816209E+03</pdfrwt>
<pdfrwt beam="2">  1       21 0.28119169E+00 0.45816209E+03</pdfrwt>
<totfact> 0.14366251E+04</totfact>
</mgrwt>
</event>
<event>
 7    0  0.4737014E-002  0.4592184E+03  0.7546771E-02  0.1025008E+00
         21   -1    0    0  502  501  0.00000000000E+00  0.00000000000E+00  0.17971746223E+03  0.17971746223E+03  0.00000000000E+00 0. -1.
         21   -1    0    0  501  502 -0.00000000000E+00 -0.00000000000E+00 -0.29335150931E+03  0.29335150931E+03  0.00000000000E+00 0. -1.
      99926    2    1    2    0    0  0.00000000000E+00  0.00000000000E+00 -0.11363404708E+03  0.47306897154E+03  0.45921841772E+03 0.  0.
      99925    2    3    3    0    0 -0.57292150272E+02 -0.74758835769E+02 -0.14291296612E+03  0.31377039273E+03  0.26297617660E+03 0.  0.
         25    1    3    3    0    0  0.57292150272E+02  0.74758835769E+02  0.29278919046E+02  0.15929857880E+03  0.12509000000E+03 0.  0.
         25    1    4    4    0    0 -0.82714806907E+01 -0.15388745379E+02 -0.33670691973E+02  0.13071516544E+03  0.12509000000E+03 0.  0.
         25    1    4    4    0    0 -0.49020669582E+02 -0.59370090389E+02 -0.10924227415E+03  0.18305522730E+03  0.12509000000E+03 0.  0.
<mgrwt>
<rscale>  2 0.45921842E+03</rscale>
<asrwt>0</asrwt>
<pdfrwt beam="1">  1       21 0.26429039E-01 0.45921842E+03</pdfrwt>
<pdfrwt beam="2">  1       21 0.43139927E-01 0.45921842E+03</pdfrwt>
<totfact> 0.65005378E+04</totfact>
</mgrwt>
</event>
<event>
 7    0  0.4737014E-002  0.4532920E+03  0.7546771E-02  0.1026745E+00
         21   -1    0    0  502  501  0.00000000000E+00  0.00000000000E+00  0.21076464245E+03  0.21076464245E+03  0.00000000000E+00 0. -1.
         21   -1    0    0  501  502 -0.00000000000E+00 -0.00000000000E+00 -0.24372400805E+03  0.24372400805E+03  0.00000000000E+00 0. -1.
      99926    2    1    2    0    0  0.14210854715E-13  0.00000000000E+00 -0.32959365598E+02  0.45448865051E+03  0.45329197396E+03 0.  0.
      99925    2    3    3    0    0  0.82005158846E+02  0.71554062954E+02 -0.45043036352E+02  0.28824078375E+03  0.26307611881E+03 0.  0.
         25    1    4    4    0    0  0.68232005515E+02  0.16553604799E+02  0.80702990148E+00  0.14344960023E+03  0.12509000000E+03 0.  0.
         25    1    4    4    0    0  0.13773153332E+02  0.55000458155E+02 -0.45850066254E+02  0.14479118352E+03  0.12509000000E+03 0.  0.
         25    1    3    3    0    0 -0.82005158846E+02 -0.71554062954E+02  0.12083670754E+02  0.16624786676E+03  0.12509000000E+03 0.  0.
<mgrwt>
<rscale>  2 0.45329197E+03</rscale>
<asrwt>0</asrwt>
<pdfrwt beam="1">  1       21 0.30994801E-01 0.45329197E+03</pdfrwt>
<pdfrwt beam="2">  1       21 0.35841766E-01 0.45329197E+03</pdfrwt>
<totfact> 0.69525979E+04</totfact>
</mgrwt>
</event>
<event>
 7    0  0.4737014E-002  0.4575720E+03  0.7546771E-02  0.1025488E+00
         21   -1    0    0  502  501  0.00000000000E+00  0.00000000000E+00  0.73360047643E+02  0.73360047643E+02  0.00000000000E+00 0. -1.
         21   -1    0    0  501  502 -0.00000000000E+00 -0.00000000000E+00 -0.71350860418E+03  0.71350860418E+03  0.00000000000E+00 0. -1.
      99926    2    1    2    0    0 -0.35527136788E-14  0.00000000000E+00 -0.64014855654E+03  0.78686865183E+03  0.45757196241E+03 0.  0.
      99925    2    3    3    0    0  0.16573803198E+02  0.77848651508E+02 -0.25797854699E+03  0.37694606427E+03  0.26305950118E+03 0.  0.
         25    1    4    4    0    0  0.34878097062E+02  0.65727373414E+02 -0.16183250719E+03  0.21765531869E+03  0.12509000000E+03 0.  0.
         25    1    3    3    0    0 -0.16573803198E+02 -0.77848651508E+02 -0.38217000955E+03  0.40992258756E+03  0.12509000000E+03 0.  0.
         25    1    4    4    0    0 -0.18304293864E+02  0.12121278094E+02 -0.96146039801E+02  0.15929074558E+03  0.12509000000E+03 0.  0.
<mgrwt>
<rscale>  2 0.45757196E+03</rscale>
<asrwt>0</asrwt>
<pdfrwt beam="1">  1       21 0.10788242E-01 0.45757196E+03</pdfrwt>
<pdfrwt beam="2">  1       21 0.10492774E+00 0.45757196E+03</pdfrwt>
<totfact> 0.47441596E+04</totfact>
</mgrwt>
</event>
<event>
 6    0  0.4737014E-002  0.4297632E+03  0.7546771E-02  0.1033935E+00
         21   -1    0    0  502  501  0.00000000000E+00  0.00000000000E+00  0.16812599688E+04  0.16812599688E+04  0.00000000000E+00 0. -1.
         21   -1    0    0  501  502 -0.00000000000E+00 -0.00000000000E+00 -0.27463984393E+02  0.27463984393E+02  0.00000000000E+00 0. -1.
      99926    2    1    2    0    0 -0.71054273576E-14  0.00000000000E+00  0.16537959844E+04  0.17087239532E+04  0.42976317917E+03 0.  0.
         25    1    3    3    0    0  0.83365273540E+02  0.14483451424E+02  0.70125238519E+03  0.71732973941E+03  0.12509000000E+03 0.  0.
         25    1    3    3    0    0 -0.37630873828E+02  0.89585281305E-01  0.60448315336E+03  0.61843631967E+03  0.12509000000E+03 0.  0.
         25    1    3    3    0    0 -0.45734399712E+02 -0.14573036706E+02  0.34806044586E+03  0.37295789412E+03  0.12509000000E+03 0.  0.
<mgrwt>
<rscale>  2 0.42976318E+03</rscale>
<asrwt>0</asrwt>
<pdfrwt beam="1">  1       21 0.24724404E+00 0.42976318E+03</pdfrwt>
<pdfrwt beam="2">  1       21 0.40388224E-02 0.42976318E+03</pdfrwt>
<totfact> 0.23327059E+04</totfact>
</mgrwt>
</event>
<event>
 7    0  0.4737014E-002  0.4591082E+03  0.7546771E-02  0.1025040E+00
         21   -1    0    0  502  501  0.00000000000E+00  0.00000000000E+00  0.97893158788E+03  0.97893158788E+03  0.00000000000E+00 0.  1.
         21   -1    0    0  501  502 -0.00000000000E+00 -0.00000000000E+00 -0.53829178475E+02  0.53829178475E+02  0.00000000000E+00 0.  1.
      99926    2    1    2    0    0 -0.14210854715E-13  0.00000000000E+00  0.92510240940E+03  0.10327607664E+04  0.45910819273E+03 0.  0.
      99925    2    3    3    0    0 -0.94583395822E+02 -0.33093741697E+02  0.44733201326E+03  0.52882299834E+03  0.26364107984E+03 0.  0.
         25    1    3    3    0    0  0.94583395822E+02  0.33093741697E+02  0.47777039614E+03  0.50393776802E+03  0.12509000000E+03 0.  0.
         25    1    4    4    0    0 -0.77397783535E+02  0.10360158665E+02  0.21194394269E+03  0.25819661642E+03  0.12509000000E+03 0.  0.
         25    1    4    4    0    0 -0.17185612287E+02 -0.43453900362E+02  0.23538807057E+03  0.27062638192E+03  0.12509000000E+03 0.  0.
<mgrwt>
<rscale>  2 0.45910819E+03</rscale>
<asrwt>0</asrwt>
<pdfrwt beam="1">  1       21 0.14396052E+00 0.45910819E+03</pdfrwt>
<pdfrwt beam="2">  1       21 0.79160563E-02 0.45910819E+03</pdfrwt>
<totfact> 0.36724366E+04</totfact>
</mgrwt>
</event>
<event>
 7    0  0.4737014E-002  0.4640697E+03  0.7546771E-02  0.1023607E+00
         21   -1    0    0  502  501  0.00000000000E+00  0.00000000000E+00  0.19732124221E+03  0.19732124221E+03  0.00000000000E+00 0.  1.
         21   -1    0    0  501  502 -0.00000000000E+00 -0.00000000000E+00 -0.27285543936E+03  0.27285543936E+03  0.00000000000E+00 0.  1.
      99926    2    1    2    0    0  0.35527136788E-14  0.00000000000E+00 -0.75534197145E+02  0.47017668157E+03  0.46406971131E+03 0.  0.
      99925    2    3    3    0    0 -0.11218045094E+02 -0.11668746436E+03 -0.79515422685E+02  0.29869733258E+03  0.26297449528E+03 0.  0.
         25    1    4    4    0    0 -0.44118559773E+02 -0.49920443864E+02 -0.29326661054E+02  0.14472753429E+03  0.12509000000E+03 0.  0.
         25    1    3    3    0    0  0.11218045094E+02  0.11668746436E+03  0.39812255396E+01  0.17147934899E+03  0.12509000000E+03 0.  0.
         25    1    4    4    0    0  0.32900514679E+02 -0.66767020494E+02 -0.50188761630E+02  0.15396979829E+03  0.12509000000E+03 0.  0.
<mgrwt>
<rscale>  2 0.46406971E+03</rscale>
<asrwt>0</asrwt>
<pdfrwt beam="1">  1       21 0.29017830E-01 0.46406971E+03</pdfrwt>
<pdfrwt beam="2">  1       21 0.40125800E-01 0.46406971E+03</pdfrwt>
<totfact> 0.62777813E+04</totfact>
</mgrwt>
</event>
<event>
 7    0  0.4737014E-002  0.4321227E+03  0.7546771E-02  0.1033192E+00
         21   -1    0    0  502  501  0.00000000000E+00  0.00000000000E+00  0.87934418374E+02  0.87934418374E+02  0.00000000000E+00 0. -1.
         21   -1    0    0  501  502 -0.00000000000E+00 -0.00000000000E+00 -0.53087869529E+03  0.53087869529E+03  0.00000000000E+00 0. -1.
      99926    2    1    2    0    0  0.14210854715E-13 -0.35527136788E-14 -0.44294427692E+03  0.61881311366E+03  0.43212271080E+03 0.  0.
      99925    2    3    3    0    0  0.82991520774E+02 -0.13582598890E+02 -0.33105826438E+03  0.43109506069E+03  0.26300436768E+03 0.  0.
         25    1    3    3    0    0 -0.82991520774E+02  0.13582598890E+02 -0.11188601253E+03  0.18771805298E+03  0.12509000000E+03 0.  0.
         25    1    4    4    0    0  0.57858418311E+02  0.17017952819E+02 -0.21485767772E+03  0.25582911692E+03  0.12509000000E+03 0.  0.
         25    1    4    4    0    0  0.25133102463E+02 -0.30600551710E+02 -0.11620058666E+03  0.17526594377E+03  0.12509000000E+03 0.  0.
<mgrwt>
<rscale>  2 0.43212271E+03</rscale>
<asrwt>0</asrwt>
<pdfrwt beam="1">  1       21 0.12931532E-01 0.43212271E+03</pdfrwt>
<pdfrwt beam="2">  1       21 0.78070395E-01 0.43212271E+03</pdfrwt>
<totfact> 0.69215482E+04</totfact>
</mgrwt>
</event>
<event>
 7    0  0.4737014E-002  0.4553943E+03  0.7546771E-02  0.1026126E+00
         21   -1    0    0  502  501  0.00000000000E+00  0.00000000000E+00  0.85817928493E+02  0.85817928493E+02  0.00000000000E+00 0. -1.
         21   -1    0    0  501  502 -0.00000000000E+00 -0.00000000000E+00 -0.60413945302E+03  0.60413945302E+03  0.00000000000E+00 0. -1.
      99926    2    1    2    0    0  0.00000000000E+00  0.00000000000E+00 -0.51832152452E+03  0.68995738151E+03  0.45539431871E+03 0.  0.
      99925    2    3    3    0    0 -0.37204482414E+02  0.97010081664E+02 -0.25653803616E+03  0.38178010730E+03  0.26296227273E+03 0.  0.
         25    1    3    3    0    0  0.37204482414E+02 -0.97010081664E+02 -0.26178348837E+03  0.30817727421E+03  0.12509000000E+03 0.  0.
         25    1    4    4    0    0 -0.31337705039E+02  0.74193805211E+02 -0.17891327954E+03  0.23268915356E+03  0.12509000000E+03 0.  0.
         25    1    4    4    0    0 -0.58667773743E+01  0.22816276453E+02 -0.77624756617E+02  0.14909095374E+03  0.12509000000E+03 0.  0.
<mgrwt>
<rscale>  2 0.45539432E+03</rscale>
<asrwt>0</asrwt>
<pdfrwt beam="1">  1       21 0.12620284E-01 0.45539432E+03</pdfrwt>
<pdfrwt beam="2">  1       21 0.88844035E-01 0.45539432E+03</pdfrwt>
<totfact> 0.53286114E+04</totfact>
</mgrwt>
</event>
<event>
 7    0  0.4737014E-002  0.4977383E+03  0.7546771E-02  0.1014371E+00
         21   -1    0    0  502  501  0.00000000000E+00  0.00000000000E+00  0.18090226664E+03  0.18090226664E+03  0.00000000000E+00 0.  1.
         21   -1    0    0  501  502 -0.00000000000E+00 -0.00000000000E+00 -0.34237183919E+03  0.34237183919E+03  0.00000000000E+00 0.  1.
      99926    2    1    2    0    0  0.00000000000E+00  0.00000000000E+00 -0.16146957255E+03  0.52327410583E+03  0.49773825147E+03 0.  0.
      99925    2    3    3    0    0  0.13976349785E+03  0.38535542062E+02 -0.13766677911E+03  0.33031580876E+03  0.26294023677E+03 0.  0.
         25    1    4    4    0    0  0.34274829466E+02 -0.85680283780E+01 -0.59913562767E+02  0.14312693020E+03  0.12509000000E+03 0.  0.
         25    1    4    4    0    0  0.10548866838E+03  0.47103570440E+02 -0.77753216338E+02  0.18718887856E+03  0.12509000000E+03 0.  0.
         25    1    3    3    0    0 -0.13976349785E+03 -0.38535542062E+02 -0.23802793441E+02  0.19295829707E+03  0.12509000000E+03 0.  0.
<mgrwt>
<rscale>  2 0.49773825E+03</rscale>
<asrwt>0</asrwt>
<pdfrwt beam="1">  1       21 0.26603275E-01 0.49773825E+03</pdfrwt>
<pdfrwt beam="2">  1       21 0.50348800E-01 0.49773825E+03</pdfrwt>
<totfact> 0.45974983E+04</totfact>
</mgrwt>
</event>
<event>
 7    0  0.4737014E-002  0.4545125E+03  0.7546771E-02  0.1026385E+00
         21   -1    0    0  502  501  0.00000000000E+00  0.00000000000E+00  0.17225924555E+02  0.17225924555E+02  0.00000000000E+00 0. -1.
         21   -1    0    0  501  502 -0.00000000000E+00 -0.00000000000E+00 -0.29981201756E+04  0.29981201756E+04  0.00000000000E+00 0. -1.
      99926    2    1    2    0    0 -0.14210854715E-13  0.00000000000E+00 -0.29808942510E+04  0.30153461001E+04  0.45451245066E+03 0.  0.
      99925    2    3    3    0    0  0.85148430686E+02  0.21434103094E+02 -0.14092439548E+04  0.14362825049E+04  0.26311448794E+03 0.  0.
         25    1    4    4    0    0  0.89644795584E+01  0.95608168042E+01 -0.78245338536E+03  0.79249768421E+03  0.12509000000E+03 0.  0.
         25    1    4    4    0    0  0.76183951127E+02  0.11873286290E+02 -0.62679056947E+03  0.64378482074E+03  0.12509000000E+03 0.  0.
         25    1    3    3    0    0 -0.85148430686E+02 -0.21434103094E+02 -0.15716502962E+04  0.15790635952E+04  0.12509000000E+03 0.  0.
<mgrwt>
<rscale>  2 0.45451245E+03</rscale>
<asrwt>0</asrwt>
<pdfrwt beam="1">  1       21 0.25332213E-02 0.45451245E+03</pdfrwt>
<pdfrwt beam="2">  1       21 0.44090053E+00 0.45451245E+03</pdfrwt>
<totfact> 0.31748255E+03</totfact>
</mgrwt>
</event>
<event>
 7    0  0.4737014E-002  0.4525917E+03  0.7546771E-02  0.1026952E+00
         21   -1    0    0  502  501  0.00000000000E+00  0.00000000000E+00  0.25370118369E+03  0.25370118369E+03  0.00000000000E+00 0.  1.
         21   -1    0    0  501  502 -0.00000000000E+00 -0.00000000000E+00 -0.20185085918E+03  0.20185085918E+03  0.00000000000E+00 0.  1.
      99926    2    1    2    0    0  0.00000000000E+00  0.00000000000E+00  0.51850324508E+02  0.45555204287E+03  0.45259165658E+03 0.  0.
      99925    2    3    3    0    0  0.11002829971E+03  0.71153744968E+01  0.21273071713E+02  0.28602525507E+03  0.26306092007E+03 0.  0.
         25    1    3    3    0    0 -0.11002829971E+03 -0.71153744968E+01  0.30577252794E+02  0.16952678779E+03  0.12509000000E+03 0.  0.
         25    1    4    4    0    0  0.12892557011E+02 -0.85705709491E+01  0.11724376407E+02  0.12658847426E+03  0.12509000000E+03 0.  0.
         25    1    4    4    0    0  0.97135742701E+02  0.15685945446E+02  0.95486953062E+01  0.15943678081E+03  0.12509000000E+03 0.  0.
<mgrwt>
<rscale>  2 0.45259166E+03</rscale>
<asrwt>0</asrwt>
<pdfrwt beam="1">  1       21 0.37308998E-01 0.45259166E+03</pdfrwt>
<pdfrwt beam="2">  1       21 0.29683950E-01 0.45259166E+03</pdfrwt>
<totfact> 0.69837589E+04</totfact>
</mgrwt>
</event>
<event>
 7    0  0.4737014E-002  0.4642512E+03  0.7546771E-02  0.1023555E+00
         21   -1    0    0  502  501  0.00000000000E+00  0.00000000000E+00  0.21514966661E+03  0.21514966661E+03  0.00000000000E+00 0. -1.
         21   -1    0    0  501  502 -0.00000000000E+00 -0.00000000000E+00 -0.25044101383E+03  0.25044101383E+03  0.00000000000E+00 0. -1.
      99926    2    1    2    0    0  0.00000000000E+00  0.00000000000E+00 -0.35291347217E+02  0.46559068044E+03  0.46425122781E+03 0.  0.
      99925    2    3    3    0    0  0.10000109936E+03  0.43274726618E+02 -0.76412150592E+02  0.29467739714E+03  0.26291258964E+03 0.  0.
         25    1    4    4    0    0  0.36727395806E+02  0.25963776624E+02 -0.76617803067E+02  0.15343016374E+03  0.12509000000E+03 0.  0.
         25    1    4    4    0    0  0.63273703550E+02  0.17310949993E+02  0.20565247545E+00  0.14124723340E+03  0.12509000000E+03 0.  0.
         25    1    3    3    0    0 -0.10000109936E+03 -0.43274726618E+02  0.41120803375E+02  0.17091328329E+03  0.12509000000E+03 0.  0.
<mgrwt>
<rscale>  2 0.46425123E+03</rscale>
<asrwt>0</asrwt>
<pdfrwt beam="1">  1       21 0.31639657E-01 0.46425123E+03</pdfrwt>
<pdfrwt beam="2">  1       21 0.36829561E-01 0.46425123E+03</pdfrwt>
<totfact> 0.62996831E+04</totfact>
</mgrwt>
</event>
<event>
 7    0  0.4737014E-002  0.4662427E+03  0.7546771E-02  0.1022986E+00
         21   -1    0    0  502  501  0.00000000000E+00  0.00000000000E+00  0.12524878346E+03  0.12524878346E+03  0.00000000000E+00 0.  1.
         21   -1    0    0  501  502 -0.00000000000E+00 -0.00000000000E+00 -0.43390084896E+03  0.43390084896E+03  0.00000000000E+00 0.  1.
      99926    2    1    2    0    0  0.71054273576E-14  0.88817841970E-15 -0.30865206550E+03  0.55914963241E+03  0.46624265559E+03 0.  0.
      99925    2    3    3    0    0 -0.61243878912E+02  0.36368205775E+01 -0.32055672552E+03  0.41931663131E+03  0.26325991691E+03 0.  0.
         25    1    4    4    0    0 -0.30140496770E+02 -0.18251013193E+02 -0.10441602428E+03  0.16670861781E+03  0.12509000000E+03 0.  0.
         25    1    3    3    0    0  0.61243878912E+02 -0.36368205775E+01  0.11904660020E+02  0.13983300111E+03  0.12509000000E+03 0.  0.
         25    1    4    4    0    0 -0.31103382142E+02  0.21887833770E+02 -0.21614070124E+03  0.25260801349E+03  0.12509000000E+03 0.  0.
<mgrwt>
<rscale>  2 0.46624266E+03</rscale>
<asrwt>0</asrwt>
<pdfrwt beam="1">  1       21 0.18418938E-01 0.46624266E+03</pdfrwt>
<pdfrwt beam="2">  1       21 0.63808949E-01 0.46624266E+03</pdfrwt>
<totfact> 0.56107153E+04</totfact>
</mgrwt>
</event>
<event>
 7    0  0.4737014E-002  0.4450470E+03  0.7546771E-02  0.1029209E+00
         21   -1    0    0  502  501  0.00000000000E+00  0.00000000000E+00  0.36241998355E+03  0.36241998355E+03  0.00000000000E+00 0. -1.
         21   -1    0    0  501  502 -0.00000000000E+00 -0.00000000000E+00 -0.13662799305E+03  0.13662799305E+03  0.00000000000E+00 0. -1.
      99926    2    1    2    0    0  0.00000000000E+00 -0.71054273576E-14  0.22579199050E+03  0.49904797661E+03  0.44504703120E+03 0.  0.
      99925    2    3    3    0    0 -0.31471580458E+02 -0.42703361228E+02  0.24308190700E+03  0.36207905039E+03  0.26305586438E+03 0.  0.
         25    1    4    4    0    0 -0.46285715410E+02  0.92682391828E+00  0.10145045317E+03  0.16757961989E+03  0.12509000000E+03 0.  0.
         25    1    3    3    0    0  0.31471580458E+02  0.42703361228E+02 -0.17289916499E+02  0.13696892622E+03  0.12509000000E+03 0.  0.
         25    1    4    4    0    0  0.14814134952E+02 -0.43630185146E+02  0.14163145384E+03  0.19449943050E+03  0.12509000000E+03 0.  0.
<mgrwt>
<rscale>  2 0.44504703E+03</rscale>
<asrwt>0</asrwt>
<pdfrwt beam="1">  1       21 0.53297056E-01 0.44504703E+03</pdfrwt>
<pdfrwt beam="2">  1       21 0.20092352E-01 0.44504703E+03</pdfrwt>
<totfact> 0.70764925E+04</totfact>
</mgrwt>
</event>
<event>
 7    0  0.4737014E-002  0.4454546E+03  0.7546771E-02  0.1029086E+00
         21   -1    0    0  502  501  0.00000000000E+00  0.00000000000E+00  0.55451770213E+02  0.55451770213E+02  0.00000000000E+00 0. -1.
         21   -1    0    0  501  502 -0.00000000000E+00 -0.00000000000E+00 -0.89460536375E+03  0.89460536375E+03  0.00000000000E+00 0. -1.
      99926    2    1    2    0    0 -0.35527136788E-14  0.00000000000E+00 -0.83915359354E+03  0.95005713397E+03  0.44545460403E+03 0.  0.
      99925    2    3    3    0    0 -0.30159062486E+02 -0.92122038290E+02 -0.61281146612E+03  0.67387910129E+03  0.26301922203E+03 0.  0.
         25    1    3    3    0    0  0.30159062486E+02  0.92122038290E+02 -0.22634212742E+03  0.27617803268E+03  0.12509000000E+03 0.  0.
         25    1    4    4    0    0  0.14527830336E+02 -0.44226411947E+02 -0.23091139045E+03  0.26671072665E+03  0.12509000000E+03 0.  0.
         25    1    4    4    0    0 -0.44686892822E+02 -0.47895626343E+02 -0.38190007567E+03  0.40716837464E+03  0.12509000000E+03 0.  0.
<mgrwt>
<rscale>  2 0.44545460E+03</rscale>
<asrwt>0</asrwt>
<pdfrwt beam="1">  1       21 0.81546727E-02 0.44545460E+03</pdfrwt>
<pdfrwt beam="2">  1       21 0.13155960E+00 0.44545460E+03</pdfrwt>
<totfact> 0.44358058E+04</totfact>
</mgrwt>
</event>
<event>
 7    0  0.4737014E-002  0.4523206E+03  0.7546771E-02  0.1027032E+00
         21   -1    0    0  502  501  0.00000000000E+00  0.00000000000E+00  0.16242594346E+03  0.16242594346E+03  0.00000000000E+00 0.  1.
         21   -1    0    0  501  502 -0.00000000000E+00 -0.00000000000E+00 -0.31490333252E+03  0.31490333252E+03  0.00000000000E+00 0.  1.
      99926    2    1    2    0    0 -0.35527136788E-14 -0.35527136788E-14 -0.15247738906E+03  0.47732927598E+03  0.45232055395E+03 0.  0.
      99925    2    3    3    0    0  0.30413680506E+02 -0.23233189594E+02  0.13237906375E+02  0.26620409912E+03  0.26310569580E+03 0.  0.
         25    1    4    4    0    0 -0.22147005041E+02 -0.26641780776E+02 -0.34414886313E+00  0.12979946400E+03  0.12509000000E+03 0.  0.
         25    1    4    4    0    0  0.52560685547E+02  0.34085911821E+01  0.13582055238E+02  0.13640463512E+03  0.12509000000E+03 0.  0.
         25    1    3    3    0    0 -0.30413680506E+02  0.23233189594E+02 -0.16571529544E+03  0.21112517686E+03  0.12509000000E+03 0.  0.
<mgrwt>
<rscale>  2 0.45232055E+03</rscale>
<asrwt>0</asrwt>
<pdfrwt beam="1">  1       21 0.23886168E-01 0.45232055E+03</pdfrwt>
<pdfrwt beam="2">  1       21 0.46309314E-01 0.45232055E+03</pdfrwt>
<totfact> 0.68336829E+04</totfact>
</mgrwt>
</event>
<event>
 7    0  0.4737014E-002  0.4554389E+03  0.7546771E-02  0.1026112E+00
         21   -1    0    0  502  501  0.00000000000E+00  0.00000000000E+00  0.63866468278E+03  0.63866468278E+03  0.00000000000E+00 0.  1.
         21   -1    0    0  501  502 -0.00000000000E+00 -0.00000000000E+00 -0.81194623646E+02  0.81194623646E+02  0.00000000000E+00 0.  1.
      99926    2    1    2    0    0  0.88817841970E-15  0.00000000000E+00  0.55747005913E+03  0.71985930642E+03  0.45543885892E+03 0.  0.
      99925    2    3    3    0    0 -0.25122211309E+01 -0.11221732285E+03  0.32236489052E+03  0.43085932854E+03  0.26290986964E+03 0.  0.
         25    1    4    4    0    0  0.15964849017E+02 -0.92651438589E+02  0.15574495670E+03  0.22077854315E+03  0.12509000000E+03 0.  0.
         25    1    4    4    0    0 -0.18477070148E+02 -0.19565884265E+02  0.16661993381E+03  0.21008078540E+03  0.12509000000E+03 0.  0.
         25    1    3    3    0    0  0.25122211309E+01  0.11221732285E+03  0.23510516862E+03  0.28899997788E+03  0.12509000000E+03 0.  0.
<mgrwt>
<rscale>  2 0.45543886E+03</rscale>
<asrwt>0</asrwt>
<pdfrwt beam="1">  1       21 0.93921274E-01 0.45543886E+03</pdfrwt>
<pdfrwt beam="2">  1       21 0.11940386E-01 0.45543886E+03</pdfrwt>
<totfact> 0.51659441E+04</totfact>
</mgrwt>
</event>
<event>
 7    0  0.4737014E-002  0.4558214E+03  0.7546771E-02  0.1026000E+00
         21   -1    0    0  502  501  0.00000000000E+00  0.00000000000E+00  0.11843512574E+03  0.11843512574E+03  0.00000000000E+00 0.  1.
         21   -1    0    0  501  502 -0.00000000000E+00 -0.00000000000E+00 -0.43858016475E+03  0.43858016475E+03  0.00000000000E+00 0.  1.
      99926    2    1    2    0    0  0.00000000000E+00  0.35527136788E-14 -0.32014503901E+03  0.55701529049E+03  0.45582144293E+03 0.  0.
      99925    2    3    3    0    0  0.49652395391E+02 -0.30626937200E+02 -0.32088252646E+03  0.41898840312E+03  0.26302531533E+03 0.  0.
         25    1    3    3    0    0 -0.49652395391E+02  0.30626937200E+02  0.73748745364E+00  0.13802688737E+03  0.12509000000E+03 0.  0.
         25    1    4    4    0    0  0.57818548842E+02  0.72538691288E+01 -0.17693660612E+03  0.22438733007E+03  0.12509000000E+03 0.  0.
         25    1    4    4    0    0 -0.81661534506E+01 -0.37880806328E+02 -0.14394592034E+03  0.19460107305E+03  0.12509000000E+03 0.  0.
<mgrwt>
<rscale>  2 0.45582144E+03</rscale>
<asrwt>0</asrwt>
<pdfrwt beam="1">  1       21 0.17416931E-01 0.45582144E+03</pdfrwt>
<pdfrwt beam="2">  1       21 0.64497082E-01 0.45582144E+03</pdfrwt>
<totfact> 0.61007905E+04</totfact>
</mgrwt>
</event>
<event>
 7    0  0.4737014E-002  0.4569087E+03  0.7546771E-02  0.1025682E+00
         21   -1    0    0  502  501  0.00000000000E+00  0.00000000000E+00  0.21015970881E+04  0.21015970881E+04  0.00000000000E+00 0. -1.
         21   -1    0    0  501  502 -0.00000000000E+00 -0.00000000000E+00 -0.24834154869E+02  0.24834154869E+02  0.00000000000E+00 0. -1.
      99926    2    1    2    0    0  0.00000000000E+00  0.00000000000E+00  0.20767629332E+04  0.21264312429E+04  0.45690868916E+03 0.  0.
      99925    2    3    3    0    0  0.84917300790E+02 -0.70267693405E+02  0.11540809712E+04  0.11888076469E+04  0.26308218598E+03 0.  0.
         25    1    4    4    0    0  0.52112979393E+02 -0.60989739554E+02  0.48401779328E+03  0.50631634703E+03  0.12509000000E+03 0.  0.
         25    1    3    3    0    0 -0.84917300790E+02  0.70267693405E+02  0.92268196202E+03  0.93762359604E+03  0.12509000000E+03 0.  0.
         25    1    4    4    0    0  0.32804321398E+02 -0.92779538508E+01  0.67006317790E+03  0.68249129987E+03  0.12509000000E+03 0.  0.
<mgrwt>
<rscale>  2 0.45690869E+03</rscale>
<asrwt>0</asrwt>
<pdfrwt beam="1">  1       21 0.30905827E+00 0.45690869E+03</pdfrwt>
<pdfrwt beam="2">  1       21 0.36520830E-02 0.45690869E+03</pdfrwt>
<totfact> 0.11580705E+04</totfact>
</mgrwt>
</event>
<event>
 7    0  0.4737014E-002  0.4217319E+03  0.7546771E-02  0.1036504E+00
         21   -1    0    0  502  501  0.00000000000E+00  0.00000000000E+00  0.75485000222E+02  0.75485000222E+02  0.00000000000E+00 0. -1.
         21   -1    0    0  501  502 -0.00000000000E+00 -0.00000000000E+00 -0.58905007590E+03  0.58905007590E+03  0.00000000000E+00 0. -1.
      99926    2    1    2    0    0  0.71054273576E-14  0.00000000000E+00 -0.51356507568E+03  0.66453507612E+03  0.42173188217E+03 0.  0.
      99925    2    3    3    0    0 -0.46838131682E+02 -0.49147766443E+02 -0.39472955493E+03  0.47912012900E+03  0.26293604346E+03 0.  0.
         25    1    3    3    0    0  0.46838131682E+02  0.49147766443E+02 -0.11883552074E+03  0.18541494712E+03  0.12509000000E+03 0.  0.
         25    1    4    4    0    0 -0.62958942507E+02 -0.20665426820E+02 -0.18905154782E+03  0.23617553671E+03  0.12509000000E+03 0.  0.
         25    1    4    4    0    0  0.16120810825E+02 -0.28482339624E+02 -0.20567800711E+03  0.24294459229E+03  0.12509000000E+03 0.  0.
<mgrwt>
<rscale>  2 0.42173188E+03</rscale>
<asrwt>0</asrwt>
<pdfrwt beam="1">  1       21 0.11100735E-01 0.42173188E+03</pdfrwt>
<pdfrwt beam="2">  1       21 0.86625012E-01 0.42173188E+03</pdfrwt>
<totfact> 0.71955478E+04</totfact>
</mgrwt>
</event>
<event>
 6    0  0.4737014E-002  0.4578299E+03  0.7546771E-02  0.1025412E+00
         21   -1    0    0  502  501  0.00000000000E+00  0.00000000000E+00  0.26527623088E+03  0.26527623088E+03  0.00000000000E+00 0.  1.
         21   -1    0    0  501  502 -0.00000000000E+00 -0.00000000000E+00 -0.19753766092E+03  0.19753766092E+03  0.00000000000E+00 0.  1.
      99926    2    1    2    0    0  0.17763568394E-14  0.00000000000E+00  0.67738569966E+02  0.46281389180E+03  0.45782986423E+03 0.  0.
         25    1    3    3    0    0 -0.10146693435E+02  0.54324671846E+02 -0.37108437611E+02  0.14169922230E+03  0.12509000000E+03 0.  0.
         25    1    3    3    0    0  0.80433319837E+02  0.23204875127E+01  0.60852819650E+02  0.16070307204E+03  0.12509000000E+03 0.  0.
         25    1    3    3    0    0 -0.70286626402E+02 -0.56645159358E+02  0.43994187928E+02  0.16041159746E+03  0.12509000000E+03 0.  0.
<mgrwt>
<rscale>  2 0.45782986E+03</rscale>
<asrwt>0</asrwt>
<pdfrwt beam="1">  1       21 0.39011210E-01 0.45782986E+03</pdfrwt>
<pdfrwt beam="2">  1       21 0.29049656E-01 0.45782986E+03</pdfrwt>
<totfact> 0.66463379E+04</totfact>
</mgrwt>
</event>
<event>
 7    0  0.4737014E-002  0.4634851E+03  0.7546771E-02  0.1023775E+00
         21   -1    0    0  502  501  0.00000000000E+00  0.00000000000E+00  0.11224246082E+04  0.11224246082E+04  0.00000000000E+00 0.  1.
         21   -1    0    0  501  502 -0.00000000000E+00 -0.00000000000E+00 -0.47846967762E+02  0.47846967762E+02  0.00000000000E+00 0.  1.
      99926    2    1    2    0    0  0.00000000000E+00  0.17763568394E-14  0.10745776405E+04  0.11702715760E+04  0.46348511970E+03 0.  0.
      99925    2    3    3    0    0  0.11285176751E+03 -0.66837761165E+01  0.56174268716E+03  0.63043142213E+03  0.26288540684E+03 0.  0.
         25    1    4    4    0    0  0.63843509560E+02  0.32064132047E+02  0.24524536315E+03  0.28442380091E+03  0.12509000000E+03 0.  0.
         25    1    4    4    0    0  0.49008257953E+02 -0.38747908163E+02  0.31649732402E+03  0.34600762122E+03  0.12509000000E+03 0.  0.
         25    1    3    3    0    0 -0.11285176751E+03  0.66837761165E+01  0.51283495332E+03  0.53984015388E+03  0.12509000000E+03 0.  0.
<mgrwt>
<rscale>  2 0.46348512E+03</rscale>
<asrwt>0</asrwt>
<pdfrwt beam="1">  1       21 0.16506243E+00 0.46348512E+03</pdfrwt>
<pdfrwt beam="2">  1       21 0.70363195E-02 0.46348512E+03</pdfrwt>
<totfact> 0.31011036E+04</totfact>
</mgrwt>
</event>
<event>
 7    0  0.4737014E-002  0.4596198E+03  0.7546771E-02  0.1024892E+00
         21   -1    0    0  502  501  0.00000000000E+00  0.00000000000E+00  0.16598790176E+03  0.16598790176E+03  0.00000000000E+00 0. -1.
         21   -1    0    0  501  502 -0.00000000000E+00 -0.00000000000E+00 -0.31817127213E+03  0.31817127213E+03  0.00000000000E+00 0. -1.
      99926    2    1    2    0    0  0.00000000000E+00  0.71054273576E-14 -0.15218337037E+03  0.48415917389E+03  0.45961976398E+03 0.  0.
      99925    2    3    3    0    0 -0.85603313468E+02  0.57891420157E+02 -0.36802050035E+02  0.28506195897E+03  0.26310945586E+03 0.  0.
         25    1    3    3    0    0  0.85603313468E+02 -0.57891420157E+02 -0.11538132033E+03  0.19909721491E+03  0.12509000000E+03 0.  0.
         25    1    4    4    0    0 -0.57924852897E+02  0.59664718458E+02  0.49869202292E+01  0.15029153231E+03  0.12509000000E+03 0.  0.
         25    1    4    4    0    0 -0.27678460571E+02 -0.17732983011E+01 -0.41788970264E+02  0.13477042666E+03  0.12509000000E+03 0.  0.
<mgrwt>
<rscale>  2 0.45961976E+03</rscale>
<asrwt>0</asrwt>
<pdfrwt beam="1">  1       21 0.24409986E-01 0.45961976E+03</pdfrwt>
<pdfrwt beam="2">  1       21 0.46789893E-01 0.45961976E+03</pdfrwt>
<totfact> 0.64018562E+04</totfact>
</mgrwt>
</event>
<event>
 7    0  0.4737014E-002  0.4190941E+03  0.7546771E-02  0.1037362E+00
         21   -1    0    0  502  501  0.00000000000E+00  0.00000000000E+00  0.13914153914E+03  0.13914153914E+03  0.00000000000E+00 0.  1.
         21   -1    0    0  501  502 -0.00000000000E+00 -0.00000000000E+00 -0.31557766790E+03  0.31557766790E+03  0.00000000000E+00 0.  1.
      99926    2    1    2    0    0  0.00000000000E+00  0.00000000000E+00 -0.17643612876E+03  0.45471920704E+03  0.41909408218E+03 0.  0.
      99925    2    3    3    0    0 -0.71744056389E+02  0.21506397528E+02 -0.11487740925E+03  0.29645765514E+03  0.26283186141E+03 0.  0.
         25    1    3    3    0    0  0.71744056389E+02 -0.21506397528E+02 -0.61558719513E+02  0.15826155190E+03  0.12509000000E+03 0.  0.
         25    1    4    4    0    0 -0.43900689638E+02  0.40911917917E+02 -0.87373282755E+02  0.16395930659E+03  0.12509000000E+03 0.  0.
         25    1    4    4    0    0 -0.27843366751E+02 -0.19405520389E+02 -0.27504126492E+02  0.13249834855E+03  0.12509000000E+03 0.  0.
<mgrwt>
<rscale>  2 0.41909408E+03</rscale>
<asrwt>0</asrwt>
<pdfrwt beam="1">  1       21 0.20461991E-01 0.41909408E+03</pdfrwt>
<pdfrwt beam="2">  1       21 0.46408480E-01 0.41909408E+03</pdfrwt>
<totfact> 0.92188490E+04</totfact>
</mgrwt>
</event>
<event>
 7    0  0.4737014E-002  0.4497308E+03  0.7546771E-02  0.1027802E+00
         21   -1    0    0  502  501  0.00000000000E+00  0.00000000000E+00  0.44181042926E+02  0.44181042926E+02  0.00000000000E+00 0. -1.
         21   -1    0    0  501  502 -0.00000000000E+00 -0.00000000000E+00 -0.11444830747E+04  0.11444830747E+04  0.00000000000E+00 0. -1.
      99926    2    1    2    0    0  0.00000000000E+00  0.00000000000E+00 -0.11003020318E+04  0.11886641177E+04  0.44973083440E+03 0.  0.
      99925    2    3    3    0    0 -0.90034282124E+02  0.47752574890E+02 -0.59970364841E+03  0.66270525052E+03  0.26295874730E+03 0.  0.
         25    1    4    4    0    0 -0.83044021100E+01  0.35178588736E+02 -0.24111281664E+03  0.27402444170E+03  0.12509000000E+03 0.  0.
         25    1    3    3    0    0  0.90034282124E+02 -0.47752574890E+02 -0.50059838341E+03  0.52595886716E+03  0.12509000000E+03 0.  0.
         25    1    4    4    0    0 -0.81729880014E+02  0.12573986154E+02 -0.35859083177E+03  0.38868080882E+03  0.12509000000E+03 0.  0.
<mgrwt>
<rscale>  2 0.44973083E+03</rscale>
<asrwt>0</asrwt>
<pdfrwt beam="1">  1       21 0.64972121E-02 0.44973083E+03</pdfrwt>
<pdfrwt beam="2">  1       21 0.16830634E+00 0.44973083E+03</pdfrwt>
<totfact> 0.33887173E+04</totfact>
</mgrwt>
</event>
<event>
 7    0  0.4737014E-002  0.4456806E+03  0.7546771E-02  0.1029018E+00
         21   -1    0    0  502  501  0.00000000000E+00  0.00000000000E+00  0.72250757482E+03  0.72250757482E+03  0.00000000000E+00 0.  1.
         21   -1    0    0  501  502 -0.00000000000E+00 -0.00000000000E+00 -0.68729804659E+02  0.68729804659E+02  0.00000000000E+00 0.  1.
      99926    2    1    2    0    0  0.14210854715E-13 -0.88817841970E-15  0.65377777016E+03  0.79123737948E+03  0.44568062324E+03 0.  0.
      99925    2    3    3    0    0 -0.10437270169E+03  0.67220301466E+01  0.39444011440E+03  0.48490035211E+03  0.26192842739E+03 0.  0.
         25    1    3    3    0    0  0.10437270169E+03 -0.67220301466E+01  0.25933765575E+03  0.30633702737E+03  0.12509000000E+03 0.  0.
         25    1    4    4    0    0 -0.68546230113E+02 -0.54828206694E+01  0.14602374018E+03  0.20420354498E+03  0.12509000000E+03 0.  0.
         25    1    4    4    0    0 -0.35826471574E+02  0.12204850816E+02  0.24841637423E+03  0.28069680713E+03  0.12509000000E+03 0.  0.
<mgrwt>
<rscale>  2 0.44568062E+03</rscale>
<asrwt>0</asrwt>
<pdfrwt beam="1">  1       21 0.10625111E+00 0.44568062E+03</pdfrwt>
<pdfrwt beam="2">  1       21 0.10107325E-01 0.44568062E+03</pdfrwt>
<totfact> 0.51883681E+04</totfact>
</mgrwt>
</event>
<event>
 7    0  0.4737014E-002  0.4541241E+03  0.7546771E-02  0.1026499E+00
         21   -1    0    0  502  501  0.00000000000E+00  0.00000000000E+00  0.23281283834E+03  0.23281283834E+03  0.00000000000E+00 0.  1.
         21   -1    0    0  501  502 -0.00000000000E+00 -0.00000000000E+00 -0.22145334215E+03  0.22145334215E+03  0.00000000000E+00 0.  1.
      99926    2    1    2    0    0  0.14210854715E-13 -0.14210854715E-13  0.11359496185E+02  0.45426618049E+03  0.45412412905E+03 0.  0.
      99925    2    3    3    0    0  0.82963307334E+02 -0.73662893578E+02 -0.10546233465E+02  0.28563492198E+03  0.26299610902E+03 0.  0.
         25    1    3    3    0    0 -0.82963307334E+02  0.73662893578E+02  0.21905729650E+02  0.16863125851E+03  0.12509000000E+03 0.  0.
         25    1    4    4    0    0  0.43376783129E+02 -0.29546327278E+02 -0.45117641506E+02  0.14296027576E+03  0.12509000000E+03 0.  0.
         25    1    4    4    0    0  0.39586524205E+02 -0.44116566299E+02  0.34571408041E+02  0.14267464622E+03  0.12509000000E+03 0.  0.
<mgrwt>
<rscale>  2 0.45412413E+03</rscale>
<asrwt>0</asrwt>
<pdfrwt beam="1">  1       21 0.34237182E-01 0.45412413E+03</pdfrwt>
<pdfrwt beam="2">  1       21 0.32566668E-01 0.45412413E+03</pdfrwt>
<totfact> 0.69081105E+04</totfact>
</mgrwt>
</event>
<event>
 7    0  0.4737014E-002  0.4486731E+03  0.7546771E-02  0.1028118E+00
         21   -1    0    0  502  501  0.00000000000E+00  0.00000000000E+00  0.29379444301E+03  0.29379444301E+03  0.00000000000E+00 0. -1.
         21   -1    0    0  501  502 -0.00000000000E+00 -0.00000000000E+00 -0.17129962421E+03  0.17129962421E+03  0.00000000000E+00 0. -1.
      99926    2    1    2    0    0 -0.35527136788E-14  0.14210854715E-13  0.12249481879E+03  0.46509406722E+03  0.44867305550E+03 0.  0.
      99925    2    3    3    0    0 -0.12328509367E+02  0.10363765469E+03  0.52506330590E+02  0.28778458582E+03  0.26300246666E+03 0.  0.
         25    1    3    3    0    0  0.12328509367E+02 -0.10363765469E+03  0.69988488204E+02  0.17730948140E+03  0.12509000000E+03 0.  0.
         25    1    4    4    0    0 -0.46613123598E+02  0.53764810872E+02  0.30130602513E+02  0.14703332781E+03  0.12509000000E+03 0.  0.
         25    1    4    4    0    0  0.34284614232E+02  0.49872843817E+02  0.22375728077E+02  0.14075125801E+03  0.12509000000E+03 0.  0.
<mgrwt>
<rscale>  2 0.44867306E+03</rscale>
<asrwt>0</asrwt>
<pdfrwt beam="1">  1       21 0.43205065E-01 0.44867306E+03</pdfrwt>
<pdfrwt beam="2">  1       21 0.25191121E-01 0.44867306E+03</pdfrwt>
<totfact> 0.71315103E+04</totfact>
</mgrwt>
</event>
<event>
 7    0  0.4737014E-002  0.4593454E+03  0.7546771E-02  0.1024971E+00
         21   -1    0    0  502  501  0.00000000000E+00  0.00000000000E+00  0.15321041169E+03  0.15321041169E+03  0.00000000000E+00 0.  1.
         21   -1    0    0  501  502 -0.00000000000E+00 -0.00000000000E+00 -0.34429483598E+03  0.34429483598E+03  0.00000000000E+00 0.  1.
      99926    2    1    2    0    0  0.71054273576E-14  0.00000000000E+00 -0.19108442429E+03  0.49750524767E+03  0.45934541932E+03 0.  0.
      99925    2    3    3    0    0  0.50887523112E+02 -0.10514172406E+03 -0.12326849042E+03  0.31341062219E+03  0.26341369596E+03 0.  0.
         25    1    3    3    0    0 -0.50887523112E+02  0.10514172406E+03 -0.67815933873E+02  0.18409462549E+03  0.12509000000E+03 0.  0.
         25    1    4    4    0    0  0.62163523549E+02 -0.68343571870E+02 -0.84132407572E+02  0.17680757218E+03  0.12509000000E+03 0.  0.
         25    1    4    4    0    0 -0.11276000438E+02 -0.36798152188E+02 -0.39136082849E+02  0.13660305001E+03  0.12509000000E+03 0.  0.
<mgrwt>
<rscale>  2 0.45934542E+03</rscale>
<asrwt>0</asrwt>
<pdfrwt beam="1">  1       21 0.22530943E-01 0.45934542E+03</pdfrwt>
<pdfrwt beam="2">  1       21 0.50631594E-01 0.45934542E+03</pdfrwt>
<totfact> 0.63236544E+04</totfact>
</mgrwt>
</event>
<event>
 7    0  0.4737014E-002  0.4527229E+03  0.7546771E-02  0.1026913E+00
         21   -1    0    0  502  501  0.00000000000E+00  0.00000000000E+00  0.48829836313E+02  0.48829836313E+02  0.00000000000E+00 0.  1.
         21   -1    0    0  501  502 -0.00000000000E+00 -0.00000000000E+00 -0.10493483686E+04  0.10493483686E+04  0.00000000000E+00 0.  1.
      99926    2    1    2    0    0  0.00000000000E+00  0.00000000000E+00 -0.10005185323E+04  0.10981782049E+04  0.45272291338E+03 0.  0.
      99925    2    3    3    0    0 -0.38424502357E+02 -0.90798301502E+02 -0.50747827565E+03  0.58004986492E+03  0.26306438680E+03 0.  0.
         25    1    4    4    0    0  0.81085209355E+01 -0.12657757704E+02 -0.21484509360E+03  0.24906201896E+03  0.12509000000E+03 0.  0.
         25    1    3    3    0    0  0.38424502357E+02  0.90798301502E+02 -0.49304025667E+03  0.51812834002E+03  0.12509000000E+03 0.  0.
         25    1    4    4    0    0 -0.46533023292E+02 -0.78140543798E+02 -0.29263318204E+03  0.33098784596E+03  0.12509000000E+03 0.  0.
<mgrwt>
<rscale>  2 0.45272291E+03</rscale>
<asrwt>0</asrwt>
<pdfrwt beam="1">  1       21 0.71808580E-02 0.45272291E+03</pdfrwt>
<pdfrwt beam="2">  1       21 0.15431594E+00 0.45272291E+03</pdfrwt>
<totfact> 0.36196203E+04</totfact>
</mgrwt>
</event>
<event>
 7    0  0.4737014E-002  0.4563277E+03  0.7546771E-02  0.1025852E+00
         21   -1    0    0  502  501  0.00000000000E+00  0.00000000000E+00  0.10305696410E+03  0.10305696410E+03  0.00000000000E+00 0. -1.
         21   -1    0    0  501  502 -0.00000000000E+00 -0.00000000000E+00 -0.50514539817E+03  0.50514539817E+03  0.00000000000E+00 0. -1.
      99926    2    1    2    0    0  0.00000000000E+00  0.17763568394E-14 -0.40208843407E+03  0.60820236227E+03  0.45632773821E+03 0.  0.
      99925    2    3    3    0    0 -0.90850310897E+02  0.42431698411E+01 -0.16000941816E+03  0.32093673341E+03  0.26291745753E+03 0.  0.
         25    1    4    4    0    0 -0.59758902029E+02 -0.12650091230E+02 -0.12302708718E+03  0.18578030966E+03  0.12509000000E+03 0.  0.
         25    1    4    4    0    0 -0.31091408868E+02  0.16893261071E+02 -0.36982330987E+02  0.13515642375E+03  0.12509000000E+03 0.  0.
         25    1    3    3    0    0  0.90850310897E+02 -0.42431698411E+01 -0.24207901591E+03  0.28726562886E+03  0.12509000000E+03 0.  0.
<mgrwt>
<rscale>  2 0.45632774E+03</rscale>
<asrwt>0</asrwt>
<pdfrwt beam="1">  1       21 0.15155436E-01 0.45632774E+03</pdfrwt>
<pdfrwt beam="2">  1       21 0.74286089E-01 0.45632774E+03</pdfrwt>
<totfact> 0.57570017E+04</totfact>
</mgrwt>
</event>
<event>
 7    0  0.4737014E-002  0.4590148E+03  0.7546771E-02  0.1025067E+00
         21   -1    0    0  502  501  0.00000000000E+00  0.00000000000E+00  0.17580396144E+03  0.17580396144E+03  0.00000000000E+00 0.  1.
         21   -1    0    0  501  502 -0.00000000000E+00 -0.00000000000E+00 -0.29961586333E+03  0.29961586333E+03  0.00000000000E+00 0.  1.
      99926    2    1    2    0    0  0.00000000000E+00  0.00000000000E+00 -0.12381190189E+03  0.47541982477E+03  0.45901483934E+03 0.  0.
      99925    2    3    3    0    0  0.64354111785E+02  0.83143707771E+02 -0.13083640125E+03  0.31186194652E+03  0.26284098225E+03 0.  0.
         25    1    4    4    0    0  0.15005086295E+02  0.43055508355E+02 -0.10412368758E+03  0.16902124076E+03  0.12509000000E+03 0.  0.
         25    1    3    3    0    0 -0.64354111785E+02 -0.83143707771E+02  0.70244993591E+01  0.16355787825E+03  0.12509000000E+03 0.  0.
         25    1    4    4    0    0  0.49349025490E+02  0.40088199416E+02 -0.26712713678E+02  0.14284070576E+03  0.12509000000E+03 0.  0.
<mgrwt>
<rscale>  2 0.45901484E+03</rscale>
<asrwt>0</asrwt>
<pdfrwt beam="1">  1       21 0.25853524E-01 0.45901484E+03</pdfrwt>
<pdfrwt beam="2">  1       21 0.44061156E-01 0.45901484E+03</pdfrwt>
<totfact> 0.64941421E+04</totfact>
</mgrwt>
</event>
<event>
 7    0  0.4737014E-002  0.4555257E+03  0.7546771E-02  0.1026087E+00
         21   -1    0    0  502  501  0.00000000000E+00  0.00000000000E+00  0.11667498759E+04  0.11667498759E+04  0.00000000000E+00 0. -1.
         21   -1    0    0  501  502 -0.00000000000E+00 -0.00000000000E+00 -0.44461890639E+02  0.44461890639E+02  0.00000000000E+00 0. -1.
      99926    2    1    2    0    0  0.26645352591E-14 -0.71054273576E-14  0.11222879853E+04  0.12112117666E+04  0.45552565410E+03 0.  0.
      99925    2    3    3    0    0 -0.35238181517E+01 -0.54451416170E+02  0.43846850304E+03  0.51390697924E+03  0.26242785893E+03 0.  0.
         25    1    3    3    0    0  0.35238181517E+01  0.54451416170E+02  0.68381948224E+03  0.69730478731E+03  0.12509000000E+03 0.  0.
         25    1    4    4    0    0 -0.33408708228E+02 -0.40288259270E+02  0.18558281428E+03  0.22984293480E+03  0.12509000000E+03 0.  0.
         25    1    4    4    0    0  0.29884890076E+02 -0.14163156900E+02  0.25288568875E+03  0.28406404444E+03  0.12509000000E+03 0.  0.
<mgrwt>
<rscale>  2 0.45552565E+03</rscale>
<asrwt>0</asrwt>
<pdfrwt beam="1">  1       21 0.17158084E+00 0.45552565E+03</pdfrwt>
<pdfrwt beam="2">  1       21 0.65385141E-02 0.45552565E+03</pdfrwt>
<totfact> 0.31672732E+04</totfact>
</mgrwt>
</event>
<event>
 7    0  0.4737014E-002  0.4304120E+03  0.7546771E-02  0.1033730E+00
         21   -1    0    0  502  501  0.00000000000E+00  0.00000000000E+00  0.16592744265E+03  0.16592744265E+03  0.00000000000E+00 0. -1.
         21   -1    0    0  501  502 -0.00000000000E+00 -0.00000000000E+00 -0.27911971140E+03  0.27911971140E+03  0.00000000000E+00 0. -1.
      99926    2    1    2    0    0  0.00000000000E+00  0.00000000000E+00 -0.11319226875E+03  0.44504715405E+03  0.43041198824E+03 0.  0.
      99925    2    3    3    0    0 -0.37962552309E+02 -0.79181970209E+02 -0.64901863109E+02  0.28476486819E+03  0.26299779189E+03 0.  0.
         25    1    4    4    0    0 -0.14351457183E+02 -0.80625823687E+02 -0.43134318402E+02  0.15561029944E+03  0.12509000000E+03 0.  0.
         25    1    3    3    0    0  0.37962552309E+02  0.79181970209E+02 -0.48290405645E+02  0.16028228586E+03  0.12509000000E+03 0.  0.
         25    1    4    4    0    0 -0.23611095126E+02  0.14438534785E+01 -0.21767544707E+02  0.12915456875E+03  0.12509000000E+03 0.  0.
<mgrwt>
<rscale>  2 0.43041199E+03</rscale>
<asrwt>0</asrwt>
<pdfrwt beam="1">  1       21 0.24401095E-01 0.43041199E+03</pdfrwt>
<pdfrwt beam="2">  1       21 0.41047016E-01 0.43041199E+03</pdfrwt>
<totfact> 0.84687667E+04</totfact>
</mgrwt>
</event>
<event>
 7    0  0.4737014E-002  0.4533422E+03  0.7546771E-02  0.1026730E+00
         21   -1    0    0  502  501  0.00000000000E+00  0.00000000000E+00  0.14800520975E+04  0.14800520975E+04  0.00000000000E+00 0. -1.
         21   -1    0    0  501  502 -0.00000000000E+00 -0.00000000000E+00 -0.34714856553E+02  0.34714856553E+02  0.00000000000E+00 0. -1.
      99926    2    1    2    0    0  0.00000000000E+00  0.14210854715E-13  0.14453372410E+04  0.15147669541E+04  0.45334223830E+03 0.  0.
      99925    2    3    3    0    0  0.65210672501E+02  0.77471530709E+02  0.75396573086E+03  0.80491038901E+03  0.26298696003E+03 0.  0.
         25    1    3    3    0    0 -0.65210672501E+02 -0.77471530709E+02  0.69137151011E+03  0.70985656507E+03  0.12509000000E+03 0.  0.
         25    1    4    4    0    0  0.69902194599E+02  0.43680146338E+02  0.45538466598E+03  0.47939229667E+03  0.12509000000E+03 0.  0.
         25    1    4    4    0    0 -0.46915220977E+01  0.33791384370E+02  0.29858106488E+03  0.32551809234E+03  0.12509000000E+03 0.  0.
<mgrwt>
<rscale>  2 0.45334224E+03</rscale>
<asrwt>0</asrwt>
<pdfrwt beam="1">  1       21 0.21765468E+00 0.45334224E+03</pdfrwt>
<pdfrwt beam="2">  1       21 0.51051270E-02 0.45334224E+03</pdfrwt>
<totfact> 0.23723512E+04</totfact>
</mgrwt>
</event>
<event>
 7    0  0.4737014E-002  0.4588884E+03  0.7546771E-02  0.1025104E+00
         21   -1    0    0  502  501  0.00000000000E+00  0.00000000000E+00  0.93317841833E+03  0.93317841833E+03  0.00000000000E+00 0.  1.
         21   -1    0    0  501  502 -0.00000000000E+00 -0.00000000000E+00 -0.56414339974E+02  0.56414339974E+02  0.00000000000E+00 0.  1.
      99926    2    1    2    0    0  0.00000000000E+00  0.00000000000E+00  0.87676407835E+03  0.98959275830E+03  0.45888841584E+03 0.  0.
      99925    2    3    3    0    0  0.10526243983E+03  0.50428237502E+02  0.54684655571E+03  0.61795278706E+03  0.26306140570E+03 0.  0.
         25    1    4    4    0    0  0.59355427710E+02 -0.15091555349E+02  0.26025331320E+03  0.29517811059E+03  0.12509000000E+03 0.  0.
         25    1    3    3    0    0 -0.10526243983E+03 -0.50428237502E+02  0.32991752264E+03  0.37163997124E+03  0.12509000000E+03 0.  0.
         25    1    4    4    0    0  0.45907012120E+02  0.65519792851E+02  0.28659324251E+03  0.32277467647E+03  0.12509000000E+03 0.  0.
<mgrwt>
<rscale>  2 0.45888842E+03</rscale>
<asrwt>0</asrwt>
<pdfrwt beam="1">  1       21 0.13723211E+00 0.45888842E+03</pdfrwt>
<pdfrwt beam="2">  1       21 0.82962270E-02 0.45888842E+03</pdfrwt>
<totfact> 0.38394526E+04</totfact>
</mgrwt>
</event>
<event>
 7    0  0.4737014E-002  0.4856513E+03  0.7546771E-02  0.1017593E+00
         21   -1    0    0  502  501  0.00000000000E+00  0.00000000000E+00  0.49236426205E+03  0.49236426205E+03  0.00000000000E+00 0.  1.
         21   -1    0    0  501  502 -0.00000000000E+00 -0.00000000000E+00 -0.11975748278E+03  0.11975748278E+03  0.00000000000E+00 0.  1.
      99926    2    1    2    0    0  0.00000000000E+00  0.00000000000E+00  0.37260677927E+03  0.61212174483E+03  0.48565133433E+03 0.  0.
      99925    2    3    3    0    0 -0.81991142749E+02 -0.11163726167E+03  0.25574469854E+03  0.39191802167E+03  0.26269556372E+03 0.  0.
         25    1    4    4    0    0 -0.25993355932E+02 -0.35983795643E+02  0.16206502416E+03  0.20948285910E+03  0.12509000000E+03 0.  0.
         25    1    4    4    0    0 -0.55997786817E+02 -0.75653466023E+02  0.93679674384E+02  0.18243516257E+03  0.12509000000E+03 0.  0.
         25    1    3    3    0    0  0.81991142749E+02  0.11163726167E+03  0.11686208073E+03  0.22020372316E+03  0.12509000000E+03 0.  0.
<mgrwt>
<rscale>  2 0.48565133E+03</rscale>
<asrwt>0</asrwt>
<pdfrwt beam="1">  1       21 0.72406508E-01 0.48565133E+03</pdfrwt>
<pdfrwt beam="2">  1       21 0.17611395E-01 0.48565133E+03</pdfrwt>
<totfact> 0.45799288E+04</totfact>
</mgrwt>
</event>
<event>
 7    0  0.4737014E-002  0.4565383E+03  0.7546771E-02  0.1025790E+00
         21   -1    0    0  502  501  0.00000000000E+00  0.00000000000E+00  0.21948695346E+03  0.21948695346E+03  0.00000000000E+00 0.  1.
         21   -1    0    0  501  502 -0.00000000000E+00 -0.00000000000E+00 -0.23740277944E+03  0.23740277944E+03  0.00000000000E+00 0.  1.
      99926    2    1    2    0    0 -0.71054273576E-14 -0.35527136788E-14 -0.17915825985E+02  0.45688973290E+03  0.45653833488E+03 0.  0.
      99925    2    3    3    0    0  0.60749308130E+02  0.23665188991E+02  0.83129911361E+02  0.28337238869E+03  0.26294259620E+03 0.  0.
         25    1    4    4    0    0  0.40355479386E+02  0.48098928999E+02  0.26633401943E+02  0.14247427096E+03  0.12509000000E+03 0.  0.
         25    1    3    3    0    0 -0.60749308130E+02 -0.23665188991E+02 -0.10104573735E+03  0.17351734422E+03  0.12509000000E+03 0.  0.
         25    1    4    4    0    0  0.20393828744E+02 -0.24433740008E+02  0.56496509417E+02  0.14089811772E+03  0.12509000000E+03 0.  0.
<mgrwt>
<rscale>  2 0.45653833E+03</rscale>
<asrwt>0</asrwt>
<pdfrwt beam="1">  1       21 0.32277493E-01 0.45653833E+03</pdfrwt>
<pdfrwt beam="2">  1       21 0.34912173E-01 0.45653833E+03</pdfrwt>
<totfact> 0.67574353E+04</totfact>
</mgrwt>
</event>
<event>
 7    0  0.4737014E-002  0.4489279E+03  0.7546771E-02  0.1028042E+00
         21   -1    0    0  502  501  0.00000000000E+00  0.00000000000E+00  0.13165471934E+03  0.13165471934E+03  0.00000000000E+00 0.  1.
         21   -1    0    0  501  502 -0.00000000000E+00 -0.00000000000E+00 -0.38269857607E+03  0.38269857607E+03  0.00000000000E+00 0.  1.
      99926    2    1    2    0    0  0.00000000000E+00  0.00000000000E+00 -0.25104385673E+03  0.51435329541E+03  0.44892793910E+03 0.  0.
      99925    2    3    3    0    0  0.24260507124E+02  0.88737758544E+02 -0.22235255835E+03  0.35644933504E+03  0.26296864119E+03 0.  0.
         25    1    4    4    0    0 -0.18572172377E+02  0.62566471315E+02 -0.13849707082E+03  0.19770795544E+03  0.12509000000E+03 0.  0.
         25    1    4    4    0    0  0.42832679501E+02  0.26171287229E+02 -0.83855487538E+02  0.15874137960E+03  0.12509000000E+03 0.  0.
         25    1    3    3    0    0 -0.24260507124E+02 -0.88737758544E+02 -0.28691298371E+02  0.15790396037E+03  0.12509000000E+03 0.  0.
<mgrwt>
<rscale>  2 0.44892794E+03</rscale>
<asrwt>0</asrwt>
<pdfrwt beam="1">  1       21 0.19360988E-01 0.44892794E+03</pdfrwt>
<pdfrwt beam="2">  1       21 0.56279203E-01 0.44892794E+03</pdfrwt>
<totfact> 0.67465835E+04</totfact>
</mgrwt>
</event>
<event>
 7    0  0.4737014E-002  0.4557752E+03  0.7546771E-02  0.1026014E+00
         21   -1    0    0  502  501  0.00000000000E+00  0.00000000000E+00  0.42547452497E+02  0.42547452497E+02  0.00000000000E+00 0. -1.
         21   -1    0    0  501  502 -0.00000000000E+00 -0.00000000000E+00 -0.12205843908E+04  0.12205843908E+04  0.00000000000E+00 0. -1.
      99926    2    1    2    0    0  0.00000000000E+00  0.00000000000E+00 -0.11780369383E+04  0.12631318433E+04  0.45577519189E+03 0.  0.
      99925    2    3    3    0    0  0.10989515372E+02 -0.64292268658E+02 -0.48516972254E+03  0.55604857236E+03  0.26371592651E+03 0.  0.
         25    1    4    4    0    0 -0.15115287171E+02 -0.26528722159E+02 -0.16528132946E+03  0.20951771041E+03  0.12509000000E+03 0.  0.
         25    1    3    3    0    0 -0.10989515372E+02  0.64292268658E+02 -0.69286721575E+03  0.70708327092E+03  0.12509000000E+03 0.  0.
         25    1    4    4    0    0  0.26104802544E+02 -0.37763546499E+02 -0.31988839307E+03  0.34653086195E+03  0.12509000000E+03 0.  0.
<mgrwt>
<rscale>  2 0.45577519E+03</rscale>
<asrwt>0</asrwt>
<pdfrwt beam="1">  1       21 0.62569776E-02 0.45577519E+03</pdfrwt>
<pdfrwt beam="2">  1       21 0.17949772E+00 0.45577519E+03</pdfrwt>
<totfact> 0.30022932E+04</totfact>
</mgrwt>
</event>
<event>
 7    0  0.4737014E-002  0.4537025E+03  0.7546771E-02  0.1026624E+00
         21   -1    0    0  502  501  0.00000000000E+00  0.00000000000E+00  0.43925296816E+03  0.43925296816E+03  0.00000000000E+00 0.  1.
         21   -1    0    0  501  502 -0.00000000000E+00 -0.00000000000E+00 -0.11715682418E+03  0.11715682418E+03  0.00000000000E+00 0.  1.
      99926    2    1    2    0    0  0.00000000000E+00  0.00000000000E+00  0.32209614397E+03  0.55640979234E+03  0.45370246974E+03 0.  0.
      99925    2    3    3    0    0  0.55453866902E+02 -0.76975830335E+02  0.12997669354E+03  0.30830134600E+03  0.26297408479E+03 0.  0.
         25    1    4    4    0    0  0.57666305337E+02 -0.41257123292E+02  0.37261007319E+02  0.14853768465E+03  0.12509000000E+03 0.  0.
         25    1    4    4    0    0 -0.22124384353E+01 -0.35718707043E+02  0.92715686223E+02  0.15976366135E+03  0.12509000000E+03 0.  0.
         25    1    3    3    0    0 -0.55453866902E+02  0.76975830335E+02  0.19211945043E+03  0.24810844634E+03  0.12509000000E+03 0.  0.
<mgrwt>
<rscale>  2 0.45370247E+03</rscale>
<asrwt>0</asrwt>
<pdfrwt beam="1">  1       21 0.64596024E-01 0.45370247E+03</pdfrwt>
<pdfrwt beam="2">  1       21 0.17228945E-01 0.45370247E+03</pdfrwt>
<totfact> 0.62079675E+04</totfact>
</mgrwt>
</event>
<event>
 7    0  0.4737014E-002  0.4597150E+03  0.7546771E-02  0.1024864E+00
         21   -1    0    0  502  501  0.00000000000E+00  0.00000000000E+00  0.13343463073E+03  0.13343463073E+03  0.00000000000E+00 0. -1.
         21   -1    0    0  501  502 -0.00000000000E+00 -0.00000000000E+00 -0.39595778939E+03  0.39595778939E+03  0.00000000000E+00 0. -1.
      99926    2    1    2    0    0  0.00000000000E+00  0.14210854715E-13 -0.26252315866E+03  0.52939242012E+03  0.45971504832E+03 0.  0.
      99925    2    3    3    0    0 -0.32556923203E+02 -0.98586147108E+02 -0.10073252075E+03  0.30003919851E+03  0.26286364955E+03 0.  0.
         25    1    4    4    0    0 -0.88154089841E+01 -0.86516680081E+02 -0.35328630177E+02  0.15639203170E+03  0.12509000000E+03 0.  0.
         25    1    3    3    0    0  0.32556923203E+02  0.98586147108E+02 -0.16179063790E+03  0.22935322161E+03  0.12509000000E+03 0.  0.
         25    1    4    4    0    0 -0.23741514219E+02 -0.12069467027E+02 -0.65403890576E+02  0.14364716682E+03  0.12509000000E+03 0.  0.
<mgrwt>
<rscale>  2 0.45971505E+03</rscale>
<asrwt>0</asrwt>
<pdfrwt beam="1">  1       21 0.19622740E-01 0.45971505E+03</pdfrwt>
<pdfrwt beam="2">  1       21 0.58229086E-01 0.45971505E+03</pdfrwt>
<totfact> 0.60938049E+04</totfact>
</mgrwt>
</event>
<event>
 7    0  0.4737014E-002  0.4493982E+03  0.7546771E-02  0.1027902E+00
         21   -1    0    0  502  501  0.00000000000E+00  0.00000000000E+00  0.41459456045E+03  0.41459456045E+03  0.00000000000E+00 0.  1.
         21   -1    0    0  501  502 -0.00000000000E+00 -0.00000000000E+00 -0.12178086798E+03  0.12178086798E+03  0.00000000000E+00 0.  1.
      99926    2    1    2    0    0  0.00000000000E+00 -0.35527136788E-14  0.29281369247E+03  0.53637542842E+03  0.44939819951E+03 0.  0.
      99925    2    3    3    0    0  0.99682608895E+02 -0.23730171110E+02  0.22305180726E+03  0.36026758571E+03  0.26370605047E+03 0.  0.
         25    1    4    4    0    0  0.70408298150E+02 -0.26837296544E+01  0.16205491119E+03  0.21650365631E+03  0.12509000000E+03 0.  0.
         25    1    3    3    0    0 -0.99682608895E+02  0.23730171110E+02  0.69761885203E+02  0.17610784271E+03  0.12509000000E+03 0.  0.
         25    1    4    4    0    0  0.29274310745E+02 -0.21046441456E+02  0.60996896069E+02  0.14376392940E+03  0.12509000000E+03 0.  0.
<mgrwt>
<rscale>  2 0.44939820E+03</rscale>
<asrwt>0</asrwt>
<pdfrwt beam="1">  1       21 0.60969788E-01 0.44939820E+03</pdfrwt>
<pdfrwt beam="2">  1       21 0.17908951E-01 0.44939820E+03</pdfrwt>
<totfact> 0.65637980E+04</totfact>
</mgrwt>
</event>
<event>
 7    0  0.4737014E-002  0.4569975E+03  0.7546771E-02  0.1025656E+00
         21   -1    0    0  502  501  0.00000000000E+00  0.00000000000E+00  0.34500273330E+03  0.34500273330E+03  0.00000000000E+00 0. -1.
         21   -1    0    0  501  502 -0.00000000000E+00 -0.00000000000E+00 -0.15133698661E+03  0.15133698661E+03  0.00000000000E+00 0. -1.
      99926    2    1    2    0    0  0.00000000000E+00  0.00000000000E+00  0.19366574669E+03  0.49633971991E+03  0.45699747933E+03 0.  0.
      99925    2    3    3    0    0 -0.23761331441E+02 -0.72528526594E+02  0.21512488718E+03  0.34824181023E+03  0.26299934080E+03 0.  0.
         25    1    3    3    0    0  0.23761331441E+02  0.72528526594E+02 -0.21459140491E+02  0.14809790968E+03  0.12509000000E+03 0.  0.
         25    1    4    4    0    0 -0.12484461751E+02 -0.15965260874E+02  0.58230657368E+02  0.13945991861E+03  0.12509000000E+03 0.  0.
         25    1    4    4    0    0 -0.11276869690E+02 -0.56563265721E+02  0.15689422982E+03  0.20878189162E+03  0.12509000000E+03 0.  0.
<mgrwt>
<rscale>  2 0.45699748E+03</rscale>
<asrwt>0</asrwt>
<pdfrwt beam="1">  1       21 0.50735696E-01 0.45699748E+03</pdfrwt>
<pdfrwt beam="2">  1       21 0.22255439E-01 0.45699748E+03</pdfrwt>
<totfact> 0.64499718E+04</totfact>
</mgrwt>
</event>
<event>
 7    0  0.4737014E-002  0.4518605E+03  0.7546771E-02  0.1027169E+00
         21   -1    0    0  502  501  0.00000000000E+00  0.00000000000E+00  0.16021999432E+03  0.16021999432E+03  0.00000000000E+00 0. -1.
         21   -1    0    0  501  502 -0.00000000000E+00 -0.00000000000E+00 -0.31858998428E+03  0.31858998428E+03  0.00000000000E+00 0. -1.
      99926    2    1    2    0    0  0.00000000000E+00  0.00000000000E+00 -0.15836998996E+03  0.47880997860E+03  0.45186053367E+03 0.  0.
      99925    2    3    3    0    0  0.22028404135E+02 -0.39369010866E+02 -0.20640881305E+03  0.33742254554E+03  0.26308592993E+03 0.  0.
         25    1    4    4    0    0  0.44050849807E+02 -0.41845459734E+02 -0.94615018817E+02  0.16819937501E+03  0.12509000000E+03 0.  0.
         25    1    3    3    0    0 -0.22028404135E+02  0.39369010866E+02  0.48038823088E+02  0.14138743307E+03  0.12509000000E+03 0.  0.
         25    1    4    4    0    0 -0.22022445671E+02  0.24764488683E+01 -0.11179379423E+03  0.16922317052E+03  0.12509000000E+03 0.  0.
<mgrwt>
<rscale>  2 0.45186053E+03</rscale>
<asrwt>0</asrwt>
<pdfrwt beam="1">  1       21 0.23561764E-01 0.45186053E+03</pdfrwt>
<pdfrwt beam="2">  1       21 0.46851468E-01 0.45186053E+03</pdfrwt>
<totfact> 0.68477423E+04</totfact>
</mgrwt>
</event>
<event>
 7    0  0.4737014E-002  0.4526847E+03  0.7546771E-02  0.1026924E+00
         21   -1    0    0  502  501  0.00000000000E+00  0.00000000000E+00  0.64353470634E+02  0.64353470634E+02  0.00000000000E+00 0. -1.
         21   -1    0    0  501  502 -0.00000000000E+00 -0.00000000000E+00 -0.79608539715E+03  0.79608539715E+03  0.00000000000E+00 0. -1.
      99926    2    1    2    0    0  0.00000000000E+00  0.00000000000E+00 -0.73173192652E+03  0.86043886778E+03  0.45268469480E+03 0.  0.
      99925    2    3    3    0    0  0.10919867873E+03 -0.15339489656E+01 -0.49555723400E+03  0.57173019469E+03  0.26338515317E+03 0.  0.
         25    1    4    4    0    0  0.76887028007E+02 -0.12942370949E+02 -0.19548955658E+03  0.24483217696E+03  0.12509000000E+03 0.  0.
         25    1    4    4    0    0  0.32311650722E+02  0.11408421983E+02 -0.30006767742E+03  0.32689801773E+03  0.12509000000E+03 0.  0.
         25    1    3    3    0    0 -0.10919867873E+03  0.15339489656E+01 -0.23617469251E+03  0.28870867309E+03  0.12509000000E+03 0.  0.
<mgrwt>
<rscale>  2 0.45268469E+03</rscale>
<asrwt>0</asrwt>
<pdfrwt beam="1">  1       21 0.94637460E-02 0.45268469E+03</pdfrwt>
<pdfrwt beam="2">  1       21 0.11707138E+00 0.45268469E+03</pdfrwt>
<totfact> 0.45802042E+04</totfact>
</mgrwt>
</event>
<event>
 7    0  0.4737014E-002  0.4598539E+03  0.7546771E-02  0.1024824E+00
         21   -1    0    0  502  501  0.00000000000E+00  0.00000000000E+00  0.61257993810E+02  0.61257993810E+02  0.00000000000E+00 0. -1.
         21   -1    0    0  501  502 -0.00000000000E+00 -0.00000000000E+00 -0.86301235709E+03  0.86301235709E+03  0.00000000000E+00 0. -1.
      99926    2    1    2    0    0  0.71054273576E-14 -0.14210854715E-13 -0.80175436328E+03  0.92427035090E+03  0.45985391432E+03 0.  0.
      99925    2    3    3    0    0  0.52428479166E+02 -0.95296267698E+02 -0.41338960166E+03  0.50200879661E+03  0.26323325217E+03 0.  0.
         25    1    3    3    0    0 -0.52428479166E+02  0.95296267698E+02 -0.38836476162E+03  0.42226155429E+03  0.12509000000E+03 0.  0.
         25    1    4    4    0    0  0.36705751226E+02 -0.25282155378E+02 -0.14028698952E+03  0.19316947761E+03  0.12509000000E+03 0.  0.
         25    1    4    4    0    0  0.15722727939E+02 -0.70014112320E+02 -0.27310261215E+03  0.30883931900E+03  0.12509000000E+03 0.  0.
<mgrwt>
<rscale>  2 0.45985391E+03</rscale>
<asrwt>0</asrwt>
<pdfrwt beam="1">  1       21 0.90085289E-02 0.45985391E+03</pdfrwt>
<pdfrwt beam="2">  1       21 0.12691358E+00 0.45985391E+03</pdfrwt>
<totfact> 0.40635230E+04</totfact>
</mgrwt>
</event>
<event>
 7    0  0.4737014E-002  0.4609552E+03  0.7546771E-02  0.1024505E+00
         21   -1    0    0  502  501  0.00000000000E+00  0.00000000000E+00  0.39574057856E+03  0.39574057856E+03  0.00000000000E+00 0. -1.
         21   -1    0    0  501  502 -0.00000000000E+00 -0.00000000000E+00 -0.13422917337E+03  0.13422917337E+03  0.00000000000E+00 0. -1.
      99926    2    1    2    0    0  0.00000000000E+00  0.00000000000E+00  0.26151140520E+03  0.52996975193E+03  0.46095522875E+03 0.  0.
      99925    2    3    3    0    0  0.17031225307E+02 -0.62571324100E+02  0.49628610748E+02  0.27551531609E+03  0.26313581505E+03 0.  0.
         25    1    4    4    0    0 -0.11385872242E+02 -0.25595033081E+02  0.60154425953E+02  0.14160087170E+03  0.12509000000E+03 0.  0.
         25    1    4    4    0    0  0.28417097549E+02 -0.36976291019E+02 -0.10525815204E+02  0.13391444439E+03  0.12509000000E+03 0.  0.
         25    1    3    3    0    0 -0.17031225307E+02  0.62571324100E+02  0.21188279445E+03  0.25445443584E+03  0.12509000000E+03 0.  0.
<mgrwt>
<rscale>  2 0.46095523E+03</rscale>
<asrwt>0</asrwt>
<pdfrwt beam="1">  1       21 0.58197144E-01 0.46095523E+03</pdfrwt>
<pdfrwt beam="2">  1       21 0.19739584E-01 0.46095523E+03</pdfrwt>
<totfact> 0.60310843E+04</totfact>
</mgrwt>
</event>
<event>
 7    0  0.4737014E-002  0.4456529E+03  0.7546771E-02  0.1029026E+00
         21   -1    0    0  502  501  0.00000000000E+00  0.00000000000E+00  0.86811417266E+03  0.86811417266E+03  0.00000000000E+00 0. -1.
         21   -1    0    0  501  502 -0.00000000000E+00 -0.00000000000E+00 -0.57194801770E+02  0.57194801770E+02  0.00000000000E+00 0. -1.
      99926    2    1    2    0    0  0.62172489379E-14  0.00000000000E+00  0.81091937089E+03  0.92530897443E+03  0.44565286050E+03 0.  0.
      99925    2    3    3    0    0 -0.79461194712E+01  0.97072444569E+02  0.58575064430E+03  0.64992803129E+03  0.26422798537E+03 0.  0.
         25    1    4    4    0    0  0.33530059373E+02  0.69317358017E+02  0.31100310611E+03  0.34394709057E+03  0.12509000000E+03 0.  0.
         25    1    4    4    0    0 -0.41476178844E+02  0.27755086551E+02  0.27474753819E+03  0.30598094072E+03  0.12509000000E+03 0.  0.
         25    1    3    3    0    0  0.79461194712E+01 -0.97072444569E+02  0.22516872659E+03  0.27538094314E+03  0.12509000000E+03 0.  0.
<mgrwt>
<rscale>  2 0.44565286E+03</rscale>
<asrwt>0</asrwt>
<pdfrwt beam="1">  1       21 0.12766384E+00 0.44565286E+03</pdfrwt>
<pdfrwt beam="2">  1       21 0.84110008E-02 0.44565286E+03</pdfrwt>
<totfact> 0.45385639E+04</totfact>
</mgrwt>
</event>
<event>
 7    0  0.4737014E-002  0.4592436E+03  0.7546771E-02  0.1025001E+00
         21   -1    0    0  502  501  0.00000000000E+00  0.00000000000E+00  0.23132927075E+03  0.23132927075E+03  0.00000000000E+00 0. -1.
         21   -1    0    0  501  502 -0.00000000000E+00 -0.00000000000E+00 -0.22792693604E+03  0.22792693604E+03  0.00000000000E+00 0. -1.
      99926    2    1    2    0    0 -0.88817841970E-15  0.00000000000E+00  0.34023347107E+01  0.45925620678E+03  0.45924360375E+03 0.  0.
      99925    2    3    3    0    0 -0.37502141453E+01  0.90201471787E+02 -0.72369137371E+02  0.28738650701E+03  0.26306528229E+03 0.  0.
         25    1    4    4    0    0 -0.35104056677E+02  0.43011159424E+02 -0.60244113073E+02  0.14952964887E+03  0.12509000000E+03 0.  0.
         25    1    4    4    0    0  0.31353842531E+02  0.47190312364E+02 -0.12125024298E+02  0.13785685814E+03  0.12509000000E+03 0.  0.
         25    1    3    3    0    0  0.37502141453E+01 -0.90201471787E+02  0.75771472082E+02  0.17186969977E+03  0.12509000000E+03 0.  0.
<mgrwt>
<rscale>  2 0.45924360E+03</rscale>
<asrwt>0</asrwt>
<pdfrwt beam="1">  1       21 0.34019011E-01 0.45924360E+03</pdfrwt>
<pdfrwt beam="2">  1       21 0.33518667E-01 0.45924360E+03</pdfrwt>
<totfact> 0.65972835E+04</totfact>
</mgrwt>
</event>
<event>
 7    0  0.4737014E-002  0.4563429E+03  0.7546771E-02  0.1025847E+00
         21   -1    0    0  502  501  0.00000000000E+00  0.00000000000E+00  0.17056169441E+03  0.17056169441E+03  0.00000000000E+00 0.  1.
         21   -1    0    0  501  502 -0.00000000000E+00 -0.00000000000E+00 -0.30523975696E+03  0.30523975696E+03  0.00000000000E+00 0.  1.
      99926    2    1    2    0    0 -0.14210854715E-13  0.17763568394E-14 -0.13467806254E+03  0.47580145137E+03  0.45634289805E+03 0.  0.
      99925    2    3    3    0    0 -0.11336400622E+03  0.14332100641E+02 -0.85201357301E+02  0.29930142453E+03  0.26318294858E+03 0.  0.
         25    1    3    3    0    0  0.11336400622E+03 -0.14332100641E+02 -0.49476705241E+02  0.17650002684E+03  0.12509000000E+03 0.  0.
         25    1    4    4    0    0 -0.76767734691E+02  0.21107053745E+02 -0.80470679976E+02  0.16870634618E+03  0.12509000000E+03 0.  0.
         25    1    4    4    0    0 -0.36596271528E+02 -0.67749531048E+01 -0.47306773257E+01  0.13059507834E+03  0.12509000000E+03 0.  0.
<mgrwt>
<rscale>  2 0.45634290E+03</rscale>
<asrwt>0</asrwt>
<pdfrwt beam="1">  1       21 0.25082602E-01 0.45634290E+03</pdfrwt>
<pdfrwt beam="2">  1       21 0.44888199E-01 0.45634290E+03</pdfrwt>
<totfact> 0.66297666E+04</totfact>
</mgrwt>
</event>
<event>
 7    0  0.4737014E-002  0.4413769E+03  0.7546771E-02  0.1030325E+00
         21   -1    0    0  502  501  0.00000000000E+00  0.00000000000E+00  0.65567232994E+03  0.65567232994E+03  0.00000000000E+00 0. -1.
         21   -1    0    0  501  502 -0.00000000000E+00 -0.00000000000E+00 -0.74280086524E+02  0.74280086524E+02  0.00000000000E+00 0. -1.
      99926    2    1    2    0    0  0.71054273576E-14  0.17763568394E-14  0.58139224342E+03  0.72995241647E+03  0.44137692463E+03 0.  0.
      99925    2    3    3    0    0 -0.39585788102E+02 -0.83230679739E+01  0.21980970584E+03  0.34521127276E+03  0.26309353466E+03 0.  0.
         25    1    4    4    0    0  0.89335288519E+00 -0.19634691334E+02  0.14870170883E+03  0.19531007524E+03  0.12509000000E+03 0.  0.
         25    1    3    3    0    0  0.39585788102E+02  0.83230679739E+01  0.36158253757E+03  0.38474114370E+03  0.12509000000E+03 0.  0.
         25    1    4    4    0    0 -0.40479140987E+02  0.11311623360E+02  0.71107997015E+02  0.14990119752E+03  0.12509000000E+03 0.  0.
<mgrwt>
<rscale>  2 0.44137692E+03</rscale>
<asrwt>0</asrwt>
<pdfrwt beam="1">  1       21 0.96422398E-01 0.44137692E+03</pdfrwt>
<pdfrwt beam="2">  1       21 0.10923542E-01 0.44137692E+03</pdfrwt>
<totfact> 0.57191506E+04</totfact>
</mgrwt>
</event>
<event>
 7    0  0.4737014E-002  0.4444293E+03  0.7546771E-02  0.1029396E+00
         21   -1    0    0  502  501  0.00000000000E+00  0.00000000000E+00  0.41391267885E+02  0.41391267885E+02  0.00000000000E+00 0.  1.
         21   -1    0    0  501  502 -0.00000000000E+00 -0.00000000000E+00 -0.11929897632E+04  0.11929897632E+04  0.00000000000E+00 0.  1.
      99926    2    1    2    0    0  0.00000000000E+00  0.00000000000E+00 -0.11515984953E+04  0.12343810311E+04  0.44442933690E+03 0.  0.
      99925    2    3    3    0    0  0.53997738159E+02 -0.68609061346E+02 -0.57926342164E+03  0.64206531824E+03  0.26282846538E+03 0.  0.
         25    1    3    3    0    0 -0.53997738159E+02  0.68609061346E+02 -0.57233507369E+03  0.59231571286E+03  0.12509000000E+03 0.  0.
         25    1    4    4    0    0  0.12228200643E+01 -0.20020677631E+02 -0.20504511969E+03  0.24102558376E+03  0.12509000000E+03 0.  0.
         25    1    4    4    0    0  0.52774918095E+02 -0.48588383715E+02 -0.37421830195E+03  0.40103973448E+03  0.12509000000E+03 0.  0.
<mgrwt>
<rscale>  2 0.44442934E+03</rscale>
<asrwt>0</asrwt>
<pdfrwt beam="1">  1       21 0.60869518E-02 0.44442934E+03</pdfrwt>
<pdfrwt beam="2">  1       21 0.17543965E+00 0.44442934E+03</pdfrwt>
<totfact> 0.33776609E+04</totfact>
</mgrwt>
</event>
<event>
 7    0  0.4737014E-002  0.4606655E+03  0.7546771E-02  0.1024588E+00
         21   -1    0    0  502  501  0.00000000000E+00  0.00000000000E+00  0.10738528187E+04  0.10738528187E+04  0.00000000000E+00 0. -1.
         21   -1    0    0  501  502 -0.00000000000E+00 -0.00000000000E+00 -0.49404521995E+02  0.49404521995E+02  0.00000000000E+00 0. -1.
      99926    2    1    2    0    0  0.14210854715E-13  0.00000000000E+00  0.10244482968E+04  0.11232573407E+04  0.46066554116E+03 0.  0.
      99925    2    3    3    0    0  0.93071320311E+02 -0.17749347923E+02  0.81531938514E+03  0.86180042309E+03  0.26263465011E+03 0.  0.
         25    1    4    4    0    0  0.41411418045E+02  0.30215533657E+02  0.41932642330E+03  0.44057921126E+03  0.12509000000E+03 0.  0.
         25    1    3    3    0    0 -0.93071320311E+02  0.17749347923E+02  0.20912891161E+03  0.26145691765E+03  0.12509000000E+03 0.  0.
         25    1    4    4    0    0  0.51659902266E+02 -0.47964881580E+02  0.39599296184E+03  0.42122121183E+03  0.12509000000E+03 0.  0.
<mgrwt>
<rscale>  2 0.46066554E+03</rscale>
<asrwt>0</asrwt>
<pdfrwt beam="1">  1       21 0.15791952E+00 0.46066554E+03</pdfrwt>
<pdfrwt beam="2">  1       21 0.72653716E-02 0.46066554E+03</pdfrwt>
<totfact> 0.33197218E+04</totfact>
</mgrwt>
</event>
<event>
 7    0  0.4737014E-002  0.4532105E+03  0.7546771E-02  0.1026769E+00
         21   -1    0    0  502  501  0.00000000000E+00  0.00000000000E+00  0.52488886811E+03  0.52488886811E+03  0.00000000000E+00 0. -1.
         21   -1    0    0  501  502 -0.00000000000E+00 -0.00000000000E+00 -0.97830099137E+02  0.97830099137E+02  0.00000000000E+00 0. -1.
      99926    2    1    2    0    0  0.00000000000E+00 -0.17763568394E-14  0.42705876897E+03  0.62271896724E+03  0.45321045885E+03 0.  0.
      99925    2    3    3    0    0  0.36634751865E+02 -0.13850495714E+02  0.41291154839E+03  0.49087969682E+03  0.26255092588E+03 0.  0.
         25    1    4    4    0    0 -0.10463997838E+02  0.44116864355E+01  0.15222381699E+03  0.19735388718E+03  0.12509000000E+03 0.  0.
         25    1    4    4    0    0  0.47098749703E+02 -0.18262182149E+02  0.26068773140E+03  0.29352580964E+03  0.12509000000E+03 0.  0.
         25    1    3    3    0    0 -0.36634751865E+02  0.13850495714E+02  0.14147220582E+02  0.13183927042E+03  0.12509000000E+03 0.  0.
<mgrwt>
<rscale>  2 0.45321046E+03</rscale>
<asrwt>0</asrwt>
<pdfrwt beam="1">  1       21 0.77189538E-01 0.45321046E+03</pdfrwt>
<pdfrwt beam="2">  1       21 0.14386780E-01 0.45321046E+03</pdfrwt>
<totfact> 0.58118057E+04</totfact>
</mgrwt>
</event>
<event>
 7    0  0.4737014E-002  0.4523198E+03  0.7546771E-02  0.1027033E+00
         21   -1    0    0  502  501  0.00000000000E+00  0.00000000000E+00  0.82366246923E+02  0.82366246923E+02  0.00000000000E+00 0. -1.
         21   -1    0    0  501  502 -0.00000000000E+00 -0.00000000000E+00 -0.62098606799E+03  0.62098606799E+03  0.00000000000E+00 0. -1.
      99926    2    1    2    0    0 -0.35527136788E-14  0.00000000000E+00 -0.53861982106E+03  0.70335231491E+03  0.45231976217E+03 0.  0.
      99925    2    3    3    0    0 -0.31113784743E+00 -0.80098244099E+02 -0.45844685300E+03  0.53455942874E+03  0.26299133124E+03 0.  0.
         25    1    4    4    0    0  0.32930709064E+02 -0.43359164346E+02 -0.18563486356E+03  0.23037417260E+03  0.12509000000E+03 0.  0.
         25    1    4    4    0    0 -0.33241846911E+02 -0.36739079753E+02 -0.27281198945E+03  0.30418525614E+03  0.12509000000E+03 0.  0.
         25    1    3    3    0    0  0.31113784743E+00  0.80098244099E+02 -0.80172968059E+02  0.16879288617E+03  0.12509000000E+03 0.  0.
<mgrwt>
<rscale>  2 0.45231976E+03</rscale>
<asrwt>0</asrwt>
<pdfrwt beam="1">  1       21 0.12112684E-01 0.45231976E+03</pdfrwt>
<pdfrwt beam="2">  1       21 0.91321479E-01 0.45231976E+03</pdfrwt>
<totfact> 0.53848069E+04</totfact>
</mgrwt>
</event>
<event>
 7    0  0.4737014E-002  0.4539150E+03  0.7546771E-02  0.1026561E+00
         21   -1    0    0  502  501  0.00000000000E+00  0.00000000000E+00  0.29130246528E+03  0.29130246528E+03  0.00000000000E+00 0. -1.
         21   -1    0    0  501  502 -0.00000000000E+00 -0.00000000000E+00 -0.17682548728E+03  0.17682548728E+03  0.00000000000E+00 0. -1.
      99926    2    1    2    0    0  0.71054273576E-14  0.00000000000E+00  0.11447697800E+03  0.46812795255E+03  0.45391497163E+03 0.  0.
      99925    2    3    3    0    0  0.46126927538E+02  0.24968181334E+02 -0.30019178693E+02  0.26994180036E+03  0.26308994843E+03 0.  0.
         25    1    4    4    0    0  0.33206330166E+02  0.38498005525E+02 -0.45567492582E+02  0.14250846036E+03  0.12509000000E+03 0.  0.
         25    1    4    4    0    0  0.12920597372E+02 -0.13529824192E+02  0.15548313890E+02  0.12743334000E+03  0.12509000000E+03 0.  0.
         25    1    3    3    0    0 -0.46126927538E+02 -0.24968181334E+02  0.14449615669E+03  0.19818615220E+03  0.12509000000E+03 0.  0.
<mgrwt>
<rscale>  2 0.45391497E+03</rscale>
<asrwt>0</asrwt>
<pdfrwt beam="1">  1       21 0.42838598E-01 0.45391497E+03</pdfrwt>
<pdfrwt beam="2">  1       21 0.26003748E-01 0.45391497E+03</pdfrwt>
<totfact> 0.68160019E+04</totfact>
</mgrwt>
</event>
<event>
 7    0  0.4737014E-002  0.4612108E+03  0.7546771E-02  0.1024431E+00
         21   -1    0    0  502  501  0.00000000000E+00  0.00000000000E+00  0.87744815278E+03  0.87744815278E+03  0.00000000000E+00 0.  1.
         21   -1    0    0  501  502 -0.00000000000E+00 -0.00000000000E+00 -0.60606263788E+02  0.60606263788E+02  0.00000000000E+00 0.  1.
      99926    2    1    2    0    0 -0.17763568394E-14  0.00000000000E+00  0.81684188899E+03  0.93805441657E+03  0.46121081604E+03 0.  0.
      99925    2    3    3    0    0  0.15334527243E+02  0.78202518057E+02  0.69016079643E+03  0.74299958103E+03  0.26339261743E+03 0.  0.
         25    1    4    4    0    0  0.80381091786E+01  0.29923680793E+02  0.44722196577E+03  0.46541920097E+03  0.12509000000E+03 0.  0.
         25    1    4    4    0    0  0.72964180642E+01  0.48278837264E+02  0.24293883067E+03  0.27758038005E+03  0.12509000000E+03 0.  0.
         25    1    3    3    0    0 -0.15334527243E+02 -0.78202518057E+02  0.12668109256E+03  0.19505483554E+03  0.12509000000E+03 0.  0.
<mgrwt>
<rscale>  2 0.46121082E+03</rscale>
<asrwt>0</asrwt>
<pdfrwt beam="1">  1       21 0.12903649E+00 0.46121082E+03</pdfrwt>
<pdfrwt beam="2">  1       21 0.89126864E-02 0.46121082E+03</pdfrwt>
<totfact> 0.39666187E+04</totfact>
</mgrwt>
</event>
<event>
 7    0  0.4737014E-002  0.4151994E+03  0.7546771E-02  0.1038640E+00
         21   -1    0    0  502  501  0.00000000000E+00  0.00000000000E+00  0.59914796470E+02  0.59914796470E+02  0.00000000000E+00 0. -1.
         21   -1    0    0  501  502 -0.00000000000E+00 -0.00000000000E+00 -0.71931556589E+03  0.71931556589E+03  0.00000000000E+00 0. -1.
      99926    2    1    2    0    0  0.00000000000E+00 -0.35527136788E-14 -0.65940076942E+03  0.77923036236E+03  0.41519944956E+03 0.  0.
      99925    2    3    3    0    0 -0.19378512968E+02  0.26538424928E+02 -0.31614369191E+03  0.41241604404E+03  0.26279334977E+03 0.  0.
         25    1    3    3    0    0  0.19378512968E+02 -0.26538424928E+02 -0.34325707751E+03  0.36681431832E+03  0.12509000000E+03 0.  0.
         25    1    4    4    0    0 -0.42123971430E+02  0.26104260362E+02 -0.13074682192E+03  0.18761156926E+03  0.12509000000E+03 0.  0.
         25    1    4    4    0    0  0.22745458462E+02  0.43416456661E+00 -0.18539686999E+03  0.22480447478E+03  0.12509000000E+03 0.  0.
<mgrwt>
<rscale>  2 0.41519945E+03</rscale>
<asrwt>0</asrwt>
<pdfrwt beam="1">  1       21 0.88110005E-02 0.41519945E+03</pdfrwt>
<pdfrwt beam="2">  1       21 0.10578169E+00 0.41519945E+03</pdfrwt>
<totfact> 0.67542383E+04</totfact>
</mgrwt>
</event>
<event>
 7    0  0.4737014E-002  0.4616239E+03  0.7546771E-02  0.1024311E+00
         21   -1    0    0  502  501  0.00000000000E+00  0.00000000000E+00  0.11404936269E+03  0.11404936269E+03  0.00000000000E+00 0.  1.
         21   -1    0    0  501  502 -0.00000000000E+00 -0.00000000000E+00 -0.46711487835E+03  0.46711487835E+03  0.00000000000E+00 0.  1.
      99926    2    1    2    0    0  0.71054273576E-14  0.00000000000E+00 -0.35306551566E+03  0.58116424103E+03  0.46162389097E+03 0.  0.
      99925    2    3    3    0    0 -0.55864128369E+02  0.62954293488E+02 -0.11451250341E+03  0.29896025159E+03  0.26302105369E+03 0.  0.
         25    1    4    4    0    0 -0.54545660995E+02  0.11586667546E+02 -0.32351579930E+02  0.14072530981E+03  0.12509000000E+03 0.  0.
         25    1    3    3    0    0  0.55864128369E+02 -0.62954293488E+02 -0.23855301225E+03  0.28220398945E+03  0.12509000000E+03 0.  0.
         25    1    4    4    0    0 -0.13184673735E+01  0.51367625942E+02 -0.82160923481E+02  0.15823494177E+03  0.12509000000E+03 0.  0.
<mgrwt>
<rscale>  2 0.46162389E+03</rscale>
<asrwt>0</asrwt>
<pdfrwt beam="1">  1       21 0.16771965E-01 0.46162389E+03</pdfrwt>
<pdfrwt beam="2">  1       21 0.68693365E-01 0.46162389E+03</pdfrwt>
<totfact> 0.56818561E+04</totfact>
</mgrwt>
</event>
<event>
 7    0  0.4737014E-002  0.4498529E+03  0.7546771E-02  0.1027766E+00
         21   -1    0    0  502  501  0.00000000000E+00  0.00000000000E+00  0.31471638250E+03  0.31471638250E+03  0.00000000000E+00 0. -1.
         21   -1    0    0  501  502 -0.00000000000E+00 -0.00000000000E+00 -0.16075400241E+03  0.16075400241E+03  0.00000000000E+00 0. -1.
      99926    2    1    2    0    0  0.00000000000E+00  0.00000000000E+00  0.15396238009E+03  0.47547038491E+03  0.44985294535E+03 0.  0.
      99925    2    3    3    0    0  0.63241433113E+02  0.87879454538E+02  0.98006032762E+02  0.30082532114E+03  0.26299888591E+03 0.  0.
         25    1    4    4    0    0  0.49952175262E+02  0.40646381330E+02  0.11817380646E+02  0.14118961263E+03  0.12509000000E+03 0.  0.
         25    1    4    4    0    0  0.13289257851E+02  0.47233073208E+02  0.86188652116E+02  0.15963570851E+03  0.12509000000E+03 0.  0.
         25    1    3    3    0    0 -0.63241433113E+02 -0.87879454538E+02  0.55956347330E+02  0.17464506377E+03  0.12509000000E+03 0.  0.
<mgrwt>
<rscale>  2 0.44985295E+03</rscale>
<asrwt>0</asrwt>
<pdfrwt beam="1">  1       21 0.46281821E-01 0.44985295E+03</pdfrwt>
<pdfrwt beam="2">  1       21 0.23640295E-01 0.44985295E+03</pdfrwt>
<totfact> 0.69841177E+04</totfact>
</mgrwt>
</event>
<event>
 7    0  0.4737014E-002  0.4527248E+03  0.7546771E-02  0.1026913E+00
         21   -1    0    0  502  501  0.00000000000E+00  0.00000000000E+00  0.93567866033E+02  0.93567866033E+02  0.00000000000E+00 0. -1.
         21   -1    0    0  501  502 -0.00000000000E+00 -0.00000000000E+00 -0.54762320067E+03  0.54762320067E+03  0.00000000000E+00 0. -1.
      99926    2    1    2    0    0  0.00000000000E+00  0.00000000000E+00 -0.45405533464E+03  0.64119106670E+03  0.45272479180E+03 0.  0.
      99925    2    3    3    0    0  0.38399484553E+02  0.99892837636E+02 -0.32830518121E+03  0.43403482467E+03  0.26296166564E+03 0.  0.
         25    1    3    3    0    0 -0.38399484553E+02 -0.99892837636E+02 -0.12575015343E+03  0.20715624203E+03  0.12509000000E+03 0.  0.
         25    1    4    4    0    0  0.19042386462E+02  0.90883729804E+02 -0.16081194569E+03  0.22389831353E+03  0.12509000000E+03 0.  0.
         25    1    4    4    0    0  0.19357098090E+02  0.90091078318E+01 -0.16749323552E+03  0.21013651114E+03  0.12509000000E+03 0.  0.
<mgrwt>
<rscale>  2 0.45272479E+03</rscale>
<asrwt>0</asrwt>
<pdfrwt beam="1">  1       21 0.13759981E-01 0.45272479E+03</pdfrwt>
<pdfrwt beam="2">  1       21 0.80532820E-01 0.45272479E+03</pdfrwt>
<totfact> 0.57232489E+04</totfact>
</mgrwt>
</event>
<event>
 7    0  0.4737014E-002  0.4505736E+03  0.7546771E-02  0.1027551E+00
         21   -1    0    0  502  501  0.00000000000E+00  0.00000000000E+00  0.59223885011E+02  0.59223885011E+02  0.00000000000E+00 0.  1.
         21   -1    0    0  501  502 -0.00000000000E+00 -0.00000000000E+00 -0.85698754120E+03  0.85698754120E+03  0.00000000000E+00 0.  1.
      99926    2    1    2    0    0  0.14210854715E-13 -0.71054273576E-14 -0.79776365619E+03  0.91621142621E+03  0.45057355269E+03 0.  0.
      99925    2    3    3    0    0  0.97473196102E+02 -0.36215590252E+02 -0.43826640834E+03  0.52162509567E+03  0.26306406600E+03 0.  0.
         25    1    4    4    0    0  0.34923075965E+02 -0.47850297230E+02 -0.26201673289E+03  0.29632675983E+03  0.12509000000E+03 0.  0.
         25    1    3    3    0    0 -0.97473196102E+02  0.36215590252E+02 -0.35949724785E+03  0.39458633054E+03  0.12509000000E+03 0.  0.
         25    1    4    4    0    0  0.62550120137E+02  0.11634706978E+02 -0.17624967545E+03  0.22529833584E+03  0.12509000000E+03 0.  0.
<mgrwt>
<rscale>  2 0.45057355E+03</rscale>
<asrwt>0</asrwt>
<pdfrwt beam="1">  1       21 0.87093955E-02 0.45057355E+03</pdfrwt>
<pdfrwt beam="2">  1       21 0.12602757E+00 0.45057355E+03</pdfrwt>
<totfact> 0.44045749E+04</totfact>
</mgrwt>
</event>
<event>
 7    0  0.4737014E-002  0.4317014E+03  0.7546771E-02  0.1033324E+00
         21   -1    0    0  502  501  0.00000000000E+00  0.00000000000E+00  0.52698078572E+03  0.52698078572E+03  0.00000000000E+00 0. -1.
         21   -1    0    0  501  502 -0.00000000000E+00 -0.00000000000E+00 -0.88412185045E+02  0.88412185045E+02  0.00000000000E+00 0. -1.
      99926    2    1    2    0    0  0.00000000000E+00  0.00000000000E+00  0.43856860067E+03  0.61539297076E+03  0.43170139097E+03 0.  0.
      99925    2    3    3    0    0  0.47414881492E+02  0.63297527615E+02  0.22257542235E+03  0.35356228278E+03  0.26308120643E+03 0.  0.
         25    1    3    3    0    0 -0.47414881492E+02 -0.63297527615E+02  0.21599317832E+03  0.26183068799E+03  0.12509000000E+03 0.  0.
         25    1    4    4    0    0  0.50598115626E+02  0.34210169029E+02  0.75792267830E+02  0.15850072849E+03  0.12509000000E+03 0.  0.
         25    1    4    4    0    0 -0.31832341332E+01  0.29087358585E+02  0.14678315452E+03  0.19506155428E+03  0.12509000000E+03 0.  0.
<mgrwt>
<rscale>  2 0.43170139E+03</rscale>
<asrwt>0</asrwt>
<pdfrwt beam="1">  1       21 0.77497173E-01 0.43170139E+03</pdfrwt>
<pdfrwt beam="2">  1       21 0.13001792E-01 0.43170139E+03</pdfrwt>
<totfact> 0.69706914E+04</totfact>
</mgrwt>
</event>
<event>
 7    0  0.4737014E-002  0.4631692E+03  0.7546771E-02  0.1023866E+00
         21   -1    0    0  502  501  0.00000000000E+00  0.00000000000E+00  0.43980020037E+03  0.43980020037E+03  0.00000000000E+00 0.  1.
         21   -1    0    0  501  502 -0.00000000000E+00 -0.00000000000E+00 -0.12194500212E+03  0.12194500212E+03  0.00000000000E+00 0.  1.
      99926    2    1    2    0    0  0.00000000000E+00  0.00000000000E+00  0.31785519825E+03  0.56174520250E+03  0.46316924064E+03 0.  0.
      99925    2    3    3    0    0 -0.22458376822E+02  0.10301899112E+03  0.12752526512E+03  0.31076655247E+03  0.26305107046E+03 0.  0.
         25    1    4    4    0    0 -0.95828453872E+01  0.12859169461E+02  0.78071420140E+02  0.14832344355E+03  0.12509000000E+03 0.  0.
         25    1    4    4    0    0 -0.12875531435E+02  0.90159821663E+02  0.49453844977E+02  0.16244310892E+03  0.12509000000E+03 0.  0.
         25    1    3    3    0    0  0.22458376822E+02 -0.10301899112E+03  0.19032993313E+03  0.25097865002E+03  0.12509000000E+03 0.  0.
<mgrwt>
<rscale>  2 0.46316924E+03</rscale>
<asrwt>0</asrwt>
<pdfrwt beam="1">  1       21 0.64676500E-01 0.46316924E+03</pdfrwt>
<pdfrwt beam="2">  1       21 0.17933089E-01 0.46316924E+03</pdfrwt>
<totfact> 0.57303507E+04</totfact>
</mgrwt>
</event>
<event>
 7    0  0.4737014E-002  0.4577792E+03  0.7546771E-02  0.1025427E+00
         21   -1    0    0  502  501  0.00000000000E+00  0.00000000000E+00  0.11623772182E+03  0.11623772182E+03  0.00000000000E+00 0.  1.
         21   -1    0    0  501  502 -0.00000000000E+00 -0.00000000000E+00 -0.45071807413E+03  0.45071807413E+03  0.00000000000E+00 0.  1.
      99926    2    1    2    0    0  0.00000000000E+00  0.00000000000E+00 -0.33448035231E+03  0.56695579594E+03  0.45777916998E+03 0.  0.
      99925    2    3    3    0    0  0.37482932865E+02  0.18099582052E+02 -0.76199794770E+02  0.27697490066E+03  0.26301353909E+03 0.  0.
         25    1    4    4    0    0  0.49550420232E+02  0.19797197042E+02 -0.65186731443E+02  0.15081111104E+03  0.12509000000E+03 0.  0.
         25    1    3    3    0    0 -0.37482932865E+02 -0.18099582052E+02 -0.25828055754E+03  0.28998089528E+03  0.12509000000E+03 0.  0.
         25    1    4    4    0    0 -0.12067487367E+02 -0.16976149904E+01 -0.11013063327E+02  0.12616378962E+03  0.12509000000E+03 0.  0.
<mgrwt>
<rscale>  2 0.45777917E+03</rscale>
<asrwt>0</asrwt>
<pdfrwt beam="1">  1       21 0.17093783E-01 0.45777917E+03</pdfrwt>
<pdfrwt beam="2">  1       21 0.66282068E-01 0.45777917E+03</pdfrwt>
<totfact> 0.59442465E+04</totfact>
</mgrwt>
</event>
<event>
 7    0  0.4737014E-002  0.4358059E+03  0.7546771E-02  0.1032041E+00
         21   -1    0    0  502  501  0.00000000000E+00  0.00000000000E+00  0.82328355743E+03  0.82328355743E+03  0.00000000000E+00 0. -1.
         21   -1    0    0  501  502 -0.00000000000E+00 -0.00000000000E+00 -0.57673557375E+02  0.57673557375E+02  0.00000000000E+00 0. -1.
      99926    2    1    2    0    0  0.00000000000E+00  0.00000000000E+00  0.76561000005E+03  0.88095711480E+03  0.43580588103E+03 0.  0.
      99925    2    3    3    0    0 -0.52998877441E+01 -0.73186695124E+02  0.60959140766E+03  0.66794610470E+03  0.26299416978E+03 0.  0.
         25    1    3    3    0    0  0.52998877441E+01  0.73186695124E+02  0.15601859239E+03  0.21301101010E+03  0.12509000000E+03 0.  0.
         25    1    4    4    0    0 -0.16548717701E+01 -0.29909683632E+00  0.23285389708E+03  0.26433174903E+03  0.12509000000E+03 0.  0.
         25    1    4    4    0    0 -0.36450159740E+01 -0.72887598288E+02  0.37673751058E+03  0.40361435567E+03  0.12509000000E+03 0.  0.
<mgrwt>
<rscale>  2 0.43580588E+03</rscale>
<asrwt>0</asrwt>
<pdfrwt beam="1">  1       21 0.12107110E+00 0.43580588E+03</pdfrwt>
<pdfrwt beam="2">  1       21 0.84814060E-02 0.43580588E+03</pdfrwt>
<totfact> 0.51361548E+04</totfact>
</mgrwt>
</event>
<event>
 7    0  0.4737014E-002  0.4956552E+03  0.7546771E-02  0.1014919E+00
         21   -1    0    0  502  501  0.00000000000E+00  0.00000000000E+00  0.54029669477E+03  0.54029669477E+03  0.00000000000E+00 0. -1.
         21   -1    0    0  501  502 -0.00000000000E+00 -0.00000000000E+00 -0.11367554125E+03  0.11367554125E+03  0.00000000000E+00 0. -1.
      99926    2    1    2    0    0  0.00000000000E+00  0.00000000000E+00  0.42662115353E+03  0.65397223602E+03  0.49565519955E+03 0.  0.
      99925    2    3    3    0    0  0.11387166398E+03  0.41105692833E+02  0.14794938755E+03  0.32539668140E+03  0.26332023308E+03 0.  0.
         25    1    4    4    0    0  0.77641932588E+02 -0.62125357046E+01  0.49606676647E+02  0.15548374759E+03  0.12509000000E+03 0.  0.
         25    1    3    3    0    0 -0.11387166398E+03 -0.41105692833E+02  0.27867176597E+03  0.32857555462E+03  0.12509000000E+03 0.  0.
         25    1    4    4    0    0  0.36229731393E+02  0.47318228537E+02  0.98342710908E+02  0.16991293381E+03  0.12509000000E+03 0.  0.
<mgrwt>
<rscale>  2 0.49565520E+03</rscale>
<asrwt>0</asrwt>
<pdfrwt beam="1">  1       21 0.79455395E-01 0.49565520E+03</pdfrwt>
<pdfrwt beam="2">  1       21 0.16716992E-01 0.49565520E+03</pdfrwt>
<totfact> 0.40743472E+04</totfact>
</mgrwt>
</event>
<event>
 7    0  0.4737014E-002  0.4558074E+03  0.7546771E-02  0.1026004E+00
         21   -1    0    0  502  501  0.00000000000E+00  0.00000000000E+00  0.12604243593E+04  0.12604243593E+04  0.00000000000E+00 0.  1.
         21   -1    0    0  501  502 -0.00000000000E+00 -0.00000000000E+00 -0.41208415534E+02  0.41208415534E+02  0.00000000000E+00 0.  1.
      99926    2    1    2    0    0  0.35527136788E-14  0.00000000000E+00  0.12192159438E+04  0.13016327748E+04  0.45580737487E+03 0.  0.
      99925    2    3    3    0    0  0.27532691637E+02 -0.10417708372E+03  0.87233634906E+03  0.91746630675E+03  0.26298822072E+03 0.  0.
         25    1    4    4    0    0  0.20251520939E+02 -0.14539401609E+02  0.45741776543E+03  0.47486844340E+03  0.12509000000E+03 0.  0.
         25    1    3    3    0    0 -0.27532691637E+02  0.10417708372E+03  0.34687959470E+03  0.38416646808E+03  0.12509000000E+03 0.  0.
         25    1    4    4    0    0  0.72811706978E+01 -0.89637682110E+02  0.41491858363E+03  0.44259786335E+03  0.12509000000E+03 0.  0.
<mgrwt>
<rscale>  2 0.45580737E+03</rscale>
<asrwt>0</asrwt>
<pdfrwt beam="1">  1       21 0.18535650E+00 0.45580737E+03</pdfrwt>
<pdfrwt beam="2">  1       21 0.60600619E-02 0.45580737E+03</pdfrwt>
<totfact> 0.28885509E+04</totfact>
</mgrwt>
</event>
<event>
 7    0  0.4737014E-002  0.4572137E+03  0.7546771E-02  0.1025592E+00
         21   -1    0    0  502  501  0.00000000000E+00  0.00000000000E+00  0.10269020260E+04  0.10269020260E+04  0.00000000000E+00 0. -1.
         21   -1    0    0  501  502 -0.00000000000E+00 -0.00000000000E+00 -0.50891990622E+02  0.50891990622E+02  0.00000000000E+00 0. -1.
      99926    2    1    2    0    0  0.14210854715E-13  0.71054273576E-14  0.97601003534E+03  0.10777940166E+04  0.45721368429E+03 0.  0.
      99925    2    3    3    0    0  0.79930312794E+02  0.32801052196E+02  0.43415712433E+03  0.51501799613E+03  0.26322303053E+03 0.  0.
         25    1    4    4    0    0  0.66262743632E+02 -0.66189700904E+01  0.26526732269E+03  0.30074710729E+03  0.12509000000E+03 0.  0.
         25    1    4    4    0    0  0.13667569162E+02  0.39420022286E+02  0.16888980164E+03  0.21427088883E+03  0.12509000000E+03 0.  0.
         25    1    3    3    0    0 -0.79930312794E+02 -0.32801052196E+02  0.54185291102E+03  0.56277602046E+03  0.12509000000E+03 0.  0.
<mgrwt>
<rscale>  2 0.45721368E+03</rscale>
<asrwt>0</asrwt>
<pdfrwt beam="1">  1       21 0.15101499E+00 0.45721368E+03</pdfrwt>
<pdfrwt beam="2">  1       21 0.74841169E-02 0.45721368E+03</pdfrwt>
<totfact> 0.35653929E+04</totfact>
</mgrwt>
</event>
<event>
 7    0  0.4737014E-002  0.4493679E+03  0.7546771E-02  0.1027911E+00
         21   -1    0    0  502  501  0.00000000000E+00  0.00000000000E+00  0.54799662672E+03  0.54799662672E+03  0.00000000000E+00 0. -1.
         21   -1    0    0  501  502 -0.00000000000E+00 -0.00000000000E+00 -0.92122603181E+02  0.92122603181E+02  0.00000000000E+00 0. -1.
      99926    2    1    2    0    0 -0.35527136788E-14 -0.14210854715E-13  0.45587402354E+03  0.64011922990E+03  0.44936789288E+03 0.  0.
      99925    2    3    3    0    0  0.23807029277E+02  0.93479672077E+02  0.22000426165E+03  0.35624024793E+03  0.26305895796E+03 0.  0.
         25    1    4    4    0    0 -0.17633349493E+02  0.70511467971E+02  0.94383491222E+02  0.17273839656E+03  0.12509000000E+03 0.  0.
         25    1    4    4    0    0  0.41440378770E+02  0.22968204106E+02  0.12562077043E+03  0.18350185137E+03  0.12509000000E+03 0.  0.
         25    1    3    3    0    0 -0.23807029277E+02 -0.93479672077E+02  0.23586976188E+03  0.28387898197E+03  0.12509000000E+03 0.  0.
<mgrwt>
<rscale>  2 0.44936789E+03</rscale>
<asrwt>0</asrwt>
<pdfrwt beam="1">  1       21 0.80587738E-01 0.44936789E+03</pdfrwt>
<pdfrwt beam="2">  1       21 0.13547442E-01 0.44936789E+03</pdfrwt>
<totfact> 0.58846411E+04</totfact>
</mgrwt>
</event>
<event>
 7    0  0.4737014E-002  0.4035867E+03  0.7546771E-02  0.1042545E+00
         21   -1    0    0  502  501  0.00000000000E+00  0.00000000000E+00  0.41063590021E+03  0.41063590021E+03  0.00000000000E+00 0. -1.
         21   -1    0    0  501  502 -0.00000000000E+00 -0.00000000000E+00 -0.99164605482E+02  0.99164605482E+02  0.00000000000E+00 0. -1.
      99926    2    1    2    0    0 -0.44408920985E-15  0.71054273576E-14  0.31147129473E+03  0.50980050569E+03  0.40358665509E+03 0.  0.
      99925    2    3    3    0    0  0.34498998463E+01 -0.50136779680E+02  0.22442361050E+03  0.34933117556E+03  0.26294622031E+03 0.  0.
         25    1    4    4    0    0 -0.21211854080E+02 -0.58827012200E+02  0.11351576211E+03  0.18012189335E+03  0.12509000000E+03 0.  0.
         25    1    4    4    0    0  0.24661753927E+02  0.86902325197E+01  0.11090784839E+03  0.16920928220E+03  0.12509000000E+03 0.  0.
         25    1    3    3    0    0 -0.34498998463E+01  0.50136779680E+02  0.87047684226E+02  0.16046933014E+03  0.12509000000E+03 0.  0.
<mgrwt>
<rscale>  2 0.40358666E+03</rscale>
<asrwt>0</asrwt>
<pdfrwt beam="1">  1       21 0.60387632E-01 0.40358666E+03</pdfrwt>
<pdfrwt beam="2">  1       21 0.14583030E-01 0.40358666E+03</pdfrwt>
<totfact> 0.99260117E+04</totfact>
</mgrwt>
</event>
<event>
 7    0  0.4737014E-002  0.4582648E+03  0.7546771E-02  0.1025286E+00
         21   -1    0    0  502  501  0.00000000000E+00  0.00000000000E+00  0.62432662674E+02  0.62432662674E+02  0.00000000000E+00 0.  1.
         21   -1    0    0  501  502 -0.00000000000E+00 -0.00000000000E+00 -0.84093255108E+03  0.84093255108E+03  0.00000000000E+00 0.  1.
      99926    2    1    2    0    0 -0.35527136788E-14  0.00000000000E+00 -0.77849988840E+03  0.90336521375E+03  0.45826480682E+03 0.  0.
      99925    2    3    3    0    0  0.19176206469E+02 -0.10439561829E+03 -0.39553218501E+03  0.48673835197E+03  0.26306337999E+03 0.  0.
         25    1    4    4    0    0  0.15953286778E+01 -0.37221160974E+02 -0.12509100902E+03  0.18078503405E+03  0.12509000000E+03 0.  0.
         25    1    3    3    0    0 -0.19176206469E+02  0.10439561829E+03 -0.38296770339E+03  0.41662686178E+03  0.12509000000E+03 0.  0.
         25    1    4    4    0    0  0.17580877791E+02 -0.67174457316E+02 -0.27044117599E+03  0.30595331792E+03  0.12509000000E+03 0.  0.
<mgrwt>
<rscale>  2 0.45826481E+03</rscale>
<asrwt>0</asrwt>
<pdfrwt beam="1">  1       21 0.91812740E-02 0.45826481E+03</pdfrwt>
<pdfrwt beam="2">  1       21 0.12366655E+00 0.45826481E+03</pdfrwt>
<totfact> 0.42004519E+04</totfact>
</mgrwt>
</event>
<event>
 7    0  0.4737014E-002  0.4455782E+03  0.7546771E-02  0.1029049E+00
         21   -1    0    0  502  501  0.00000000000E+00  0.00000000000E+00  0.41776762356E+02  0.41776762356E+02  0.00000000000E+00 0.  1.
         21   -1    0    0  501  502 -0.00000000000E+00 -0.00000000000E+00 -0.11881004958E+04  0.11881004958E+04  0.00000000000E+00 0.  1.
      99926    2    1    2    0    0  0.14210854715E-13  0.00000000000E+00 -0.11463237334E+04  0.12298772581E+04  0.44557824034E+03 0.  0.
      99925    2    3    3    0    0  0.72035199853E+02 -0.74400731952E+02 -0.75560447964E+03  0.80675365644E+03  0.26303762772E+03 0.  0.
         25    1    4    4    0    0 -0.31741521756E+01 -0.39988675863E+02 -0.31357290109E+03  0.33997741372E+03  0.12509000000E+03 0.  0.
         25    1    4    4    0    0  0.75209352029E+02 -0.34412056089E+02 -0.44203157855E+03  0.46677624273E+03  0.12509000000E+03 0.  0.
         25    1    3    3    0    0 -0.72035199853E+02  0.74400731952E+02 -0.39071925378E+03  0.42312360169E+03  0.12509000000E+03 0.  0.
<mgrwt>
<rscale>  2 0.44557824E+03</rscale>
<asrwt>0</asrwt>
<pdfrwt beam="1">  1       21 0.61436424E-02 0.44557824E+03</pdfrwt>
<pdfrwt beam="2">  1       21 0.17472064E+00 0.44557824E+03</pdfrwt>
<totfact> 0.33620533E+04</totfact>
</mgrwt>
</event>
<event>
 7    0  0.4737014E-002  0.4528907E+03  0.7546771E-02  0.1026864E+00
         21   -1    0    0  502  501  0.00000000000E+00  0.00000000000E+00  0.73361192568E+03  0.73361192568E+03  0.00000000000E+00 0. -1.
         21   -1    0    0  501  502 -0.00000000000E+00 -0.00000000000E+00 -0.69897290810E+02  0.69897290810E+02  0.00000000000E+00 0. -1.
      99926    2    1    2    0    0  0.00000000000E+00  0.00000000000E+00  0.66371463487E+03  0.80350921649E+03  0.45289065396E+03 0.  0.
      99925    2    3    3    0    0 -0.64541888977E+02  0.53484213748E+02  0.28911792770E+03  0.39978106825E+03  0.26307700368E+03 0.  0.
         25    1    4    4    0    0 -0.13447495956E+02  0.38821933341E+02  0.19169190658E+03  0.23255380625E+03  0.12509000000E+03 0.  0.
         25    1    3    3    0    0  0.64541888977E+02 -0.53484213748E+02  0.37459670717E+03  0.40372814823E+03  0.12509000000E+03 0.  0.
         25    1    4    4    0    0 -0.51094393021E+02  0.14662280407E+02  0.97426021120E+02  0.16722726200E+03  0.12509000000E+03 0.  0.
<mgrwt>
<rscale>  2 0.45289065E+03</rscale>
<asrwt>0</asrwt>
<pdfrwt beam="1">  1       21 0.10788410E+00 0.45289065E+03</pdfrwt>
<pdfrwt beam="2">  1       21 0.10279014E-01 0.45289065E+03</pdfrwt>
<totfact> 0.48391622E+04</totfact>
</mgrwt>
</event>
<event>
 7    0  0.4737014E-002  0.4530236E+03  0.7546771E-02  0.1026824E+00
         21   -1    0    0  502  501  0.00000000000E+00  0.00000000000E+00  0.11850854510E+03  0.11850854510E+03  0.00000000000E+00 0.  1.
         21   -1    0    0  501  502 -0.00000000000E+00 -0.00000000000E+00 -0.43294420736E+03  0.43294420736E+03  0.00000000000E+00 0.  1.
      99926    2    1    2    0    0  0.00000000000E+00  0.00000000000E+00 -0.31443566226E+03  0.55145275246E+03  0.45302356726E+03 0.  0.
      99925    2    3    3    0    0 -0.49040762326E+02  0.90006748706E+02 -0.14542233428E+03  0.31753134618E+03  0.26300625338E+03 0.  0.
         25    1    4    4    0    0 -0.45269862141E+02  0.51435805953E+02 -0.11468430974E+03  0.18301639695E+03  0.12509000000E+03 0.  0.
         25    1    3    3    0    0  0.49040762326E+02 -0.90006748706E+02 -0.16901332798E+03  0.23392140628E+03  0.12509000000E+03 0.  0.
         25    1    4    4    0    0 -0.37709001853E+01  0.38570942753E+02 -0.30738024541E+02  0.13451494923E+03  0.12509000000E+03 0.  0.
<mgrwt>
<rscale>  2 0.45302357E+03</rscale>
<asrwt>0</asrwt>
<pdfrwt beam="1">  1       21 0.17427727E-01 0.45302357E+03</pdfrwt>
<pdfrwt beam="2">  1       21 0.63668266E-01 0.45302357E+03</pdfrwt>
<totfact> 0.62746015E+04</totfact>
</mgrwt>
</event>
<event>
 7    0  0.4737014E-002  0.4554756E+03  0.7546771E-02  0.1026102E+00
         21   -1    0    0  502  501  0.00000000000E+00  0.00000000000E+00  0.39539242010E+03  0.39539242010E+03  0.00000000000E+00 0.  1.
         21   -1    0    0  501  502 -0.00000000000E+00 -0.00000000000E+00 -0.13117225181E+03  0.13117225181E+03  0.00000000000E+00 0.  1.
      99926    2    1    2    0    0  0.00000000000E+00 -0.88817841970E-15  0.26422016829E+03  0.52656467191E+03  0.45547563752E+03 0.  0.
      99925    2    3    3    0    0 -0.11288186028E+03  0.27877749429E+01  0.18236068449E+03  0.33921855037E+03  0.26279977092E+03 0.  0.
         25    1    4    4    0    0 -0.30596488258E+02  0.30721218631E+02  0.10114991785E+03  0.16660958060E+03  0.12509000000E+03 0.  0.
         25    1    4    4    0    0 -0.82285372020E+02 -0.27933443688E+02  0.81210766642E+02  0.17260896976E+03  0.12509000000E+03 0.  0.
         25    1    3    3    0    0  0.11288186028E+03 -0.27877749429E+01  0.81859483802E+02  0.18734612154E+03  0.12509000000E+03 0.  0.
<mgrwt>
<rscale>  2 0.45547564E+03</rscale>
<asrwt>0</asrwt>
<pdfrwt beam="1">  1       21 0.58145944E-01 0.45547564E+03</pdfrwt>
<pdfrwt beam="2">  1       21 0.19290037E-01 0.45547564E+03</pdfrwt>
<totfact> 0.63201056E+04</totfact>
</mgrwt>
</event>
<event>
 7    0  0.4737014E-002  0.4503547E+03  0.7546771E-02  0.1027616E+00
         21   -1    0    0  502  501  0.00000000000E+00  0.00000000000E+00  0.19792489337E+02  0.19792489337E+02  0.00000000000E+00 0. -1.
         21   -1    0    0  501  502 -0.00000000000E+00 -0.00000000000E+00 -0.25618219620E+04  0.25618219620E+04  0.00000000000E+00 0. -1.
      99926    2    1    2    0    0  0.00000000000E+00  0.00000000000E+00 -0.25420294727E+04  0.25816144514E+04  0.45035467741E+03 0.  0.
      99925    2    3    3    0    0  0.56757549638E+02 -0.68962272090E+02 -0.12505449009E+04  0.12810156963E+04  0.26298564709E+03 0.  0.
         25    1    4    4    0    0  0.68242200889E+01 -0.93106220944E+01 -0.45896629997E+03  0.47584748635E+03  0.12509000000E+03 0.  0.
         25    1    4    4    0    0  0.49933329549E+02 -0.59651649996E+02 -0.79157860091E+03  0.80516820992E+03  0.12509000000E+03 0.  0.
         25    1    3    3    0    0 -0.56757549638E+02  0.68962272090E+02 -0.12914845718E+04  0.13005987551E+04  0.12509000000E+03 0.  0.
<mgrwt>
<rscale>  2 0.45035468E+03</rscale>
<asrwt>0</asrwt>
<pdfrwt beam="1">  1       21 0.29106600E-02 0.45035468E+03</pdfrwt>
<pdfrwt beam="2">  1       21 0.37673854E+00 0.45035468E+03</pdfrwt>
<totfact> 0.65663885E+03</totfact>
</mgrwt>
</event>
<event>
 7    0  0.4737014E-002  0.4526654E+03  0.7546771E-02  0.1026930E+00
         21   -1    0    0  502  501  0.00000000000E+00  0.00000000000E+00  0.23637134395E+03  0.23637134395E+03  0.00000000000E+00 0. -1.
         21   -1    0    0  501  502 -0.00000000000E+00 -0.00000000000E+00 -0.21672039784E+03  0.21672039784E+03  0.00000000000E+00 0. -1.
      99926    2    1    2    0    0 -0.17763568394E-14 -0.14210854715E-13  0.19650946112E+02  0.45309174179E+03  0.45266540269E+03 0.  0.
      99925    2    3    3    0    0  0.13968031517E+02  0.71967782981E+02  0.96020019037E+02  0.28921919652E+03  0.26278019692E+03 0.  0.
         25    1    3    3    0    0 -0.13968031517E+02 -0.71967782981E+02 -0.76369072926E+02  0.16387254526E+03  0.12509000000E+03 0.  0.
         25    1    4    4    0    0 -0.13419812043E+01 -0.19763196215E+01  0.59863631394E+02  0.13869704112E+03  0.12509000000E+03 0.  0.
         25    1    4    4    0    0  0.15310012721E+02  0.73944102602E+02  0.36156387643E+02  0.15052215540E+03  0.12509000000E+03 0.  0.
<mgrwt>
<rscale>  2 0.45266540E+03</rscale>
<asrwt>0</asrwt>
<pdfrwt beam="1">  1       21 0.34760492E-01 0.45266540E+03</pdfrwt>
<pdfrwt beam="2">  1       21 0.31870647E-01 0.45266540E+03</pdfrwt>
<totfact> 0.69980339E+04</totfact>
</mgrwt>
</event>
<event>
 7    0  0.4737014E-002  0.4415209E+03  0.7546771E-02  0.1030281E+00
         21   -1    0    0  502  501  0.00000000000E+00  0.00000000000E+00  0.61359479685E+03  0.61359479685E+03  0.00000000000E+00 0. -1.
         21   -1    0    0  501  502 -0.00000000000E+00 -0.00000000000E+00 -0.79425685261E+02  0.79425685261E+02  0.00000000000E+00 0. -1.
      99926    2    1    2    0    0 -0.71054273576E-14  0.00000000000E+00  0.53416911158E+03  0.69302048211E+03  0.44152094950E+03 0.  0.
      99925    2    3    3    0    0  0.40484811479E+02  0.41350981681E+02  0.21522242598E+03  0.34556772272E+03  0.26409739623E+03 0.  0.
         25    1    3    3    0    0 -0.40484811479E+02 -0.41350981681E+02  0.31894668560E+03  0.34745275938E+03  0.12509000000E+03 0.  0.
         25    1    4    4    0    0  0.47627760435E+02  0.50108626217E+02  0.94367833934E+02  0.17126609170E+03  0.12509000000E+03 0.  0.
         25    1    4    4    0    0 -0.71429489561E+01 -0.87576445362E+01  0.12085459205E+03  0.17430163102E+03  0.12509000000E+03 0.  0.
<mgrwt>
<rscale>  2 0.44152095E+03</rscale>
<asrwt>0</asrwt>
<pdfrwt beam="1">  1       21 0.90234526E-01 0.44152095E+03</pdfrwt>
<pdfrwt beam="2">  1       21 0.11680248E-01 0.44152095E+03</pdfrwt>
<totfact> 0.59332297E+04</totfact>
</mgrwt>
</event>
<event>
 7    0  0.4737014E-002  0.4573529E+03  0.7546771E-02  0.1025552E+00
         21   -1    0    0  502  501  0.00000000000E+00  0.00000000000E+00  0.36884852027E+03  0.36884852027E+03  0.00000000000E+00 0.  1.
         21   -1    0    0  501  502 -0.00000000000E+00 -0.00000000000E+00 -0.14177342928E+03  0.14177342928E+03  0.00000000000E+00 0.  1.
      99926    2    1    2    0    0  0.00000000000E+00  0.13322676296E-14  0.22707509098E+03  0.51062194955E+03  0.45735290359E+03 0.  0.
      99925    2    3    3    0    0 -0.78751667548E+02 -0.36558375070E+01  0.23661009405E+03  0.36245442722E+03  0.26300890654E+03 0.  0.
         25    1    4    4    0    0 -0.10588490693E+02 -0.30040345481E+02  0.12356699093E+03  0.17869204750E+03  0.12509000000E+03 0.  0.
         25    1    4    4    0    0 -0.68163176855E+02  0.26384507974E+02  0.11304310312E+03  0.18376237973E+03  0.12509000000E+03 0.  0.
         25    1    3    3    0    0  0.78751667548E+02  0.36558375070E+01 -0.95350030617E+01  0.14816752233E+03  0.12509000000E+03 0.  0.
<mgrwt>
<rscale>  2 0.45735290E+03</rscale>
<asrwt>0</asrwt>
<pdfrwt beam="1">  1       21 0.54242429E-01 0.45735290E+03</pdfrwt>
<pdfrwt beam="2">  1       21 0.20849034E-01 0.45735290E+03</pdfrwt>
<totfact> 0.63339620E+04</totfact>
</mgrwt>
</event>
<event>
 7    0  0.4737014E-002  0.4606170E+03  0.7546771E-02  0.1024602E+00
         21   -1    0    0  502  501  0.00000000000E+00  0.00000000000E+00  0.89322470335E+03  0.89322470335E+03  0.00000000000E+00 0.  1.
         21   -1    0    0  501  502 -0.00000000000E+00 -0.00000000000E+00 -0.59382589506E+02  0.59382589506E+02  0.00000000000E+00 0.  1.
      99926    2    1    2    0    0  0.00000000000E+00  0.00000000000E+00  0.83384211384E+03  0.95260729285E+03  0.46061695972E+03 0.  0.
      99925    2    3    3    0    0  0.89387792975E+02 -0.58957642196E+02  0.62632000272E+03  0.68769388094E+03  0.26302081091E+03 0.  0.
         25    1    3    3    0    0 -0.89387792975E+02  0.58957642196E+02  0.20752211112E+03  0.26491341191E+03  0.12509000000E+03 0.  0.
         25    1    4    4    0    0  0.69329827498E+01 -0.38129732373E+02  0.25272873566E+03  0.28464234518E+03  0.12509000000E+03 0.  0.
         25    1    4    4    0    0  0.82454810225E+02 -0.20827909823E+02  0.37359126706E+03  0.40305153576E+03  0.12509000000E+03 0.  0.
<mgrwt>
<rscale>  2 0.46061696E+03</rscale>
<asrwt>0</asrwt>
<pdfrwt beam="1">  1       21 0.13135657E+00 0.46061696E+03</pdfrwt>
<pdfrwt beam="2">  1       21 0.87327343E-02 0.46061696E+03</pdfrwt>
<totfact> 0.39281478E+04</totfact>
</mgrwt>
</event>
<event>
 7    0  0.4737014E-002  0.4586629E+03  0.7546771E-02  0.1025170E+00
         21   -1    0    0  502  501  0.00000000000E+00  0.00000000000E+00  0.70714938210E+02  0.70714938210E+02  0.00000000000E+00 0. -1.
         21   -1    0    0  501  502 -0.00000000000E+00 -0.00000000000E+00 -0.74373123221E+03  0.74373123221E+03  0.00000000000E+00 0. -1.
      99926    2    1    2    0    0  0.00000000000E+00  0.00000000000E+00 -0.67301629400E+03  0.81444617042E+03  0.45866287459E+03 0.  0.
      99925    2    3    3    0    0 -0.52446964215E+02 -0.52785155660E+02 -0.26281383607E+03  0.37918702772E+03  0.26301089872E+03 0.  0.
         25    1    4    4    0    0 -0.37281376360E+02 -0.26246154801E+02 -0.18765209731E+03  0.23008602606E+03  0.12509000000E+03 0.  0.
         25    1    3    3    0    0  0.52446964215E+02  0.52785155660E+02 -0.41020245793E+03  0.43525914270E+03  0.12509000000E+03 0.  0.
         25    1    4    4    0    0 -0.15165587856E+02 -0.26539000859E+02 -0.75161738766E+02  0.14910100166E+03  0.12509000000E+03 0.  0.
<mgrwt>
<rscale>  2 0.45866287E+03</rscale>
<asrwt>0</asrwt>
<pdfrwt beam="1">  1       21 0.10399256E-01 0.45866287E+03</pdfrwt>
<pdfrwt beam="2">  1       21 0.10937224E+00 0.45866287E+03</pdfrwt>
<totfact> 0.45744929E+04</totfact>
</mgrwt>
</event>
<event>
 7    0  0.4737014E-002  0.4486386E+03  0.7546771E-02  0.1028129E+00
         21   -1    0    0  502  501  0.00000000000E+00  0.00000000000E+00  0.18449180690E+02  0.18449180690E+02  0.00000000000E+00 0. -1.
         21   -1    0    0  501  502 -0.00000000000E+00 -0.00000000000E+00 -0.27274465705E+04  0.27274465705E+04  0.00000000000E+00 0. -1.
      99926    2    1    2    0    0  0.14210854715E-13  0.00000000000E+00 -0.27089973898E+04  0.27458957512E+04  0.44863862785E+03 0.  0.
      99925    2    3    3    0    0 -0.78590118437E+02 -0.66521815402E+02 -0.15334032095E+04  0.15591899142E+04  0.26295670182E+03 0.  0.
         25    1    4    4    0    0 -0.80909090619E+02 -0.29389181681E+02 -0.81093169815E+03  0.82502589784E+03  0.12509000000E+03 0.  0.
         25    1    3    3    0    0  0.78590118437E+02  0.66521815402E+02 -0.11755941803E+04  0.11867058370E+04  0.12509000000E+03 0.  0.
         25    1    4    4    0    0  0.23189721823E+01 -0.37132633722E+02 -0.72247151134E+03  0.73416401636E+03  0.12509000000E+03 0.  0.
<mgrwt>
<rscale>  2 0.44863863E+03</rscale>
<asrwt>0</asrwt>
<pdfrwt beam="1">  1       21 0.27131157E-02 0.44863863E+03</pdfrwt>
<pdfrwt beam="2">  1       21 0.40109496E+00 0.44863863E+03</pdfrwt>
<totfact> 0.51806132E+03</totfact>
</mgrwt>
</event>
<event>
 7    0  0.4737014E-002  0.4446079E+03  0.7546771E-02  0.1029342E+00
         21   -1    0    0  502  501  0.00000000000E+00  0.00000000000E+00  0.67053248658E+03  0.67053248658E+03  0.00000000000E+00 0. -1.
         21   -1    0    0  501  502 -0.00000000000E+00 -0.00000000000E+00 -0.73701191455E+02  0.73701191455E+02  0.00000000000E+00 0. -1.
      99926    2    1    2    0    0  0.00000000000E+00  0.00000000000E+00  0.59683129513E+03  0.74423367804E+03  0.44460788644E+03 0.  0.
      99925    2    3    3    0    0 -0.74563915577E+02  0.64563087407E+02  0.42942545413E+03  0.51314842653E+03  0.26303406099E+03 0.  0.
         25    1    4    4    0    0 -0.19041694637E+02  0.57664063536E+02  0.26362554048E+03  0.29804976774E+03  0.12509000000E+03 0.  0.
         25    1    3    3    0    0  0.74563915577E+02 -0.64563087407E+02  0.16740584100E+03  0.23108525151E+03  0.12509000000E+03 0.  0.
         25    1    4    4    0    0 -0.55522220940E+02  0.68990238714E+01  0.16579991365E+03  0.21509865879E+03  0.12509000000E+03 0.  0.
<mgrwt>
<rscale>  2 0.44460789E+03</rscale>
<asrwt>0</asrwt>
<pdfrwt beam="1">  1       21 0.98607715E-01 0.44460789E+03</pdfrwt>
<pdfrwt beam="2">  1       21 0.10838411E-01 0.44460789E+03</pdfrwt>
<totfact> 0.54916683E+04</totfact>
</mgrwt>
</event>
<event>
 7    0  0.4737014E-002  0.4468984E+03  0.7546771E-02  0.1028651E+00
         21   -1    0    0  502  501  0.00000000000E+00  0.00000000000E+00  0.31113214113E+03  0.31113214113E+03  0.00000000000E+00 0. -1.
         21   -1    0    0  501  502 -0.00000000000E+00 -0.00000000000E+00 -0.16047696677E+03  0.16047696677E+03  0.00000000000E+00 0. -1.
      99926    2    1    2    0    0  0.00000000000E+00  0.00000000000E+00  0.15065517436E+03  0.47160910789E+03  0.44689838788E+03 0.  0.
      99925    2    3    3    0    0  0.61471898885E+01  0.60694019003E+02  0.48562487377E+01  0.27004922424E+03  0.26302366524E+03 0.  0.
         25    1    3    3    0    0 -0.61471898885E+01 -0.60694019003E+02  0.14579892562E+03  0.20155988365E+03  0.12509000000E+03 0.  0.
         25    1    4    4    0    0  0.32391806413E+02  0.36818880645E+02  0.29873563948E+02  0.13764009960E+03  0.12509000000E+03 0.  0.
         25    1    4    4    0    0 -0.26244616524E+02  0.23875138359E+02 -0.25017315210E+02  0.13240912464E+03  0.12509000000E+03 0.  0.
<mgrwt>
<rscale>  2 0.44689839E+03</rscale>
<asrwt>0</asrwt>
<pdfrwt beam="1">  1       21 0.45754727E-01 0.44689839E+03</pdfrwt>
<pdfrwt beam="2">  1       21 0.23599554E-01 0.44689839E+03</pdfrwt>
<totfact> 0.71824318E+04</totfact>
</mgrwt>
</event>
<event>
 7    0  0.4737014E-002  0.4526152E+03  0.7546771E-02  0.1026945E+00
         21   -1    0    0  502  501  0.00000000000E+00  0.00000000000E+00  0.45759423298E+03  0.45759423298E+03  0.00000000000E+00 0.  1.
         21   -1    0    0  501  502 -0.00000000000E+00 -0.00000000000E+00 -0.11192257141E+03  0.11192257141E+03  0.00000000000E+00 0.  1.
      99926    2    1    2    0    0  0.14210854715E-13 -0.71054273576E-14  0.34567166158E+03  0.56951680439E+03  0.45261517083E+03 0.  0.
      99925    2    3    3    0    0 -0.85237960959E+02  0.33226689827E+02  0.29689760491E+03  0.40704853176E+03  0.26300341539E+03 0.  0.
         25    1    4    4    0    0 -0.14056727017E+02 -0.45136448594E+01  0.10343011465E+03  0.16298239562E+03  0.12509000000E+03 0.  0.
         25    1    4    4    0    0 -0.71181233942E+02  0.37740334686E+02  0.19346749025E+03  0.24406613614E+03  0.12509000000E+03 0.  0.
         25    1    3    3    0    0  0.85237960959E+02 -0.33226689827E+02  0.48774056670E+02  0.16246827262E+03  0.12509000000E+03 0.  0.
<mgrwt>
<rscale>  2 0.45261517E+03</rscale>
<asrwt>0</asrwt>
<pdfrwt beam="1">  1       21 0.67293269E-01 0.45261517E+03</pdfrwt>
<pdfrwt beam="2">  1       21 0.16459202E-01 0.45261517E+03</pdfrwt>
<totfact> 0.61751301E+04</totfact>
</mgrwt>
</event>
<event>
 7    0  0.4737014E-002  0.4552412E+03  0.7546771E-02  0.1026171E+00
         21   -1    0    0  502  501  0.00000000000E+00  0.00000000000E+00  0.59958060385E+03  0.59958060385E+03  0.00000000000E+00 0. -1.
         21   -1    0    0  501  502 -0.00000000000E+00 -0.00000000000E+00 -0.86412283984E+02  0.86412283984E+02  0.00000000000E+00 0. -1.
      99926    2    1    2    0    0 -0.71054273576E-14  0.14210854715E-13  0.51316831987E+03  0.68599288783E+03  0.45524116427E+03 0.  0.
      99925    2    3    3    0    0 -0.61022699133E+02  0.89949111726E+02  0.27386448154E+03  0.39491137408E+03  0.26294224959E+03 0.  0.
         25    1    4    4    0    0 -0.37892994640E+02  0.74419993319E+01  0.10382240678E+03  0.16708639276E+03  0.12509000000E+03 0.  0.
         25    1    4    4    0    0 -0.23129704492E+02  0.82507112394E+02  0.17004207475E+03  0.22782498132E+03  0.12509000000E+03 0.  0.
         25    1    3    3    0    0  0.61022699133E+02 -0.89949111726E+02  0.23930383833E+03  0.29108151375E+03  0.12509000000E+03 0.  0.
<mgrwt>
<rscale>  2 0.45524116E+03</rscale>
<asrwt>0</asrwt>
<pdfrwt beam="1">  1       21 0.88173616E-01 0.45524116E+03</pdfrwt>
<pdfrwt beam="2">  1       21 0.12707689E-01 0.45524116E+03</pdfrwt>
<totfact> 0.53568492E+04</totfact>
</mgrwt>
</event>
<event>
 7    0  0.4737014E-002  0.4575566E+03  0.7546771E-02  0.1025492E+00
         21   -1    0    0  502  501  0.00000000000E+00  0.00000000000E+00  0.56236052488E+02  0.56236052488E+02  0.00000000000E+00 0. -1.
         21   -1    0    0  501  502 -0.00000000000E+00 -0.00000000000E+00 -0.93071101058E+03  0.93071101058E+03  0.00000000000E+00 0. -1.
      99926    2    1    2    0    0  0.00000000000E+00  0.00000000000E+00 -0.87447495809E+03  0.98694706307E+03  0.45755661176E+03 0.  0.
      99925    2    3    3    0    0 -0.10018991653E+02  0.47915153432E+02 -0.32337775371E+03  0.41971529483E+03  0.26304280069E+03 0.  0.
         25    1    4    4    0    0  0.64158266504E+01  0.56137179435E+02 -0.13261498339E+03  0.19085803013E+03  0.12509000000E+03 0.  0.
         25    1    3    3    0    0  0.10018991653E+02 -0.47915153432E+02 -0.55109720439E+03  0.56723176824E+03  0.12509000000E+03 0.  0.
         25    1    4    4    0    0 -0.16434818303E+02 -0.82220260022E+01 -0.19076277031E+03  0.22885726469E+03  0.12509000000E+03 0.  0.
<mgrwt>
<rscale>  2 0.45755661E+03</rscale>
<asrwt>0</asrwt>
<pdfrwt beam="1">  1       21 0.82700077E-02 0.45755661E+03</pdfrwt>
<pdfrwt beam="2">  1       21 0.13686927E+00 0.45755661E+03</pdfrwt>
<totfact> 0.38895666E+04</totfact>
</mgrwt>
</event>
<event>
 7    0  0.4737014E-002  0.4560575E+03  0.7546771E-02  0.1025931E+00
         21   -1    0    0  502  501  0.00000000000E+00  0.00000000000E+00  0.42606811220E+03  0.42606811220E+03  0.00000000000E+00 0.  1.
         21   -1    0    0  501  502 -0.00000000000E+00 -0.00000000000E+00 -0.12203940844E+03  0.12203940844E+03  0.00000000000E+00 0.  1.
      99926    2    1    2    0    0  0.00000000000E+00 -0.35527136788E-14  0.30402870376E+03  0.54810752064E+03  0.45605745413E+03 0.  0.
      99925    2    3    3    0    0  0.76919955656E+02  0.31895056958E+02  0.28493572844E+03  0.39662806974E+03  0.26304273822E+03 0.  0.
         25    1    3    3    0    0 -0.76919955656E+02 -0.31895056958E+02  0.19092975314E+02  0.15147945089E+03  0.12509000000E+03 0.  0.
         25    1    4    4    0    0  0.37658370152E+01  0.38144238711E+02  0.13817355344E+03  0.19028558392E+03  0.12509000000E+03 0.  0.
         25    1    4    4    0    0  0.73154118641E+02 -0.62491817529E+01  0.14676217500E+03  0.20634248583E+03  0.12509000000E+03 0.  0.
<mgrwt>
<rscale>  2 0.45605745E+03</rscale>
<asrwt>0</asrwt>
<pdfrwt beam="1">  1       21 0.62657075E-01 0.45605745E+03</pdfrwt>
<pdfrwt beam="2">  1       21 0.17946972E-01 0.45605745E+03</pdfrwt>
<totfact> 0.61475764E+04</totfact>
</mgrwt>
</event>
<event>
 7    0  0.4737014E-002  0.4560978E+03  0.7546771E-02  0.1025919E+00
         21   -1    0    0  502  501  0.00000000000E+00  0.00000000000E+00  0.18008827412E+03  0.18008827412E+03  0.00000000000E+00 0. -1.
         21   -1    0    0  501  502 -0.00000000000E+00 -0.00000000000E+00 -0.28878225071E+03  0.28878225071E+03  0.00000000000E+00 0. -1.
      99926    2    1    2    0    0 -0.14210854715E-13  0.00000000000E+00 -0.10869397659E+03  0.46887052483E+03  0.45609778393E+03 0.  0.
      99925    2    3    3    0    0 -0.87348663704E+02 -0.11695815819E+02  0.63386113764E+01  0.27743754556E+03  0.26299207694E+03 0.  0.
         25    1    3    3    0    0  0.87348663704E+02  0.11695815819E+02 -0.11503258797E+03  0.19143297927E+03  0.12509000000E+03 0.  0.
         25    1    4    4    0    0 -0.65717536885E+02  0.18194157288E+02 -0.21499250553E+02  0.14408174030E+03  0.12509000000E+03 0.  0.
         25    1    4    4    0    0 -0.21631126819E+02 -0.29889973108E+02  0.27837861929E+02  0.13335580526E+03  0.12509000000E+03 0.  0.
<mgrwt>
<rscale>  2 0.45609778E+03</rscale>
<asrwt>0</asrwt>
<pdfrwt beam="1">  1       21 0.26483570E-01 0.45609778E+03</pdfrwt>
<pdfrwt beam="2">  1       21 0.42467978E-01 0.45609778E+03</pdfrwt>
<totfact> 0.66935161E+04</totfact>
</mgrwt>
</event>
<event>
 7    0  0.4737014E-002  0.4719254E+03  0.7546771E-02  0.1021378E+00
         21   -1    0    0  502  501  0.00000000000E+00  0.00000000000E+00  0.32535095268E+03  0.32535095268E+03  0.00000000000E+00 0. -1.
         21   -1    0    0  501  502 -0.00000000000E+00 -0.00000000000E+00 -0.17113332653E+03  0.17113332653E+03  0.00000000000E+00 0. -1.
      99926    2    1    2    0    0  0.00000000000E+00  0.00000000000E+00  0.15421762615E+03  0.49648427920E+03  0.47192537893E+03 0.  0.
      99925    2    3    3    0    0 -0.11999748924E+03 -0.44538660611E+02  0.85474429199E+02  0.30476514886E+03  0.26304529686E+03 0.  0.
         25    1    3    3    0    0  0.11999748924E+03  0.44538660611E+02  0.68743196954E+02  0.19171913034E+03  0.12509000000E+03 0.  0.
         25    1    4    4    0    0 -0.55382519599E+02  0.18324741059E+02  0.33258476598E+02  0.14197413137E+03  0.12509000000E+03 0.  0.
         25    1    4    4    0    0 -0.64614969637E+02 -0.62863401669E+02  0.52215952601E+02  0.16279101749E+03  0.12509000000E+03 0.  0.
<mgrwt>
<rscale>  2 0.47192538E+03</rscale>
<asrwt>0</asrwt>
<pdfrwt beam="1">  1       21 0.47845728E-01 0.47192538E+03</pdfrwt>
<pdfrwt beam="2">  1       21 0.25166666E-01 0.47192538E+03</pdfrwt>
<totfact> 0.57408524E+04</totfact>
</mgrwt>
</event>
<event>
 7    0  0.4737014E-002  0.4537084E+03  0.7546771E-02  0.1026622E+00
         21   -1    0    0  502  501  0.00000000000E+00  0.00000000000E+00  0.46938286050E+03  0.46938286050E+03  0.00000000000E+00 0. -1.
         21   -1    0    0  501  502 -0.00000000000E+00 -0.00000000000E+00 -0.10963934684E+03  0.10963934684E+03  0.00000000000E+00 0. -1.
      99926    2    1    2    0    0 -0.71054273576E-14  0.71054273576E-14  0.35974351366E+03  0.57902220734E+03  0.45370840963E+03 0.  0.
      99925    2    3    3    0    0 -0.57842954602E+02  0.62186764311E+02  0.31972125476E+03  0.42261795432E+03  0.26300428423E+03 0.  0.
         25    1    4    4    0    0 -0.58909163591E+02  0.30180838545E+02  0.20964645627E+03  0.25294330847E+03  0.12509000000E+03 0.  0.
         25    1    4    4    0    0  0.10662089887E+01  0.32005925766E+02  0.11007479848E+03  0.16967464586E+03  0.12509000000E+03 0.  0.
         25    1    3    3    0    0  0.57842954602E+02 -0.62186764311E+02  0.40022258906E+02  0.15640425301E+03  0.12509000000E+03 0.  0.
<mgrwt>
<rscale>  2 0.45370841E+03</rscale>
<asrwt>0</asrwt>
<pdfrwt beam="1">  1       21 0.69026890E-01 0.45370841E+03</pdfrwt>
<pdfrwt beam="2">  1       21 0.16123434E-01 0.45370841E+03</pdfrwt>
<totfact> 0.60604928E+04</totfact>
</mgrwt>
</event>
<event>
 7    0  0.4737014E-002  0.4643107E+03  0.7546771E-02  0.1023538E+00
         21   -1    0    0  502  501  0.00000000000E+00  0.00000000000E+00  0.51895467673E+03  0.51895467673E+03  0.00000000000E+00 0. -1.
         21   -1    0    0  501  502 -0.00000000000E+00 -0.00000000000E+00 -0.10385513639E+03  0.10385513639E+03  0.00000000000E+00 0. -1.
      99926    2    1    2    0    0  0.00000000000E+00  0.00000000000E+00  0.41509954034E+03  0.62280981312E+03  0.46431070947E+03 0.  0.
      99925    2    3    3    0    0 -0.84694382521E+02  0.82583297873E+02  0.22125918493E+03  0.36355177370E+03  0.26309907968E+03 0.  0.
         25    1    3    3    0    0  0.84694382521E+02 -0.82583297873E+02  0.19384035541E+03  0.25925803942E+03  0.12509000000E+03 0.  0.
         25    1    4    4    0    0 -0.33802151684E+02  0.31550260833E+02  0.57465008926E+02  0.14521618287E+03  0.12509000000E+03 0.  0.
         25    1    4    4    0    0 -0.50892230837E+02  0.51033037040E+02  0.16379417601E+03  0.21833559083E+03  0.12509000000E+03 0.  0.
<mgrwt>
<rscale>  2 0.46431071E+03</rscale>
<asrwt>0</asrwt>
<pdfrwt beam="1">  1       21 0.76316863E-01 0.46431071E+03</pdfrwt>
<pdfrwt beam="2">  1       21 0.15272814E-01 0.46431071E+03</pdfrwt>
<totfact> 0.53269983E+04</totfact>
</mgrwt>
</event>
<event>
 7    0  0.4737014E-002  0.4541658E+03  0.7546771E-02  0.1026487E+00
         21   -1    0    0  502  501  0.00000000000E+00  0.00000000000E+00  0.19057953062E+03  0.19057953062E+03  0.00000000000E+00 0.  1.
         21   -1    0    0  501  502 -0.00000000000E+00 -0.00000000000E+00 -0.27057812215E+03  0.27057812215E+03  0.00000000000E+00 0.  1.
      99926    2    1    2    0    0  0.00000000000E+00  0.14210854715E-13 -0.79998591533E+02  0.46115765278E+03  0.45416583542E+03 0.  0.
      99925    2    3    3    0    0 -0.37072559610E+02 -0.10157914855E+03 -0.80866185758E+02  0.29580663550E+03  0.26319104755E+03 0.  0.
         25    1    4    4    0    0 -0.49462906195E+02 -0.28960398445E+02 -0.22890877124E+02  0.13948757695E+03  0.12509000000E+03 0.  0.
         25    1    3    3    0    0  0.37072559610E+02  0.10157914855E+03  0.86759422566E+00  0.16535101728E+03  0.12509000000E+03 0.  0.
         25    1    4    4    0    0  0.12390346585E+02 -0.72618750101E+02 -0.57975308634E+02  0.15631905855E+03  0.12509000000E+03 0.  0.
<mgrwt>
<rscale>  2 0.45416584E+03</rscale>
<asrwt>0</asrwt>
<pdfrwt beam="1">  1       21 0.28026402E-01 0.45416584E+03</pdfrwt>
<pdfrwt beam="2">  1       21 0.39790900E-01 0.45416584E+03</pdfrwt>
<totfact> 0.68549714E+04</totfact>
</mgrwt>
</event>
<event>
 7    0  0.4737014E-002  0.4551682E+03  0.7546771E-02  0.1026192E+00
         21   -1    0    0  502  501  0.00000000000E+00  0.00000000000E+00  0.26924368600E+04  0.26924368600E+04  0.00000000000E+00 0.  1.
         21   -1    0    0  501  502 -0.00000000000E+00 -0.00000000000E+00 -0.19237044664E+02  0.19237044664E+02  0.00000000000E+00 0.  1.
      99926    2    1    2    0    0  0.00000000000E+00 -0.35527136788E-14  0.26731998153E+04  0.27116739046E+04  0.45516822441E+03 0.  0.
      99925    2    3    3    0    0  0.10603615148E+03  0.29994183710E+02  0.15249546142E+04  0.15513903762E+04  0.26302510793E+03 0.  0.
         25    1    3    3    0    0 -0.10603615148E+03 -0.29994183710E+02  0.11482452011E+04  0.11602835284E+04  0.12509000000E+03 0.  0.
         25    1    4    4    0    0  0.16361006352E+02 -0.86461641844E+01  0.68852076786E+03  0.70003628088E+03  0.12509000000E+03 0.  0.
         25    1    4    4    0    0  0.89675145128E+02  0.38640347894E+02  0.83643384636E+03  0.85135409530E+03  0.12509000000E+03 0.  0.
<mgrwt>
<rscale>  2 0.45516822E+03</rscale>
<asrwt>0</asrwt>
<pdfrwt beam="1">  1       21 0.39594634E+00 0.45516822E+03</pdfrwt>
<pdfrwt beam="2">  1       21 0.28289790E-02 0.45516822E+03</pdfrwt>
<totfact> 0.51928393E+03</totfact>
</mgrwt>
</event>
<event>
 7    0  0.4737014E-002  0.4624013E+03  0.7546771E-02  0.1024087E+00
         21   -1    0    0  502  501  0.00000000000E+00  0.00000000000E+00  0.81620267615E+02  0.81620267615E+02  0.00000000000E+00 0.  1.
         21   -1    0    0  501  502 -0.00000000000E+00 -0.00000000000E+00 -0.65490758277E+03  0.65490758277E+03  0.00000000000E+00 0.  1.
      99926    2    1    2    0    0  0.71054273576E-14 -0.14210854715E-13 -0.57328731516E+03  0.73652785039E+03  0.46240126371E+03 0.  0.
      99925    2    3    3    0    0 -0.35132026944E+02  0.11390785836E+03 -0.37843911065E+03  0.47610014370E+03  0.26314620811E+03 0.  0.
         25    1    4    4    0    0 -0.77974635025E+01  0.36077831873E+02 -0.23447875344E+03  0.26830990348E+03  0.12509000000E+03 0.  0.
         25    1    3    3    0    0  0.35132026944E+02 -0.11390785836E+03 -0.19484820450E+03  0.26042770669E+03  0.12509000000E+03 0.  0.
         25    1    4    4    0    0 -0.27334563442E+02  0.77830026486E+02 -0.14396035721E+03  0.20779024022E+03  0.12509000000E+03 0.  0.
<mgrwt>
<rscale>  2 0.46240126E+03</rscale>
<asrwt>0</asrwt>
<pdfrwt beam="1">  1       21 0.12002981E-01 0.46240126E+03</pdfrwt>
<pdfrwt beam="2">  1       21 0.96309938E-01 0.46240126E+03</pdfrwt>
<totfact> 0.48103317E+04</totfact>
</mgrwt>
</event>
<event>
 7    0  0.4737014E-002  0.4556432E+03  0.7546771E-02  0.1026052E+00
         21   -1    0    0  502  501  0.00000000000E+00  0.00000000000E+00  0.12951927744E+04  0.12951927744E+04  0.00000000000E+00 0.  1.
         21   -1    0    0  501  502 -0.00000000000E+00 -0.00000000000E+00 -0.40073327223E+02  0.40073327223E+02  0.00000000000E+00 0.  1.
      99926    2    1    2    0    0  0.00000000000E+00  0.00000000000E+00  0.12551194472E+04  0.13352661017E+04  0.45564321071E+03 0.  0.
      99925    2    3    3    0    0  0.40784536509E+02  0.10206283960E+03  0.87004418802E+03  0.91572985175E+03  0.26363624681E+03 0.  0.
         25    1    4    4    0    0  0.60111289733E+02  0.38953503759E+02  0.43074795216E+03  0.45422686952E+03  0.12509000000E+03 0.  0.
         25    1    4    4    0    0 -0.19326753224E+02  0.63109335844E+02  0.43929623586E+03  0.46150298223E+03  0.12509000000E+03 0.  0.
         25    1    3    3    0    0 -0.40784536509E+02 -0.10206283960E+03  0.38507525919E+03  0.41953624991E+03  0.12509000000E+03 0.  0.
<mgrwt>
<rscale>  2 0.45564321E+03</rscale>
<asrwt>0</asrwt>
<pdfrwt beam="1">  1       21 0.19046950E+00 0.45564321E+03</pdfrwt>
<pdfrwt beam="2">  1       21 0.58931372E-02 0.45564321E+03</pdfrwt>
<totfact> 0.27967377E+04</totfact>
</mgrwt>
</event>
