<event>
 6    0  0.2120126E-005  0.6464725E+03  0.7546771E-02  0.9813421E-01
         21   -1    0    0  502  501  0.00000000000E+00  0.00000000000E+00  0.50670906651E+03  0.50670906651E+03  0.00000000000E+00 0. -1.
         21   -1    0    0  501  502 -0.00000000000E+00 -0.00000000000E+00 -0.20619654636E+03  0.20619654636E+03  0.00000000000E+00 0. -1.
      99926    2    1    2    0    0  0.46883211854E+02  0.11347334465E+03  0.19380174710E+03  0.50770100112E+03  0.45290943229E+03 0.  0.
         25    1    1    2    0    0 -0.46883211854E+02 -0.11347334465E+03  0.10671077304E+03  0.20520461175E+03  0.12509000000E+03 0.  0.
         25    1    3    3    0    0  0.76104383329E+02  0.17710388979E+03  0.26238596435E+03  0.34878584737E+03  0.12509000000E+03 0.  0.
         25    1    3    3    0    0 -0.29221171475E+02 -0.63630545140E+02 -0.68584217243E+02  0.15891515375E+03  0.12509000000E+03 0.  0.
<mgrwt>
<rscale>  2 0.64647246E+03</rscale>
<asrwt>0</asrwt>
<pdfrwt beam="1">  1       21 0.74516039E-01 0.64647246E+03</pdfrwt>
<pdfrwt beam="2">  1       21 0.30323022E-01 0.64647246E+03</pdfrwt>
<totfact> 0.14473780E+04</totfact>
</mgrwt>
</event>
<event>
 6    0  0.2120126E-005  0.8510907E+03  0.7546771E-02  0.9488874E-01
         21   -1    0    0  502  501  0.00000000000E+00  0.00000000000E+00  0.15188851522E+03  0.15188851522E+03  0.00000000000E+00 0.  1.
         21   -1    0    0  501  502 -0.00000000000E+00 -0.00000000000E+00 -0.11922485264E+04  0.11922485264E+04  0.00000000000E+00 0. -1.
      99926    2    1    2    0    0  0.20920096079E+03 -0.99126817709E+02 -0.94987521861E+03  0.10658814509E+04  0.42455761504E+03 0.  0.
         25    1    3    3    0    0  0.27807028729E+03 -0.33513343931E+02 -0.47279626306E+03  0.56358676648E+03  0.12509000000E+03 0.  0.
         25    1    1    2    0    0 -0.20920096079E+03  0.99126817709E+02 -0.90484792586E+02  0.27825559073E+03  0.12509000000E+03 0.  0.
         25    1    3    3    0    0 -0.68869326501E+02 -0.65613473778E+02 -0.47707895555E+03  0.50229468443E+03  0.12509000000E+03 0.  0.
<mgrwt>
<rscale>  2 0.85109073E+03</rscale>
<asrwt>0</asrwt>
<pdfrwt beam="1">  1       21 0.22336546E-01 0.85109073E+03</pdfrwt>
<pdfrwt beam="2">  1       21 0.17533067E+00 0.85109073E+03</pdfrwt>
<totfact> 0.28269749E+03</totfact>
</mgrwt>
</event>
<event>
 6    0  0.2120126E-005  0.5996594E+03  0.7546771E-02  0.9906113E-01
         21   -1    0    0  502  501  0.00000000000E+00  0.00000000000E+00  0.76534445890E+03  0.76534445890E+03  0.00000000000E+00 0.  1.
         21   -1    0    0  501  502 -0.00000000000E+00 -0.00000000000E+00 -0.11746063506E+03  0.11746063506E+03  0.00000000000E+00 0.  1.
      99926    2    1    2    0    0  0.55747553300E+02 -0.22027724164E+02  0.50064275084E+03  0.68051705179E+03  0.45702000336E+03 0.  0.
         25    1    3    3    0    0 -0.51554488522E+02 -0.15384819984E+01  0.49626929824E+03  0.51438405563E+03  0.12509000000E+03 0.  0.
         25    1    1    2    0    0 -0.55747553300E+02  0.22027724164E+02  0.14724107299E+03  0.20228804217E+03  0.12509000000E+03 0.  0.
         25    1    3    3    0    0  0.10730204182E+03 -0.20489242165E+02  0.43734526018E+01  0.16613299615E+03  0.12509000000E+03 0.  0.
<mgrwt>
<rscale>  2 0.59965939E+03</rscale>
<asrwt>0</asrwt>
<pdfrwt beam="1">  1       21 0.11255065E+00 0.59965939E+03</pdfrwt>
<pdfrwt beam="2">  1       21 0.17273623E-01 0.59965939E+03</pdfrwt>
<totfact> 0.16190966E+04</totfact>
</mgrwt>
</event>
<event>
 6    0  0.2120126E-005  0.1374798E+04  0.7546771E-02  0.8972265E-01
         21   -1    0    0  502  501  0.00000000000E+00  0.00000000000E+00  0.34242707148E+03  0.34242707148E+03  0.00000000000E+00 0.  1.
         21   -1    0    0  501  502 -0.00000000000E+00 -0.00000000000E+00 -0.13799075473E+04  0.13799075473E+04  0.00000000000E+00 0. -1.
      99926    2    1    2    0    0  0.24324926375E+02 -0.44461039497E+03 -0.10843084402E+04  0.12574577838E+04  0.45519795604E+03 0.  0.
         25    1    3    3    0    0  0.12547395893E+02 -0.29886159785E+03 -0.27364824842E+03  0.42427180413E+03  0.12509000000E+03 0.  0.
         25    1    3    3    0    0  0.11777530482E+02 -0.14574879712E+03 -0.81066019178E+03  0.83318597967E+03  0.12509000000E+03 0.  0.
         25    1    1    2    0    0 -0.24324926375E+02  0.44461039497E+03  0.46827964387E+02  0.46487683498E+03  0.12509000000E+03 0.  0.
<mgrwt>
<rscale>  2 0.13747985E+04</rscale>
<asrwt>0</asrwt>
<pdfrwt beam="1">  1       21 0.50356922E-01 0.13747985E+04</pdfrwt>
<pdfrwt beam="2">  1       21 0.20292758E+00 0.13747985E+04</pdfrwt>
<totfact> 0.31005795E+02</totfact>
</mgrwt>
</event>
<event>
 6    0  0.2323367E-005  0.6394769E+03  0.7546771E-02  0.9826728E-01
         21   -1    0    0  502  501  0.00000000000E+00  0.00000000000E+00  0.54113673844E+03  0.54113673844E+03  0.00000000000E+00 0.  1.
         21   -1    0    0  501  502 -0.00000000000E+00 -0.00000000000E+00 -0.18892208102E+03  0.18892208102E+03  0.00000000000E+00 0. -1.
      99926    2    1    2    0    0 -0.89323785736E+02 -0.25565357711E+01  0.23686564998E+03  0.53786574937E+03  0.47456185438E+03 0.  0.
         25    1    3    3    0    0  0.13201849625E+03 -0.77699517954E+02  0.17847447293E+03  0.26639584087E+03  0.12509000000E+03 0.  0.
         25    1    3    3    0    0 -0.22134228199E+03  0.75142982183E+02  0.58391177051E+02  0.27146990851E+03  0.12509000000E+03 0.  0.
         25    1    1    2    0    0  0.89323785736E+02  0.25565357711E+01  0.11534900744E+03  0.19219307009E+03  0.12509000000E+03 0.  0.
<mgrwt>
<rscale>  2 0.63947691E+03</rscale>
<asrwt>0</asrwt>
<pdfrwt beam="1">  1       21 0.79578932E-01 0.63947691E+03</pdfrwt>
<pdfrwt beam="2">  1       21 0.27782659E-01 0.63947691E+03</pdfrwt>
<totfact> 0.14822663E+04</totfact>
</mgrwt>
</event>
<event>
 6    0  0.2120126E-005  0.5719826E+03  0.7546771E-02  0.9965301E-01
         21   -1    0    0  502  501  0.00000000000E+00  0.00000000000E+00  0.57113903963E+02  0.57113903963E+02  0.00000000000E+00 0. -1.
         21   -1    0    0  501  502 -0.00000000000E+00 -0.00000000000E+00 -0.14320683210E+04  0.14320683210E+04  0.00000000000E+00 0. -1.
      99926    2    1    2    0    0 -0.79088275716E+01 -0.39098304318E+01 -0.11351077200E+04  0.12185315599E+04  0.44302572173E+03 0.  0.
         25    1    3    3    0    0 -0.29717743884E+02 -0.16373430612E+03 -0.34919165690E+03  0.40653952901E+03  0.12509000000E+03 0.  0.
         25    1    3    3    0    0  0.21808916313E+02  0.15982447569E+03 -0.78591606312E+03  0.81199203089E+03  0.12509000000E+03 0.  0.
         25    1    1    2    0    0  0.79088275716E+01  0.39098304318E+01 -0.23984669705E+03  0.27065066509E+03  0.12509000000E+03 0.  0.
<mgrwt>
<rscale>  2 0.57198256E+03</rscale>
<asrwt>0</asrwt>
<pdfrwt beam="1">  1       21 0.83991029E-02 0.57198256E+03</pdfrwt>
<pdfrwt beam="2">  1       21 0.21059830E+00 0.57198256E+03</pdfrwt>
<totfact> 0.10612638E+04</totfact>
</mgrwt>
</event>
<event>
 6    0  0.2120126E-005  0.5899402E+03  0.7546771E-02  0.9926500E-01
         21   -1    0    0  502  501  0.00000000000E+00  0.00000000000E+00  0.11842444917E+03  0.11842444917E+03  0.00000000000E+00 0.  1.
         21   -1    0    0  501  502 -0.00000000000E+00 -0.00000000000E+00 -0.73470772072E+03  0.73470772072E+03  0.00000000000E+00 0.  1.
      99926    2    1    2    0    0  0.39994704712E+02  0.36297101534E+01 -0.49940051644E+03  0.67728610726E+03  0.45574427486E+03 0.  0.
         25    1    1    2    0    0 -0.39994704712E+02 -0.36297101534E+01 -0.11688275512E+03  0.17584606264E+03  0.12509000000E+03 0.  0.
         25    1    3    3    0    0  0.95810066323E+02  0.14702812773E+03 -0.40251337249E+03  0.45657569174E+03  0.12509000000E+03 0.  0.
         25    1    3    3    0    0 -0.55815361612E+02 -0.14339841758E+03 -0.96887143953E+02  0.22071041552E+03  0.12509000000E+03 0.  0.
<mgrwt>
<rscale>  2 0.58994019E+03</rscale>
<asrwt>0</asrwt>
<pdfrwt beam="1">  1       21 0.17415361E-01 0.58994019E+03</pdfrwt>
<pdfrwt beam="2">  1       21 0.10804525E+00 0.58994019E+03</pdfrwt>
<totfact> 0.17694509E+04</totfact>
</mgrwt>
</event>
<event>
 6    0  0.2120126E-005  0.6153273E+03  0.7546771E-02  0.9874107E-01
         21   -1    0    0  502  501  0.00000000000E+00  0.00000000000E+00  0.46078140838E+02  0.46078140838E+02  0.00000000000E+00 0. -1.
         21   -1    0    0  501  502 -0.00000000000E+00 -0.00000000000E+00 -0.20542693795E+04  0.20542693795E+04  0.00000000000E+00 0.  1.
      99926    2    1    2    0    0 -0.39088570034E+02 -0.60838700142E+02 -0.16009108616E+04  0.16681969941E+04  0.46339654765E+03 0.  0.
         25    1    3    3    0    0 -0.17536626515E+03 -0.15009426753E+03 -0.95366157192E+03  0.98914079784E+03  0.12509000000E+03 0.  0.
         25    1    1    2    0    0  0.39088570034E+02  0.60838700142E+02 -0.40728037699E+03  0.43215052624E+03  0.12509000000E+03 0.  0.
         25    1    3    3    0    0  0.13627769511E+03  0.89255567393E+02 -0.64724928971E+03  0.67905619622E+03  0.12509000000E+03 0.  0.
<mgrwt>
<rscale>  2 0.61532727E+03</rscale>
<asrwt>0</asrwt>
<pdfrwt beam="1">  1       21 0.67761973E-02 0.61532727E+03</pdfrwt>
<pdfrwt beam="2">  1       21 0.30209843E+00 0.61532727E+03</pdfrwt>
<totfact> 0.41212206E+03</totfact>
</mgrwt>
</event>
<event>
 6    0  0.2120126E-005  0.6399713E+03  0.7546771E-02  0.9825782E-01
         21   -1    0    0  502  501  0.00000000000E+00  0.00000000000E+00  0.23451490551E+03  0.23451490551E+03  0.00000000000E+00 0.  1.
         21   -1    0    0  501  502 -0.00000000000E+00 -0.00000000000E+00 -0.43660681257E+03  0.43660681257E+03  0.00000000000E+00 0.  1.
      99926    2    1    2    0    0  0.62644255770E+02  0.12005270684E+03 -0.12758706864E+03  0.47228652439E+03  0.43409577957E+03 0.  0.
         25    1    3    3    0    0  0.21953841659E+02  0.19408676025E+03 -0.19870952309E+03  0.30542531712E+03  0.12509000000E+03 0.  0.
         25    1    1    2    0    0 -0.62644255770E+02 -0.12005270684E+03 -0.74504838415E+02  0.19883519368E+03  0.12509000000E+03 0.  0.
         25    1    3    3    0    0  0.40690414111E+02 -0.74034053415E+02  0.71122454450E+02  0.16686120727E+03  0.12509000000E+03 0.  0.
<mgrwt>
<rscale>  2 0.63997127E+03</rscale>
<asrwt>0</asrwt>
<pdfrwt beam="1">  1       21 0.34487487E-01 0.63997127E+03</pdfrwt>
<pdfrwt beam="2">  1       21 0.64206883E-01 0.63997127E+03</pdfrwt>
<totfact> 0.15658973E+04</totfact>
</mgrwt>
</event>
<event>
 6    0  0.2120126E-005  0.7765713E+03  0.7546771E-02  0.9594562E-01
         21   -1    0    0  502  501  0.00000000000E+00  0.00000000000E+00  0.11108388134E+04  0.11108388134E+04  0.00000000000E+00 0. -1.
         21   -1    0    0  501  502 -0.00000000000E+00 -0.00000000000E+00 -0.13572243095E+03  0.13572243095E+03  0.00000000000E+00 0.  1.
      99926    2    1    2    0    0  0.20078880552E+03 -0.34538169212E+01  0.83980096692E+03  0.97400695057E+03  0.45066151650E+03 0.  0.
         25    1    3    3    0    0  0.26311506124E+03 -0.10839868150E+03  0.45120306302E+03  0.54791561557E+03  0.12509000000E+03 0.  0.
         25    1    3    3    0    0 -0.62326255719E+02  0.10494486458E+03  0.38859790390E+03  0.42609133500E+03  0.12509000000E+03 0.  0.
         25    1    1    2    0    0 -0.20078880552E+03  0.34538169212E+01  0.13531541554E+03  0.27255429378E+03  0.12509000000E+03 0.  0.
<mgrwt>
<rscale>  2 0.77657130E+03</rscale>
<asrwt>0</asrwt>
<pdfrwt beam="1">  1       21 0.16335864E+00 0.77657130E+03</pdfrwt>
<pdfrwt beam="2">  1       21 0.19959182E-01 0.77657130E+03</pdfrwt>
<totfact> 0.43819517E+03</totfact>
</mgrwt>
</event>
<event>
 6    0  0.2120126E-005  0.8840754E+03  0.7546771E-02  0.9445710E-01
         21   -1    0    0  502  501  0.00000000000E+00  0.00000000000E+00  0.47922398487E+03  0.47922398487E+03  0.00000000000E+00 0. -1.
         21   -1    0    0  501  502 -0.00000000000E+00 -0.00000000000E+00 -0.40773694520E+03  0.40773694520E+03  0.00000000000E+00 0.  1.
      99926    2    1    2    0    0 -0.30941462033E+03 -0.20459761436E+02  0.90156896746E+01  0.54680480888E+03  0.45028680554E+03 0.  0.
         25    1    3    3    0    0 -0.41587656826E+02  0.12355866231E+03 -0.92095376851E+02  0.20279384302E+03  0.12509000000E+03 0.  0.
         25    1    3    3    0    0 -0.26782696350E+03 -0.14401842374E+03  0.10111106653E+03  0.34401096586E+03  0.12509000000E+03 0.  0.
         25    1    1    2    0    0  0.30941462033E+03  0.20459761436E+02  0.62471349990E+02  0.34015612119E+03  0.12509000000E+03 0.  0.
<mgrwt>
<rscale>  2 0.88407539E+03</rscale>
<asrwt>0</asrwt>
<pdfrwt beam="1">  1       21 0.70474116E-01 0.88407539E+03</pdfrwt>
<pdfrwt beam="2">  1       21 0.59961315E-01 0.88407539E+03</pdfrwt>
<totfact> 0.37556177E+03</totfact>
</mgrwt>
</event>
<event>
 6    0  0.2120126E-005  0.1013836E+04  0.7546771E-02  0.9293498E-01
         21   -1    0    0  502  501  0.00000000000E+00  0.00000000000E+00  0.11759928057E+04  0.11759928057E+04  0.00000000000E+00 0.  1.
         21   -1    0    0  501  502 -0.00000000000E+00 -0.00000000000E+00 -0.21850985908E+03  0.21850985908E+03  0.00000000000E+00 0. -1.
      99926    2    1    2    0    0  0.32092917256E+03  0.20868142414E+03  0.69762355965E+03  0.91521373347E+03  0.45209963101E+03 0.  0.
         25    1    3    3    0    0  0.30289382298E+03  0.27937643522E+03  0.60750083361E+03  0.74464799167E+03  0.12509000000E+03 0.  0.
         25    1    3    3    0    0  0.18035349581E+02 -0.70695011078E+02  0.90122726041E+02  0.17056574180E+03  0.12509000000E+03 0.  0.
         25    1    1    2    0    0 -0.32092917256E+03 -0.20868142414E+03  0.25985938697E+03  0.47928893131E+03  0.12509000000E+03 0.  0.
<mgrwt>
<rscale>  2 0.10138363E+04</rscale>
<asrwt>0</asrwt>
<pdfrwt beam="1">  1       21 0.17294012E+00 0.10138363E+04</pdfrwt>
<pdfrwt beam="2">  1       21 0.32133803E-01 0.10138363E+04</pdfrwt>
<totfact> 0.13850657E+03</totfact>
</mgrwt>
</event>
<event>
 6    0  0.2120126E-005  0.8711123E+03  0.7546771E-02  0.9462431E-01
         21   -1    0    0  502  501  0.00000000000E+00  0.00000000000E+00  0.11115771617E+04  0.11115771617E+04  0.00000000000E+00 0. -1.
         21   -1    0    0  501  502 -0.00000000000E+00 -0.00000000000E+00 -0.17066666385E+03  0.17066666385E+03  0.00000000000E+00 0. -1.
      99926    2    1    2    0    0 -0.10425840229E+03  0.28488685013E+03  0.63674557539E+03  0.83481322761E+03  0.44658466767E+03 0.  0.
         25    1    3    3    0    0 -0.23109804703E+03  0.22449090590E+03  0.35007168064E+03  0.49193512159E+03  0.12509000000E+03 0.  0.
         25    1    1    2    0    0  0.10425840229E+03 -0.28488685013E+03  0.30416492248E+03  0.44743059796E+03  0.12509000000E+03 0.  0.
         25    1    3    3    0    0  0.12683964474E+03  0.60395944233E+02  0.28667389475E+03  0.34287810602E+03  0.12509000000E+03 0.  0.
<mgrwt>
<rscale>  2 0.87111231E+03</rscale>
<asrwt>0</asrwt>
<pdfrwt beam="1">  1       21 0.16346723E+00 0.87111231E+03</pdfrwt>
<pdfrwt beam="2">  1       21 0.25098039E-01 0.87111231E+03</pdfrwt>
<totfact> 0.27474945E+03</totfact>
</mgrwt>
</event>
<event>
 6    0  0.2120126E-005  0.7585043E+03  0.7546771E-02  0.9622102E-01
         21   -1    0    0  502  501  0.00000000000E+00  0.00000000000E+00  0.16987344133E+03  0.16987344133E+03  0.00000000000E+00 0. -1.
         21   -1    0    0  501  502 -0.00000000000E+00 -0.00000000000E+00 -0.84670195492E+03  0.84670195492E+03  0.00000000000E+00 0. -1.
      99926    2    1    2    0    0 -0.13531864377E+03  0.13137010097E+03 -0.60797953438E+03  0.78002322692E+03  0.45080803179E+03 0.  0.
         25    1    1    2    0    0  0.13531864377E+03 -0.13137010097E+03 -0.68848979207E+02  0.23655216934E+03  0.12509000000E+03 0.  0.
         25    1    3    3    0    0  0.10025609097E+03  0.14848778033E+03 -0.31591681508E+03  0.38412347863E+03  0.12509000000E+03 0.  0.
         25    1    3    3    0    0 -0.23557473474E+03 -0.17117679358E+02 -0.29206271930E+03  0.39589974829E+03  0.12509000000E+03 0.  0.
<mgrwt>
<rscale>  2 0.75850425E+03</rscale>
<asrwt>0</asrwt>
<pdfrwt beam="1">  1       21 0.24981389E-01 0.75850425E+03</pdfrwt>
<pdfrwt beam="2">  1       21 0.12451499E+00 0.75850425E+03</pdfrwt>
<totfact> 0.59520766E+03</totfact>
</mgrwt>
</event>
