<event>
 5    0  0.3219609E-005  0.4149529E+03  0.7546771E-02  0.1038722E+00
         21   -1    0    0  502  501  0.00000000000E+00  0.00000000000E+00  0.10183196259E+03  0.10183196259E+03  0.00000000000E+00 0. -1.
         21   -1    0    0  501  502 -0.00000000000E+00 -0.00000000000E+00 -0.42272062859E+03  0.42272062859E+03  0.00000000000E+00 0. -1.
         25    1    1    2    0    0  0.39599260701E+02  0.42317830750E+01 -0.98714859450E+02  0.16425023900E+03  0.12509000000E+03 0.  0.
         25    1    1    2    0    0 -0.10984878258E+02 -0.65182922496E+02 -0.11579098235E+03  0.18282379667E+03  0.12509000000E+03 0.  0.
         25    1    1    2    0    0 -0.28614382443E+02  0.60951139421E+02 -0.10638282419E+03  0.17747855550E+03  0.12509000000E+03 0.  0.
<mgrwt>
<rscale>  2 0.41495287E+03</rscale>
<asrwt>0</asrwt>
<pdfrwt beam="1">  1       21 0.14975289E-01 0.41495287E+03</pdfrwt>
<pdfrwt beam="2">  1       21 0.62164797E-01 0.41495287E+03</pdfrwt>
<totfact> 0.88466437E+04</totfact>
</mgrwt>
</event>
<event>
 5    0  0.3219609E-005  0.4084168E+03  0.7546771E-02  0.1040904E+00
         21   -1    0    0  502  501  0.00000000000E+00  0.00000000000E+00  0.39194342760E+03  0.39194342760E+03  0.00000000000E+00 0. -1.
         21   -1    0    0  501  502 -0.00000000000E+00 -0.00000000000E+00 -0.10639565017E+03  0.10639565017E+03  0.00000000000E+00 0. -1.
         25    1    1    2    0    0  0.30019523900E+02 -0.23421655773E+02  0.12298084784E+03  0.17950360111E+03  0.12509000000E+03 0.  0.
         25    1    1    2    0    0  0.18514694321E+02  0.15343158369E+02  0.31769944908E+02  0.13128230617E+03  0.12509000000E+03 0.  0.
         25    1    1    2    0    0 -0.48534218222E+02  0.80784974043E+01  0.13079698468E+03  0.18755317049E+03  0.12509000000E+03 0.  0.
<mgrwt>
<rscale>  2 0.40841683E+03</rscale>
<asrwt>0</asrwt>
<pdfrwt beam="1">  1       21 0.57638739E-01 0.40841683E+03</pdfrwt>
<pdfrwt beam="2">  1       21 0.15646419E-01 0.40841683E+03</pdfrwt>
<totfact> 0.96347416E+04</totfact>
</mgrwt>
</event>
<event>
 5    0  0.3219609E-005  0.5391976E+03  0.7546771E-02  0.1004026E+00
         21   -1    0    0  502  501  0.00000000000E+00  0.00000000000E+00  0.80217721766E+03  0.80217721766E+03  0.00000000000E+00 0. -1.
         21   -1    0    0  501  502 -0.00000000000E+00 -0.00000000000E+00 -0.90607805300E+02  0.90607805300E+02  0.00000000000E+00 0. -1.
         25    1    1    2    0    0 -0.44291817405E+02  0.66202544670E+02  0.18025497727E+03  0.23341788051E+03  0.12509000000E+03 0.  0.
         25    1    1    2    0    0  0.89354390130E+02 -0.11373897144E+03  0.12310684511E+03  0.22742815146E+03  0.12509000000E+03 0.  0.
         25    1    1    2    0    0 -0.45062572724E+02  0.47536426774E+02  0.40820758998E+03  0.43193899100E+03  0.12509000000E+03 0.  0.
<mgrwt>
<rscale>  2 0.53919762E+03</rscale>
<asrwt>0</asrwt>
<pdfrwt beam="1">  1       21 0.11796723E+00 0.53919762E+03</pdfrwt>
<pdfrwt beam="2">  1       21 0.13324678E-01 0.53919762E+03</pdfrwt>
<totfact> 0.23652239E+04</totfact>
</mgrwt>
</event>
<event>
 6    0  0.3219609E-005  0.3922965E+03  0.7546771E-02  0.1046480E+00
         21   -1    0    0  502  501  0.00000000000E+00  0.00000000000E+00  0.48364080009E+03  0.48364080009E+03  0.00000000000E+00 0.  1.
         21   -1    0    0  501  502 -0.00000000000E+00 -0.00000000000E+00 -0.79551048149E+02  0.79551048149E+02  0.00000000000E+00 0.  1.
      99925    2    1    2    0    0  0.50202841634E+01  0.17385680458E+02  0.25711797492E+03  0.36934738358E+03  0.26453803430E+03 0.  0.
         25    1    1    2    0    0 -0.50202841634E+01 -0.17385680458E+02  0.14697177702E+03  0.19384446466E+03  0.12509000000E+03 0.  0.
         25    1    3    3    0    0 -0.11488505492E+02  0.43623383619E+02  0.10145133471E+03  0.16725688856E+03  0.12509000000E+03 0.  0.
         25    1    3    3    0    0  0.16508789655E+02 -0.26237703162E+02  0.15566664021E+03  0.20209049502E+03  0.12509000000E+03 0.  0.
<mgrwt>
<rscale>  2 0.39229648E+03</rscale>
<asrwt>0</asrwt>
<pdfrwt beam="1">  1       21 0.71123645E-01 0.39229648E+03</pdfrwt>
<pdfrwt beam="2">  1       21 0.11698684E-01 0.39229648E+03</pdfrwt>
<totfact> 0.10357188E+05</totfact>
</mgrwt>
</event>
<event>
 6    0  0.3219609E-005  0.4084643E+03  0.7546771E-02  0.1040888E+00
         21   -1    0    0  502  501  0.00000000000E+00  0.00000000000E+00  0.48836545454E+02  0.48836545454E+02  0.00000000000E+00 0. -1.
         21   -1    0    0  501  502 -0.00000000000E+00 -0.00000000000E+00 -0.85408919228E+03  0.85408919228E+03  0.00000000000E+00 0. -1.
      99925    2    1    2    0    0  0.39586141646E+02  0.21513267931E+02 -0.61673174905E+03  0.67223650889E+03  0.26365505929E+03 0.  0.
         25    1    3    3    0    0  0.50618011810E+01  0.49617118900E+02 -0.31601481190E+03  0.34351178984E+03  0.12509000000E+03 0.  0.
         25    1    3    3    0    0  0.34524340465E+02 -0.28103850969E+02 -0.30071693715E+03  0.32872471905E+03  0.12509000000E+03 0.  0.
         25    1    1    2    0    0 -0.39586141646E+02 -0.21513267931E+02 -0.18852089777E+03  0.23068922885E+03  0.12509000000E+03 0.  0.
<mgrwt>
<rscale>  2 0.40846427E+03</rscale>
<asrwt>0</asrwt>
<pdfrwt beam="1">  1       21 0.71818453E-02 0.40846427E+03</pdfrwt>
<pdfrwt beam="2">  1       21 0.12560134E+00 0.40846427E+03</pdfrwt>
<totfact> 0.63154250E+04</totfact>
</mgrwt>
</event>
<event>
 6    0  0.3219609E-005  0.4267893E+03  0.7546771E-02  0.1034879E+00
         21   -1    0    0  502  501  0.00000000000E+00  0.00000000000E+00  0.56772007888E+02  0.56772007888E+02  0.00000000000E+00 0. -1.
         21   -1    0    0  501  502 -0.00000000000E+00 -0.00000000000E+00 -0.80210775261E+03  0.80210775261E+03  0.00000000000E+00 0. -1.
      99925    2    1    2    0    0 -0.28350682880E+02  0.23350439838E+02 -0.33337292223E+03  0.42678037439E+03  0.26392229619E+03 0.  0.
         25    1    3    3    0    0 -0.16239069904E+02 -0.30117319510E+02 -0.17073447503E+03  0.21440272711E+03  0.12509000000E+03 0.  0.
         25    1    3    3    0    0 -0.12111612976E+02  0.53467759348E+02 -0.16263844720E+03  0.21237764728E+03  0.12509000000E+03 0.  0.
         25    1    1    2    0    0  0.28350682880E+02 -0.23350439838E+02 -0.41196282249E+03  0.43209938611E+03  0.12509000000E+03 0.  0.
<mgrwt>
<rscale>  2 0.42678926E+03</rscale>
<asrwt>0</asrwt>
<pdfrwt beam="1">  1       21 0.83488251E-02 0.42678926E+03</pdfrwt>
<pdfrwt beam="2">  1       21 0.11795702E+00 0.42678926E+03</pdfrwt>
<totfact> 0.56554534E+04</totfact>
</mgrwt>
</event>
<event>
 6    0  0.3219609E-005  0.4119648E+03  0.7546771E-02  0.1039714E+00
         21   -1    0    0  502  501  0.00000000000E+00  0.00000000000E+00  0.12952815827E+03  0.12952815827E+03  0.00000000000E+00 0.  1.
         21   -1    0    0  501  502 -0.00000000000E+00 -0.00000000000E+00 -0.32756394149E+03  0.32756394149E+03  0.00000000000E+00 0.  1.
      99925    2    1    2    0    0 -0.80909301055E+01  0.29579440150E+02 -0.65037441258E+02  0.27195303448E+03  0.26227500409E+03 0.  0.
         25    1    3    3    0    0  0.12665668832E+02  0.25180105911E+02 -0.67797261905E+02  0.14504631578E+03  0.12509000000E+03 0.  0.
         25    1    1    2    0    0  0.80909301055E+01 -0.29579440150E+02 -0.13299834195E+03  0.18513906528E+03  0.12509000000E+03 0.  0.
         25    1    3    3    0    0 -0.20756598937E+02  0.43993342386E+01  0.27598206462E+01  0.12690671870E+03  0.12509000000E+03 0.  0.
<mgrwt>
<rscale>  2 0.41196482E+03</rscale>
<asrwt>0</asrwt>
<pdfrwt beam="1">  1       21 0.19048259E-01 0.41196482E+03</pdfrwt>
<pdfrwt beam="2">  1       21 0.48171168E-01 0.41196482E+03</pdfrwt>
<totfact> 0.97774072E+04</totfact>
</mgrwt>
</event>
<event>
 6    0  0.3219609E-005  0.3992683E+03  0.7546771E-02  0.1044033E+00
         21   -1    0    0  502  501  0.00000000000E+00  0.00000000000E+00  0.23067648257E+03  0.23067648257E+03  0.00000000000E+00 0. -1.
         21   -1    0    0  501  502 -0.00000000000E+00 -0.00000000000E+00 -0.17276919951E+03  0.17276919951E+03  0.00000000000E+00 0. -1.
      99925    2    1    2    0    0  0.10400773729E+02  0.29664771997E+02  0.10298915883E+02  0.26596026643E+03  0.26389509442E+03 0.  0.
         25    1    1    2    0    0 -0.10400773729E+02 -0.29664771997E+02  0.47608367175E+02  0.13748541565E+03  0.12509000000E+03 0.  0.
         25    1    3    3    0    0  0.18277304261E+02 -0.25221743785E+02  0.67244330608E+01  0.12908494223E+03  0.12509000000E+03 0.  0.
         25    1    3    3    0    0 -0.78765305318E+01  0.54886515782E+02  0.35744828222E+01  0.13687532420E+03  0.12509000000E+03 0.  0.
<mgrwt>
<rscale>  2 0.39926829E+03</rscale>
<asrwt>0</asrwt>
<pdfrwt beam="1">  1       21 0.33923012E-01 0.39926829E+03</pdfrwt>
<pdfrwt beam="2">  1       21 0.25407235E-01 0.39926829E+03</pdfrwt>
<totfact> 0.11617327E+05</totfact>
</mgrwt>
</event>
<event>
 5    0  0.3219609E-005  0.3944103E+03  0.7546771E-02  0.1045733E+00
         21   -1    0    0  502  501  0.00000000000E+00  0.00000000000E+00  0.66178001370E+02  0.66178001370E+02  0.00000000000E+00 0.  1.
         21   -1    0    0  501  502 -0.00000000000E+00 -0.00000000000E+00 -0.58765565568E+03  0.58765565568E+03  0.00000000000E+00 0.  1.
         25    1    1    2    0    0  0.23391956486E+02  0.40279668941E+02 -0.12886472453E+03  0.18553506592E+03  0.12509000000E+03 0.  0.
         25    1    1    2    0    0 -0.70012621661E+01 -0.19135955755E+02 -0.21150428091E+03  0.24657001322E+03  0.12509000000E+03 0.  0.
         25    1    1    2    0    0 -0.16390694320E+02 -0.21143713185E+02 -0.18110864887E+03  0.22172857791E+03  0.12509000000E+03 0.  0.
<mgrwt>
<rscale>  2 0.39441033E+03</rscale>
<asrwt>0</asrwt>
<pdfrwt beam="1">  1       21 0.97320592E-02 0.39441033E+03</pdfrwt>
<pdfrwt beam="2">  1       21 0.86419948E-01 0.39441033E+03</pdfrwt>
<totfact> 0.92258747E+04</totfact>
</mgrwt>
</event>
<event>
 6    0  0.3219609E-005  0.4330572E+03  0.7546771E-02  0.1032899E+00
         21   -1    0    0  502  501  0.00000000000E+00  0.00000000000E+00  0.21533433491E+04  0.21533433491E+04  0.00000000000E+00 0. -1.
         21   -1    0    0  501  502 -0.00000000000E+00 -0.00000000000E+00 -0.21772951106E+02  0.21772951106E+02  0.00000000000E+00 0. -1.
      99925    2    1    2    0    0 -0.26152209360E+02  0.25254633187E+02  0.94123511026E+03  0.97767430166E+03  0.26191940133E+03 0.  0.
         25    1    1    2    0    0  0.26152209360E+02 -0.25254633187E+02  0.11903352877E+04  0.11974419986E+04  0.12509000000E+03 0.  0.
         25    1    3    3    0    0 -0.21901197081E+02  0.27389456630E+02  0.35000807794E+03  0.37334033735E+03  0.12509000000E+03 0.  0.
         25    1    3    3    0    0 -0.42510122791E+01 -0.21348234426E+01  0.59122703232E+03  0.60433396431E+03  0.12509000000E+03 0.  0.
<mgrwt>
<rscale>  2 0.43305722E+03</rscale>
<asrwt>0</asrwt>
<pdfrwt beam="1">  1       21 0.31666799E+00 0.43305722E+03</pdfrwt>
<pdfrwt beam="2">  1       21 0.32019061E-02 0.43305722E+03</pdfrwt>
<totfact> 0.13159657E+04</totfact>
</mgrwt>
</event>
